Title
81356
    1CHL1    C3    1   5.151   6.443  10.295  0.6021  0.0540  0.4185
    1CHL1    H3    2   5.131   6.542  10.248 -1.7733  0.2624  1.6913
    1CHL1    O3    3   5.153   6.482  10.428  0.4426 -0.4072 -0.2755
    1CHL1   H3'    4   5.181   6.409  10.484 -0.3019 -1.5524 -1.3648
    1CHL1    C4    5   5.035   6.351  10.264  0.1927  0.1167  0.1716
    1CHL1   H4A    6   5.036   6.269  10.339  0.4220  0.3711  0.4497
    1CHL1   H4B    7   4.948   6.415  10.292  0.7449  1.3031 -0.7354
    1CHL1    C5    8   5.018   6.306  10.121  0.0818 -0.3220 -0.2242
    1CHL1    C6    9   4.905   6.323  10.051 -0.6899 -0.3370  0.2567
    1CHL1    H6   10   4.816   6.362  10.102 -0.6527 -0.3476  0.3305
    1CHL1    C7   11   4.883   6.271   9.910 -0.4487 -0.2696  0.6710
    1CHL1   H7A   12   4.799   6.199   9.909 -0.0834 -0.7106  1.2856
    1CHL1   H7B   13   4.861   6.348   9.833 -0.1908 -0.8171  0.0365
    1CHL1    C8   14   5.001   6.188   9.854  0.3677  0.6325  0.1871
    1CHL1    H8   15   4.992   6.084   9.891 -1.1136 -0.5642 -3.0878
    1CHL1   C14   16   4.996   6.193   9.704  0.1777  0.0037  1.2470
    1CHL1   H14   17   5.018   6.300   9.680  1.2117 -0.6156 -0.8026
    1CHL1   C15   18   4.868   6.148   9.637  0.5059  0.2902  0.0186
    1CHL1  H15A   19   4.838   6.050   9.680  2.3655 -1.2814 -2.0249
    1CHL1  H15B   20   4.778   6.209   9.660  0.5340  0.2737  0.1689
    1CHL1   C16   21   4.898   6.124   9.493 -0.8556  0.6686 -0.8079
    1CHL1  H16A   22   4.853   6.028   9.462  1.0242 -0.9884  1.2719
    1CHL1  H16B   23   4.859   6.212   9.436 -0.1812  1.4411 -0.1004
    1CHL1   C17   24   5.056   6.131   9.484 -0.5385 -0.2688  0.5218
    1CHL1   H17   25   5.088   6.233   9.452  1.4925 -1.0128  0.0068
    1CHL1   C13   26   5.107   6.112   9.629  0.1264 -0.0575 -0.5709
    1CHL1   C18   27   5.097   5.958   9.659  0.9015 -0.4492  0.8478
    1CHL1  H18A   28   5.190   5.904   9.632  1.4578 -0.6927  3.0435
    1CHL1  H18B   29   5.109   5.949   9.770  1.0707 -1.1652  0.7743
    1CHL1  H18C   30   5.000   5.918   9.624  0.6466  2.0930 -1.6886
    1CHL1   C12   31   5.243   6.176   9.671 -0.4766  0.1188 -0.2754
    1CHL1  H12A   32   5.338   6.129   9.638 -2.9564 -3.5756 -2.9094
    1CHL1  H12B   33   5.243   6.283   9.641 -0.7463 -0.1726 -1.3481
    1CHL1   C11   34   5.260   6.171   9.831 -0.3690 -0.0150  0.7422
    1CHL1  H11A   35   5.264   6.063   9.855 -0.6140 -0.3113 -0.4803
    1CHL1  H11B   36   5.361   6.210   9.857  0.5116 -1.1016 -0.8506
    1CHL1    C9   37   5.135   6.240   9.902 -0.0533  0.0524  0.0110
    1CHL1    H9   38   5.156   6.343   9.867 -0.5062  0.3705  0.6561
    1CHL1   C10   39   5.149   6.256  10.059 -0.6441  2.3065 -0.0265
    1CHL1   C19   40   5.166   6.116  10.135  0.0876  0.9982  0.0234
    1CHL1  H19A   41   5.263   6.071  10.105  0.0303 -0.4580  1.7968
    1CHL1  H19B   42   5.184   6.127  10.244  2.4412  1.2348 -0.3448
    1CHL1  H19C   43   5.080   6.050  10.106  1.6131 -1.3664  0.5769
    1CHL1    C1   44   5.270   6.350  10.096  0.7695 -0.0288  0.5763
    1CHL1   H1A   45   5.363   6.305  10.054  0.7884 -0.0920  0.6889
    1CHL1   H1B   46   5.254   6.447  10.043  2.9133  0.1618  0.1630
    1CHL1    C2   47   5.281   6.386  10.244 -0.6539 -0.0491  0.4379
    1CHL1   H2A   48   5.361   6.455  10.280 -0.3436 -0.1314 -0.0803
    1CHL1   H2B   49   5.297   6.295  10.304  0.9609  1.1479  1.9370
    1CHL1   C20   50   5.118   6.042   9.378 -0.7869 -0.0856 -0.1466
    1CHL1   H20   51   5.128   5.938   9.415  0.4524  0.4648  1.1399
    1CHL1   C21   52   5.263   6.101   9.351  0.5177  0.1548  0.8197
    1CHL1  H21A   53   5.315   6.033   9.280 -0.0611 -0.2900  0.8181
    1CHL1  H21B   54   5.322   6.112   9.445  0.7933  0.2752  0.6321
    1CHL1  H21C   55   5.260   6.200   9.302 -0.6676  0.0769  0.7145
    1CHL1   C22   56   5.039   6.031   9.248  0.0348  0.4696  0.5554
    1CHL1  H22A   57   4.935   5.993   9.255 -0.0269  0.5919  0.3261
    1CHL1  H22B   58   5.025   6.133   9.205 -0.6579  1.0738  2.1339
    1CHL1   C23   59   5.112   5.941   9.145  0.4904  0.0026  0.8090
    1CHL1  H23A   60   5.210   5.981   9.111 -0.9764  1.7302 -1.7661
    1CHL1  H23B   61   5.128   5.834   9.170  0.6855  0.3185  2.1357
    1CHL1   C24   62   5.044   5.953   9.010 -0.0625 -0.5446 -0.4881
    1CHL1  H24A   63   4.934   5.943   9.025 -0.5907  1.6536 -2.4665
    1CHL1  H24B   64   5.072   6.048   8.960 -2.0720  0.2632 -0.1569
    1CHL1   C25   65   5.086   5.834   8.915  0.8050 -0.6915  0.4884
    1CHL1   H25   66   5.054   5.740   8.965  0.6390 -0.7309  0.3126
    1CHL1   C26   67   5.013   5.860   8.779  0.9698  0.2384  0.3277
    1CHL1  H26A   68   5.052   5.943   8.717 -0.6033  1.1465  0.4880
    1CHL1  H26B   69   4.998   5.775   8.710 -0.7351 -0.5579  1.6080
    1CHL1  H26C   70   4.904   5.878   8.792 -0.0543 -2.8538 -2.4920
    1CHL1   C27   71   5.236   5.833   8.899  0.4153 -0.5870  0.0715
    1CHL1  H27A   72   5.276   5.810   9.001  0.5223  0.8874  0.3965
    1CHL1  H27B   73   5.275   5.751   8.836  1.2321 -0.3473  0.2421
    1CHL1  H27C   74   5.272   5.933   8.865 -1.4304 -0.4249 -1.5391
    2CHL1    C3   75   1.942   5.691   9.977  0.3731 -0.8370  0.2279
    2CHL1    H3   76   2.049   5.710   9.954  0.4353 -2.0352 -0.5675
    2CHL1    O3   77   1.934   5.650  10.108  0.1948  0.0217  0.2135
    2CHL1   H3'   78   1.956   5.558  10.122  0.5911  0.3863  2.2967
    2CHL1    C4   79   1.866   5.825   9.973  0.1260  0.9420 -0.0120
    2CHL1   H4A   80   1.763   5.806  10.008  0.8817 -1.1479  1.2357
    2CHL1   H4B   81   1.903   5.904  10.042 -2.7566  2.7777 -0.3955
    2CHL1    C5   82   1.858   5.876   9.833  0.0206  0.3434  0.1024
    2CHL1    C6   83   1.893   6.004   9.801 -0.6675  0.7295 -0.4421
    2CHL1    H6   84   1.905   6.068   9.890 -0.9298  0.0022  0.1266
    2CHL1    C7   85   1.879   6.062   9.663 -0.2243 -0.3729 -0.0264
    2CHL1   H7A   86   1.837   6.165   9.660 -0.6528 -0.5063  1.1116
    2CHL1   H7B   87   1.979   6.062   9.615  0.0379 -2.8349  0.4160
    2CHL1    C8   88   1.791   5.976   9.563  0.1745  0.6623  1.0339
    2CHL1    H8   89   1.688   6.007   9.592 -0.6708 -1.5094  0.5412
    2CHL1   C14   90   1.832   6.016   9.417 -0.0576 -0.5043 -0.4247
    2CHL1   H14   91   1.934   5.973   9.414 -0.1781 -1.0552  1.6484
    2CHL1   C15   92   1.840   6.172   9.396  0.6000  0.5270 -0.1659
    2CHL1  H15A   93   1.763   6.234   9.446  2.3014  3.5820 -1.1073
    2CHL1  H15B   94   1.934   6.226   9.420 -1.0969  3.0357  1.2753
    2CHL1   C16   95   1.808   6.180   9.241  1.1189 -0.9967 -0.0520
    2CHL1  H16A   96   1.710   6.230   9.225  1.2532 -1.3205 -2.1634
    2CHL1  H16B   97   1.886   6.240   9.190  0.4816  0.4797  0.6515
    2CHL1   C17   98   1.807   6.032   9.189  0.1874 -0.7053 -0.2333
    2CHL1   H17   99   1.911   5.998   9.174  0.0145 -1.4784  0.2878
    2CHL1   C13  100   1.757   5.948   9.310 -0.3612 -0.4954  0.4370
    2CHL1   C18  101   1.607   5.981   9.316  0.5086 -0.2485  0.0550
    2CHL1  H18A  102   1.583   6.089   9.300  0.1104  0.0039  2.0674
    2CHL1  H18B  103   1.549   5.915   9.248  1.2680 -1.2118  0.3336
    2CHL1  H18C  104   1.571   5.964   9.419 -1.9512  2.2180 -0.2534
    2CHL1   C12  105   1.781   5.793   9.325  0.5474  0.0947  0.2382
    2CHL1  H12A  106   1.727   5.741   9.243 -1.2074  0.8308  0.8684
    2CHL1  H12B  107   1.889   5.777   9.303  0.3268  0.2449 -1.0487
    2CHL1   C11  108   1.735   5.741   9.466 -0.1940 -0.6223 -0.7133
    2CHL1  H11A  109   1.625   5.748   9.482  0.0562  1.5375  0.5276
    2CHL1  H11B  110   1.770   5.636   9.476 -0.8869 -0.8839 -0.9480
    2CHL1    C9  111   1.806   5.826   9.578  0.9596  0.8507  0.1556
    2CHL1    H9  112   1.915   5.812   9.558  0.9022  0.8835 -0.1931
    2CHL1   C10  113   1.801   5.779   9.722 -0.1006  0.3847  0.2256
    2CHL1   C19  114   1.647   5.748   9.755 -0.2608 -0.2237 -0.5270
    2CHL1  H19A  115   1.614   5.673   9.681  1.7712 -0.3580 -1.3629
    2CHL1  H19B  116   1.642   5.695   9.853  0.2860  1.4464  0.4463
    2CHL1  H19C  117   1.585   5.840   9.753 -3.2595 -2.0520  0.7040
    2CHL1    C1  118   1.870   5.640   9.739  0.6921 -0.6031 -0.4591
    2CHL1   H1A  119   1.816   5.568   9.674 -0.0432  0.0588 -0.5911
    2CHL1   H1B  120   1.970   5.656   9.695  0.8858  1.5536  0.6171
    2CHL1    C2  121   1.880   5.591   9.884  0.0798 -0.1952  0.6733
    2CHL1   H2A  122   1.948   5.503   9.873  2.2469  1.5497 -0.7818
    2CHL1   H2B  123   1.783   5.558   9.926  0.3656 -0.6115  1.0175
    2CHL1   C20  124   1.734   6.022   9.052  0.3250  1.0437 -0.2273
    2CHL1   H20  125   1.625   6.037   9.069 -0.5752 -1.9983 -2.4278
    2CHL1   C21  126   1.760   5.879   8.996  0.2501 -0.2932 -0.7433
    2CHL1  H21A  127   1.696   5.803   9.047  0.5159  0.2207  0.3709
    2CHL1  H21B  128   1.868   5.862   9.011  0.6212  1.2564 -1.4910
    2CHL1  H21C  129   1.729   5.881   8.889  1.0322 -1.5328 -1.0133
    2CHL1   C22  130   1.767   6.123   8.939 -0.2855  0.6889 -0.0194
    2CHL1  H22A  131   1.796   6.221   8.981  0.2397  2.1946 -3.5293
    2CHL1  H22B  132   1.857   6.072   8.897 -2.0999 -2.4883 -0.3992
    2CHL1   C23  133   1.648   6.132   8.843 -0.0279  1.0086 -0.3374
    2CHL1  H23A  134   1.649   6.035   8.789  1.4778  0.4307  0.6852
    2CHL1  H23B  135   1.550   6.154   8.891 -1.4314 -1.3133 -1.9372
    2CHL1   C24  136   1.669   6.248   8.751 -0.0660 -0.6741 -0.2559
    2CHL1  H24A  137   1.679   6.341   8.811 -0.8915 -0.6997 -0.0731
    2CHL1  H24B  138   1.761   6.230   8.691 -0.1355 -0.2074 -0.5081
    2CHL1   C25  139   1.563   6.276   8.640  0.2995 -0.6083  0.1426
    2CHL1   H25  140   1.462   6.246   8.674 -2.1120  3.7039 -2.3467
    2CHL1   C26  141   1.556   6.426   8.596  0.6876  0.3957 -0.3410
    2CHL1  H26A  142   1.659   6.464   8.580  1.6997 -2.3498 -0.8598
    2CHL1  H26B  143   1.498   6.446   8.503 -1.9252 -2.9505  0.3639
    2CHL1  H26C  144   1.497   6.475   8.677 -0.2523 -2.2717  0.6946
    2CHL1   C27  145   1.593   6.186   8.517  0.9259 -0.1807 -0.5842
    2CHL1  H27A  146   1.679   6.222   8.456  1.6840  0.6330  0.9090
    2CHL1  H27B  147   1.619   6.090   8.565 -0.0538  0.4020  1.2261
    2CHL1  H27C  148   1.507   6.179   8.446  1.6973 -0.0464 -1.5444
    3CHL1    C3  149   6.069   4.587  10.107  0.2308  0.0390  0.1680
    3CHL1    H3  150   6.113   4.488  10.086 -0.0373 -0.3617  1.4023
    3CHL1    O3  151   6.060   4.608  10.250 -0.3238  0.3269 -0.3811
    3CHL1   H3'  152   6.056   4.699  10.281 -0.1616  0.4232 -0.6302
    3CHL1    C4  153   6.161   4.688  10.043  0.0301  0.0518 -0.4581
    3CHL1   H4A  154   6.121   4.789  10.066  0.3678  0.1414 -0.2554
    3CHL1   H4B  155   6.253   4.668  10.101 -0.1599 -0.6408 -0.3832
    3CHL1    C5  156   6.168   4.661   9.899  0.5744 -0.7077  0.2245
    3CHL1    C6  157   6.283   4.632   9.833 -0.1917  0.7795 -0.2670
    3CHL1    H6  158   6.379   4.631   9.887  1.1147  0.5804 -2.4559
    3CHL1    C7  159   6.303   4.619   9.681 -0.3881  0.2141  0.0234
    3CHL1   H7A  160   6.396   4.674   9.656 -0.8920  1.1790  0.2052
    3CHL1   H7B  161   6.312   4.515   9.645 -0.8374 -0.1863  1.0404
    3CHL1    C8  162   6.180   4.670   9.601 -0.1413 -0.0379 -1.0992
    3CHL1    H8  163   6.178   4.780   9.616  0.9797 -0.3176  1.8227
    3CHL1   C14  164   6.185   4.622   9.451  0.0303 -0.7337 -0.0383
    3CHL1   H14  165   6.198   4.512   9.461  0.0039 -0.7015  0.3988
    3CHL1   C15  166   6.310   4.657   9.363 -0.4875 -0.4896  0.2741
    3CHL1  H15A  167   6.359   4.751   9.395  1.5585 -1.3305 -0.2713
    3CHL1  H15B  168   6.383   4.576   9.382  1.6617  1.0671 -0.8866
    3CHL1   C16  169   6.256   4.638   9.225 -0.3485 -0.4533  0.4825
    3CHL1  H16A  170   6.270   4.733   9.169 -0.6071  0.5934  2.1132
    3CHL1  H16B  171   6.303   4.569   9.152  2.4075  1.1904  0.5498
    3CHL1   C17  172   6.102   4.607   9.228 -0.6818 -0.4162 -0.2472
    3CHL1   H17  173   6.092   4.496   9.227 -0.4190 -0.5273  2.3127
    3CHL1   C13  174   6.064   4.655   9.368  0.2750 -0.1275 -0.2755
    3CHL1   C18  175   6.047   4.811   9.366 -0.2126  0.5889 -0.3309
    3CHL1  H18A  176   6.135   4.869   9.330  1.0535  1.1218  3.2404
    3CHL1  H18B  177   5.957   4.840   9.308  0.3641 -1.0572 -2.1588
    3CHL1  H18C  178   6.034   4.849   9.470 -0.2975  0.1950 -0.1968
    3CHL1   C12  179   5.941   4.587   9.440 -0.2755  0.6617  0.3451
    3CHL1  H12A  180   5.844   4.582   9.386  0.5210 -0.2566 -1.0520
    3CHL1  H12B  181   5.956   4.478   9.454 -1.5219  0.2844 -1.0334
    3CHL1   C11  182   5.923   4.632   9.586 -0.4369 -0.7392 -0.0603
    3CHL1  H11A  183   5.892   4.739   9.586 -0.3702 -0.7067 -1.0140
    3CHL1  H11B  184   5.845   4.564   9.627 -1.7581 -0.3940 -1.8526
    3CHL1    C9  185   6.051   4.614   9.676  0.4182  0.2532  0.4804
    3CHL1    H9  186   6.074   4.506   9.689 -0.6609  0.0931  1.1811
    3CHL1   C10  187   6.034   4.670   9.818  0.1345  0.8884 -0.0741
    3CHL1   C19  188   5.977   4.814   9.818 -0.5549 -0.1653 -0.4926
    3CHL1  H19A  189   5.981   4.860   9.919 -0.7258  2.0827 -1.4423
    3CHL1  H19B  190   6.042   4.882   9.759  0.0274 -0.4137 -0.1518
    3CHL1  H19C  191   5.871   4.813   9.787 -1.0709 -0.9395  1.1806
    3CHL1    C1  192   5.930   4.580   9.902 -0.0174 -0.3044  0.4416
    3CHL1   H1A  193   5.830   4.600   9.860  0.7364  2.2914 -0.3230
    3CHL1   H1B  194   5.962   4.474   9.889 -0.9216 -0.9877  3.1666
    3CHL1    C2  195   5.926   4.600  10.055 -0.2428 -0.1290  0.5461
    3CHL1   H2A  196   5.860   4.523  10.102  1.1239 -1.6270  0.0695
    3CHL1   H2B  197   5.886   4.702  10.075  1.8291  0.4400  2.1931
    3CHL1   C20  198   6.027   4.651   9.105  0.3771 -0.0250  0.2518
    3CHL1   H20  199   6.023   4.762   9.110 -0.5903  0.0774 -1.8296
    3CHL1   C21  200   5.888   4.597   9.091 -0.7409 -0.2781  0.3120
    3CHL1  H21A  201   5.882   4.494   9.050 -1.1123 -0.0804 -0.1394
    3CHL1  H21B  202   5.836   4.663   9.018 -1.0733  0.3646  1.1163
    3CHL1  H21C  203   5.841   4.601   9.191  0.4356  1.4425  0.8329
    3CHL1   C22  204   6.113   4.612   8.977 -0.0180  0.3381 -0.2938
    3CHL1  H22A  205   6.215   4.655   8.980  0.4125 -0.5903 -0.8820
    3CHL1  H22B  206   6.117   4.501   8.968  2.6091  0.2758  0.8655
    3CHL1   C23  207   6.057   4.669   8.848  0.1645 -0.8855  0.0341
    3CHL1  H23A  208   5.956   4.635   8.818  1.1724 -1.8768 -2.4469
    3CHL1  H23B  209   6.038   4.779   8.847 -1.2164 -1.1071  0.2265
    3CHL1   C24  210   6.148   4.618   8.734  0.1608 -0.4911  1.0788
    3CHL1  H24A  211   6.248   4.663   8.749 -0.8222  1.2268  2.9268
    3CHL1  H24B  212   6.165   4.510   8.752  0.4247 -0.7836 -0.7228
    3CHL1   C25  213   6.090   4.637   8.592  0.5600 -0.3609 -0.2689
    3CHL1   H25  214   5.986   4.599   8.586  1.0869 -2.0570  0.8045
    3CHL1   C26  215   6.103   4.785   8.543  0.2787  0.0261  0.4666
    3CHL1  H26A  216   6.209   4.815   8.544 -0.0406  1.1873  1.0558
    3CHL1  H26B  217   6.055   4.813   8.446 -1.0279  0.2258  1.1383
    3CHL1  H26C  218   6.046   4.838   8.622  0.5947 -0.1520  0.8144
    3CHL1   C27  219   6.176   4.562   8.490  0.1879  0.9904  0.1159
    3CHL1  H27A  220   6.285   4.583   8.496  0.0551  2.2241 -1.1099
    3CHL1  H27B  221   6.167   4.452   8.500  0.3850  0.9801  0.1720
    3CHL1  H27C  222   6.136   4.595   8.391 -1.0015 -0.5306  0.0575
    4CHL1    C3  223   4.731   1.512  10.155  0.6160  0.1586  0.4338
    4CHL1    H3  224   4.661   1.441  10.105  0.1139  0.1121  1.1769
    4CHL1    O3  225   4.701   1.513  10.298 -0.3784 -0.0371 -0.4418
    4CHL1   H3'  226   4.739   1.595  10.331 -1.5470 -1.0247  3.8962
    4CHL1    C4  227   4.875   1.467  10.145  0.3147 -1.0301  0.1605
    4CHL1   H4A  228   4.933   1.530  10.215 -0.0090 -1.0800  0.4774
    4CHL1   H4B  229   4.876   1.362  10.180  0.5835 -1.2837 -0.6016
    4CHL1    C5  230   4.929   1.469  10.006 -0.6261  0.8919 -0.3120
    4CHL1    C6  231   4.971   1.354   9.948  0.7020 -0.7037 -0.0135
    4CHL1    H6  232   4.977   1.274  10.023 -0.2562  2.1908  3.4205
    4CHL1    C7  233   5.012   1.342   9.804  0.3954  0.0968  0.0851
    4CHL1   H7A  234   5.113   1.295   9.797  1.0898  1.2325  1.9174
    4CHL1   H7B  235   4.944   1.268   9.756  0.3341  0.1882  0.0336
    4CHL1    C8  236   5.025   1.476   9.730  0.1444  0.6591  0.0225
    4CHL1    H8  237   5.120   1.523   9.764  0.4228  0.2440 -0.1702
    4CHL1   C14  238   5.029   1.452   9.579  0.6160  1.0486  0.9380
    4CHL1   H14  239   4.933   1.403   9.550  1.4845  0.1163 -0.4718
    4CHL1   C15  240   5.134   1.348   9.524  0.3137 -0.2753  0.3954
    4CHL1  H15A  241   5.224   1.368   9.585  0.2583 -1.4399  0.8776
    4CHL1  H15B  242   5.099   1.243   9.537  0.4403 -0.3602  0.0602
    4CHL1   C16  243   5.140   1.368   9.372 -0.2185 -0.4036  0.1103
    4CHL1  H16A  244   5.238   1.405   9.333 -1.5254  2.2548 -0.9568
    4CHL1  H16B  245   5.116   1.273   9.321  0.7456 -0.9999  0.7475
    4CHL1   C17  246   5.043   1.495   9.339 -0.7051  0.3557 -0.4412
    4CHL1   H17  247   4.940   1.456   9.327 -1.3716  1.1929  1.9868
    4CHL1   C13  248   5.039   1.567   9.488 -0.7329  0.0506 -0.0215
    4CHL1   C18  249   5.172   1.639   9.516 -0.0798 -0.0934  0.0909
    4CHL1  H18A  250   5.188   1.735   9.463  2.0413 -0.3204  0.2466
    4CHL1  H18B  251   5.178   1.653   9.627 -0.4797 -0.8243  0.2099
    4CHL1  H18C  252   5.256   1.572   9.491 -2.3537 -3.4090  0.6079
    4CHL1   C12  253   4.931   1.663   9.521  1.1899  0.2354 -0.1344
    4CHL1  H12A  254   4.942   1.763   9.475 -1.6978  0.3450 -0.8408
    4CHL1  H12B  255   4.840   1.619   9.473  0.9027 -0.4143  0.9554
    4CHL1   C11  256   4.913   1.693   9.679  0.3249  0.2367  0.4451
    4CHL1  H11A  257   5.005   1.753   9.695  0.3491  0.6420 -1.1033
    4CHL1  H11B  258   4.826   1.756   9.709  0.7522  1.3277 -0.5393
    4CHL1    C9  259   4.906   1.565   9.765 -0.4481 -0.3599  0.4960
    4CHL1    H9  260   4.808   1.521   9.738 -0.3717  0.2160 -0.8315
    4CHL1   C10  261   4.893   1.589   9.919  0.0139 -0.0730  0.6667
    4CHL1   C19  262   4.997   1.703   9.949  0.4317  0.5877  0.5020
    4CHL1  H19A  263   5.100   1.675   9.919 -0.4274 -0.9149 -1.2393
    4CHL1  H19B  264   4.958   1.792   9.896 -1.3766 -0.5342 -0.1523
    4CHL1  H19C  265   5.002   1.723  10.058  0.0080 -0.6786  0.7715
    4CHL1    C1  266   4.749   1.639   9.946  0.0307 -0.0357  0.0870
    4CHL1   H1A  267   4.729   1.739   9.901  1.0353  0.7524  1.3178
    4CHL1   H1B  268   4.684   1.557   9.908 -0.5743 -0.2920  1.6170
    4CHL1    C2  269   4.718   1.646  10.092  0.3556 -0.0173  0.5534
    4CHL1   H2A  270   4.617   1.689  10.107 -0.3145 -1.2216 -0.3404
    4CHL1   H2B  271   4.790   1.720  10.134  1.1757 -0.1697 -0.5351
    4CHL1   C20  272   5.089   1.575   9.218 -0.1250 -0.1200  0.0243
    4CHL1   H20  273   5.185   1.612   9.257 -1.7668  1.6712  2.6572
    4CHL1   C21  274   5.007   1.699   9.177 -0.0350 -0.2254  0.9068
    4CHL1  H21A  275   5.048   1.736   9.081  0.0877 -0.7153  0.7674
    4CHL1  H21B  276   5.022   1.783   9.247  0.8505  0.8684 -0.5530
    4CHL1  H21C  277   4.902   1.663   9.171  0.2384 -0.9749  0.4418
    4CHL1   C22  278   5.105   1.491   9.091  0.0611  0.4593  0.8174
    4CHL1  H22A  279   5.149   1.391   9.112  2.2100  0.9083 -1.2223
    4CHL1  H22B  280   5.005   1.465   9.050  0.8100 -1.9962  0.4077
    4CHL1   C23  281   5.191   1.541   8.976 -0.5176  0.3204  0.4849
    4CHL1  H23A  282   5.211   1.456   8.908  0.7670  0.3999  0.7477
    4CHL1  H23B  283   5.156   1.627   8.914  0.7826  0.0530 -0.6654
    4CHL1   C24  284   5.325   1.598   9.018 -0.5507 -1.0091 -0.2305
    4CHL1  H24A  285   5.302   1.701   9.054 -1.1518 -1.1981 -0.0666
    4CHL1  H24B  286   5.368   1.543   9.104  1.4569  2.0835  0.9331
    4CHL1   C25  287   5.426   1.617   8.900 -0.5943  0.0564 -0.1202
    4CHL1   H25  288   5.431   1.520   8.846 -2.0551  1.1132 -2.3213
    4CHL1   C26  289   5.394   1.733   8.805  0.2549 -0.0065  0.5283
    4CHL1  H26A  290   5.393   1.825   8.866  0.3895  1.4895 -1.6207
    4CHL1  H26B  291   5.470   1.747   8.726 -0.7299  1.8417 -0.1496
    4CHL1  H26C  292   5.295   1.707   8.760  1.1606 -0.3965 -1.3224
    4CHL1   C27  293   5.561   1.639   8.963  0.1624  0.2495 -0.3190
    4CHL1  H27A  294   5.647   1.622   8.895  0.3653 -1.0326  0.2315
    4CHL1  H27B  295   5.571   1.745   8.996  1.9888 -0.6176  2.1570
    4CHL1  H27C  296   5.587   1.569   9.045  0.2820  0.8973  0.2028
    5CHL1    C3  297   0.814   2.324   9.944  0.2565  1.3157  0.3736
    5CHL1    H3  298   0.727   2.393   9.935 -0.6255  0.0818 -0.9768
    5CHL1    O3  299   0.864   2.338  10.073 -0.6227  0.3423  0.1188
    5CHL1   H3'  300   0.909   2.423  10.080  0.6587 -0.3029  0.1602
    5CHL1    C4  301   0.774   2.176   9.915  0.0440 -0.5036 -0.1747
    5CHL1   H4A  302   0.854   2.107   9.950  1.2101  0.4004 -0.9890
    5CHL1   H4B  303   0.698   2.158   9.994  1.0139  2.0950  1.4616
    5CHL1    C5  304   0.726   2.150   9.774  0.1782  0.2769 -0.4710
    5CHL1    C6  305   0.607   2.095   9.758 -0.5145 -0.2413 -0.6960
    5CHL1    H6  306   0.553   2.074   9.852  0.6462  1.7446  0.4735
    5CHL1    C7  307   0.546   2.055   9.629  0.7863 -0.0331  0.3943
    5CHL1   H7A  308   0.504   1.953   9.644  0.7869 -0.2959 -1.1670
    5CHL1   H7B  309   0.451   2.113   9.619  0.5321  0.1466  3.1429
    5CHL1    C8  310   0.636   2.066   9.503 -0.4457  0.5117  0.4054
    5CHL1    H8  311   0.696   1.972   9.506 -2.0224 -0.5173  1.2488
    5CHL1   C14  312   0.554   2.079   9.375  0.8132 -0.3901 -0.1087
    5CHL1   H14  313   0.495   2.172   9.390  1.7937  0.4198 -1.1501
    5CHL1   C15  314   0.448   1.970   9.350 -0.0899  0.0875  0.8043
    5CHL1  H15A  315   0.500   1.875   9.373 -0.6129  0.2191  2.7271
    5CHL1  H15B  316   0.359   1.982   9.417  1.4032  0.0832  2.8814
    5CHL1   C16  317   0.421   1.992   9.200 -0.5169 -0.4039  0.5261
    5CHL1  H16A  318   0.434   1.892   9.153 -0.6912 -0.5938  0.8728
    5CHL1  H16B  319   0.316   2.028   9.190 -0.6677 -1.0056 -0.1419
    5CHL1   C17  320   0.523   2.091   9.142 -0.1304  0.2971 -0.6304
    5CHL1   H17  321   0.483   2.194   9.156  0.7940  0.3638  2.4514
    5CHL1   C13  322   0.641   2.090   9.247  0.7699 -0.0276  0.9804
    5CHL1   C18  323   0.721   1.966   9.214 -0.2404 -0.4214  0.0297
    5CHL1  H18A  324   0.802   1.949   9.287  0.0237  0.4995 -0.0452
    5CHL1  H18B  325   0.664   1.871   9.217  0.6452 -1.0090 -1.0619
    5CHL1  H18C  326   0.784   1.973   9.123 -0.0225 -4.3094 -0.2691
    5CHL1   C12  327   0.729   2.219   9.257  0.1517  0.0730  0.2147
    5CHL1  H12A  328   0.785   2.222   9.161 -2.7329  2.5151 -1.6101
    5CHL1  H12B  329   0.665   2.310   9.253 -2.0645 -1.4167 -1.1972
    5CHL1   C11  330   0.816   2.210   9.389 -0.9002 -0.2521  0.3736
    5CHL1  H11A  331   0.881   2.122   9.375  1.3678  0.6182  4.1555
    5CHL1  H11B  332   0.887   2.295   9.396 -1.4440  0.5910 -2.5919
    5CHL1    C9  333   0.736   2.188   9.516  0.6690  0.3389  0.1530
    5CHL1    H9  334   0.675   2.280   9.523 -1.5980 -1.1226  0.4967
    5CHL1   C10  335   0.811   2.193   9.658 -0.0710  0.0397 -0.0536
    5CHL1   C19  336   0.928   2.084   9.647  0.2728  0.2075  0.1002
    5CHL1  H19A  337   0.987   2.095   9.554 -2.7819  1.0706 -1.8796
    5CHL1  H19B  338   0.989   2.076   9.740  0.7884 -0.3939 -0.2791
    5CHL1  H19C  339   0.877   1.987   9.633  0.9354 -0.1506  0.1292
    5CHL1    C1  340   0.861   2.339   9.689 -1.3257  1.1175 -0.1601
    5CHL1   H1A  341   0.951   2.360   9.627  0.1066 -0.8173  1.1812
    5CHL1   H1B  342   0.774   2.406   9.671 -2.5789 -0.1214  1.0926
    5CHL1    C2  343   0.919   2.359   9.835 -0.2474  0.4533 -0.6997
    5CHL1   H2A  344   0.959   2.462   9.849 -0.0730  0.0219  2.8082
    5CHL1   H2B  345   1.003   2.288   9.832  0.9277  1.7848 -0.2908
    5CHL1   C20  346   0.550   2.060   8.994 -0.3081  0.0263 -0.6196
    5CHL1   H20  347   0.579   1.955   8.970  0.4830 -0.2889  1.5088
    5CHL1   C21  348   0.659   2.141   8.943  0.2121  0.0565 -0.3351
    5CHL1  H21A  349   0.758   2.136   8.994  0.4913  2.8448 -0.4435
    5CHL1  H21B  350   0.645   2.250   8.956 -0.0263  0.1211 -1.0946
    5CHL1  H21C  351   0.674   2.137   8.833  1.4522 -2.2263 -0.1381
    5CHL1   C22  352   0.415   2.085   8.919  0.3424  0.3690  0.4515
    5CHL1  H22A  353   0.332   2.018   8.951 -1.5768  1.9139 -1.0447
    5CHL1  H22B  354   0.376   2.184   8.949 -0.8014  0.1941 -0.3639
    5CHL1   C23  355   0.424   2.067   8.767 -0.4838  0.1683  0.0597
    5CHL1  H23A  356   0.334   2.116   8.723 -1.0386 -0.2351  0.7358
    5CHL1  H23B  357   0.496   2.143   8.728 -0.3521 -0.8715 -1.8734
    5CHL1   C24  358   0.459   1.932   8.706  0.2594  0.3819  0.2422
    5CHL1  H24A  359   0.555   1.896   8.749  0.3343 -1.1476 -1.1446
    5CHL1  H24B  360   0.370   1.867   8.711  0.2908  0.3121 -0.0827
    5CHL1   C25  361   0.480   1.931   8.552  0.1792 -0.0860 -0.2407
    5CHL1   H25  362   0.559   2.007   8.537  0.8258 -0.2638  1.9378
    5CHL1   C26  363   0.521   1.797   8.505  0.0729 -0.6820  0.1931
    5CHL1  H26A  364   0.589   1.747   8.577 -0.6305 -0.8654  0.7330
    5CHL1  H26B  365   0.437   1.727   8.484  0.8030 -1.3754 -0.4877
    5CHL1  H26C  366   0.575   1.813   8.409  0.0986  1.4599  0.4993
    5CHL1   C27  367   0.348   1.976   8.478  0.0825 -0.6100  0.1536
    5CHL1  H27A  368   0.322   2.082   8.503  4.0138  0.8915 -1.3134
    5CHL1  H27B  369   0.363   1.961   8.369  1.6040 -1.2025  0.4149
    5CHL1  H27C  370   0.268   1.911   8.518  1.2038 -1.0934  1.7350
    6CHL1    C3  371   4.383   0.520  10.226  0.2138 -0.0891  0.5535
    6CHL1    H3  372   4.321   0.612  10.214 -0.2317 -0.4120  0.3355
    6CHL1    O3  373   4.420   0.498  10.366 -0.0506 -0.4778  0.6637
    6CHL1   H3'  374   4.427   0.403  10.376 -1.1164 -0.6715 -0.1438
    6CHL1    C4  375   4.308   0.393  10.171  0.0710 -0.1093 -0.1205
    6CHL1   H4A  376   4.378   0.311  10.198  0.6570 -0.3930 -2.3243
    6CHL1   H4B  377   4.210   0.377  10.222  0.2961 -1.6393 -0.1187
    6CHL1    C5  378   4.291   0.406  10.020 -0.3941  0.1228  0.3409
    6CHL1    C6  379   4.174   0.383   9.963  0.3073 -0.0695  0.1123
    6CHL1    H6  380   4.094   0.347  10.030 -0.0802  2.6445  1.1982
    6CHL1    C7  381   4.151   0.379   9.814 -0.2777 -0.3984  0.4952
    6CHL1   H7A  382   4.091   0.287   9.796  0.7743 -0.8823 -0.6828
    6CHL1   H7B  383   4.087   0.463   9.780  2.0701  1.4999  0.5256
    6CHL1    C8  384   4.281   0.381   9.735 -0.4170  0.0267  0.6018
    6CHL1    H8  385   4.320   0.277   9.735 -0.2581  0.0820  0.0417
    6CHL1   C14  386   4.256   0.421   9.588  0.2104  0.2668  0.3468
    6CHL1   H14  387   4.216   0.524   9.594 -1.7018 -0.3614 -0.9079
    6CHL1   C15  388   4.145   0.335   9.518 -0.4687 -0.2150 -0.2070
    6CHL1  H15A  389   4.138   0.230   9.552  0.2220 -0.1049  0.2919
    6CHL1  H15B  390   4.047   0.377   9.548 -0.3236 -0.0421  0.0320
    6CHL1   C16  391   4.182   0.350   9.370  0.0013 -0.0412  0.3627
    6CHL1  H16A  392   4.219   0.249   9.344 -3.6250 -1.4201 -0.0844
    6CHL1  H16B  393   4.085   0.369   9.319 -1.2508 -0.7148  2.3539
    6CHL1   C17  394   4.298   0.451   9.368  0.0096  0.1050 -0.1036
    6CHL1   H17  395   4.243   0.547   9.373 -1.4763 -0.7763  2.1408
    6CHL1   C13  396   4.376   0.425   9.497 -0.2231  0.3075 -0.4533
    6CHL1   C18  397   4.445   0.290   9.498 -0.7574  0.3816  0.1994
    6CHL1  H18A  398   4.490   0.273   9.598  0.7731  0.2628 -0.4746
    6CHL1  H18B  399   4.374   0.206   9.483  0.0110 -0.3133  0.3939
    6CHL1  H18C  400   4.528   0.287   9.425 -1.8875 -0.7142 -1.1106
    6CHL1   C12  401   4.470   0.532   9.553 -0.3816  0.4789 -0.1921
    6CHL1  H12A  402   4.560   0.537   9.487 -1.6866 -2.2886 -2.4090
    6CHL1  H12B  403   4.429   0.635   9.546 -0.0689  0.5394 -1.4643
    6CHL1   C11  404   4.508   0.512   9.705 -0.5360 -0.1982  0.4799
    6CHL1  H11A  405   4.584   0.431   9.706 -0.2310  0.0844  0.6724
    6CHL1  H11B  406   4.574   0.599   9.728  1.3645 -1.6165  0.6527
    6CHL1    C9  407   4.387   0.480   9.791  0.2036  0.1074 -0.1978
    6CHL1    H9  408   4.324   0.571   9.797  2.0735  1.5539 -1.2554
    6CHL1   C10  409   4.413   0.438   9.935 -0.2540 -0.8389  0.3650
    6CHL1   C19  410   4.505   0.311   9.943 -0.4013  0.0994  0.0573
    6CHL1  H19A  411   4.612   0.341   9.939 -0.7309  1.2078 -1.2785
    6CHL1  H19B  412   4.504   0.266  10.044  0.7083 -0.7440 -0.2797
    6CHL1  H19C  413   4.477   0.231   9.871  0.1881  0.3994 -0.5236
    6CHL1    C1  414   4.488   0.568  10.003 -0.4432  0.2901 -0.0197
    6CHL1   H1A  415   4.581   0.574   9.942 -0.5926  2.0675 -0.1162
    6CHL1   H1B  416   4.416   0.652   9.990 -0.1218  0.7630  1.1115
    6CHL1    C2  417   4.513   0.549  10.149 -0.0189  0.7384 -0.2689
    6CHL1   H2A  418   4.550   0.646  10.188  2.2350 -0.5990  1.1344
    6CHL1   H2B  419   4.588   0.469  10.162  0.0868  0.9493  0.4896
    6CHL1   C20  420   4.384   0.446   9.240 -0.1599 -0.0223  0.0056
    6CHL1   H20  421   4.465   0.372   9.257 -0.9370 -1.5364 -2.3651
    6CHL1   C21  422   4.456   0.583   9.212  1.1384  0.0828  1.0028
    6CHL1  H21A  423   4.372   0.645   9.173  0.9616 -0.1030  1.0846
    6CHL1  H21B  424   4.535   0.578   9.134 -0.6484  0.2101 -0.9050
    6CHL1  H21C  425   4.495   0.633   9.304 -0.8383  2.7078  0.5333
    6CHL1   C22  426   4.314   0.383   9.114 -0.0037  0.1195 -0.6675
    6CHL1  H22A  427   4.268   0.286   9.142  0.3439 -1.0683 -3.8180
    6CHL1  H22B  428   4.231   0.452   9.087  0.0269  0.0758 -0.8731
    6CHL1   C23  429   4.397   0.344   8.986 -0.0176 -0.1304 -0.2594
    6CHL1  H23A  430   4.456   0.436   8.965 -0.3666 -0.4411 -3.0177
    6CHL1  H23B  431   4.458   0.253   9.001 -1.1227 -0.7748  0.5105
    6CHL1   C24  432   4.293   0.322   8.870  0.1136 -0.4809 -0.3481
    6CHL1  H24A  433   4.259   0.216   8.866  0.9097 -0.7549 -0.1202
    6CHL1  H24B  434   4.210   0.395   8.874 -0.7042 -1.1020 -3.5660
    6CHL1   C25  435   4.364   0.351   8.729  0.1764  0.5115  0.2944
    6CHL1   H25  436   4.416   0.448   8.746 -0.8665  1.1128  0.1211
    6CHL1   C26  437   4.462   0.243   8.681  0.2730  0.5577 -0.7628
    6CHL1  H26A  438   4.539   0.233   8.760  0.7248 -0.6445 -1.3328
    6CHL1  H26B  439   4.396   0.156   8.661 -0.5650  1.3361 -1.4834
    6CHL1  H26C  440   4.510   0.268   8.583  0.8576  3.4986  0.1638
    6CHL1   C27  441   4.251   0.366   8.628  0.1364 -0.2599  0.4099
    6CHL1  H27A  442   4.191   0.449   8.671 -0.1261 -0.4078  0.3365
    6CHL1  H27B  443   4.285   0.397   8.527  2.2623 -0.3593  1.0416
    6CHL1  H27C  444   4.186   0.275   8.628 -2.8164  1.6960 -1.0653
    7CHL1    C3  445   3.263   3.970  10.318 -0.2082 -0.4165  0.6915
    7CHL1    H3  446   3.365   3.927  10.307 -0.1371 -0.2858  0.8270
    7CHL1    O3  447   3.254   4.033  10.445  0.1496  0.1464 -0.0277
    7CHL1   H3'  448   3.311   4.110  10.444 -0.0432  0.2984  0.4931
    7CHL1    C4  449   3.230   4.077  10.214  0.4661  0.2282 -0.2294
    7CHL1   H4A  450   3.133   4.126  10.236  0.4081 -0.2846  0.7126
    7CHL1   H4B  451   3.299   4.164  10.220  0.6075  0.1018  0.0343
    7CHL1    C5  452   3.220   4.019  10.078  0.2784  0.4426  0.4980
    7CHL1    C6  453   3.300   4.071   9.978 -0.7200  0.4747 -0.5982
    7CHL1    H6  454   3.363   4.158  10.003 -1.0207  0.2467  1.0596
    7CHL1    C7  455   3.307   4.022   9.835  0.4338  0.1680 -0.7359
    7CHL1   H7A  456   3.290   4.106   9.763 -1.1019  2.0370  1.6221
    7CHL1   H7B  457   3.404   3.972   9.812 -0.9555 -2.8401 -0.4285
    7CHL1    C8  458   3.193   3.923   9.802  0.3178 -0.0574  0.0032
    7CHL1    H8  459   3.106   3.990   9.787 -0.2078 -0.6668  0.2702
    7CHL1   C14  460   3.219   3.847   9.670 -0.0735 -0.2056  0.6387
    7CHL1   H14  461   3.304   3.776   9.683  0.7958  0.2085 -2.1616
    7CHL1   C15  462   3.258   3.926   9.543 -0.6933  0.1268 -0.2742
    7CHL1  H15A  463   3.191   4.014   9.547  0.2687  0.8422  0.4508
    7CHL1  H15B  464   3.365   3.956   9.550 -0.4181 -0.2739 -2.2289
    7CHL1   C16  465   3.221   3.835   9.429  0.4185  0.1427 -0.0385
    7CHL1  H16A  466   3.160   3.889   9.355  1.0205  1.1043  0.1548
    7CHL1  H16B  467   3.314   3.810   9.373  0.4327 -1.5917  0.6768
    7CHL1   C17  468   3.142   3.707   9.489  0.2491 -0.5089  0.7148
    7CHL1   H17  469   3.220   3.629   9.501  1.0675  0.1164 -0.3704
    7CHL1   C13  470   3.102   3.762   9.630  0.0319  0.4135 -0.1185
    7CHL1   C18  471   2.974   3.844   9.624  0.4679  0.1487 -0.2868
    7CHL1  H18A  472   2.927   3.870   9.721 -2.6515 -1.9585 -1.0887
    7CHL1  H18B  473   2.979   3.942   9.572  1.2877  0.7071  0.7901
    7CHL1  H18C  474   2.894   3.783   9.577  0.5666 -0.4765  0.3381
    7CHL1   C12  475   3.091   3.645   9.739 -0.3454 -0.0232 -0.3406
    7CHL1  H12A  476   3.014   3.567   9.717  1.8203 -2.3302 -0.1698
    7CHL1  H12B  477   3.181   3.581   9.731 -0.7043 -0.3763 -1.7176
    7CHL1   C11  478   3.065   3.707   9.880 -0.2488 -0.0052 -0.1541
    7CHL1  H11A  479   2.966   3.759   9.881 -1.5425 -2.3183 -0.0963
    7CHL1  H11B  480   3.048   3.630   9.959 -5.3407 -1.4335 -2.2489
    7CHL1    C9  481   3.166   3.823   9.919  0.1741 -0.6843  0.5623
    7CHL1    H9  482   3.258   3.765   9.943 -0.4858 -2.4301 -0.8547
    7CHL1   C10  483   3.130   3.893  10.062 -0.2339 -0.2243  0.4787
    7CHL1   C19  484   2.983   3.934  10.065  0.5120 -0.7730 -0.0050
    7CHL1  H19A  485   2.964   3.984  10.162  0.4794  0.1082 -0.4581
    7CHL1  H19B  486   2.949   4.000   9.983  1.9781 -0.3746 -0.3231
    7CHL1  H19C  487   2.917   3.845  10.075  0.0181 -0.4750 -0.5632
    7CHL1    C1  488   3.154   3.794  10.177  0.6491  0.1632 -0.0759
    7CHL1   H1A  489   3.077   3.714  10.172 -0.4955  1.2038  0.3614
    7CHL1   H1B  490   3.253   3.749  10.152  0.6495  0.0138  0.1852
    7CHL1    C2  491   3.152   3.856  10.313  0.3877  0.8029 -1.3744
    7CHL1   H2A  492   3.181   3.776  10.385  0.7976  1.6313 -0.6036
    7CHL1   H2B  493   3.051   3.888  10.345  1.1730  1.0473  1.0509
    7CHL1   C20  494   3.044   3.639   9.390 -0.2460  0.2820 -0.1391
    7CHL1   H20  495   2.964   3.713   9.366  0.1832  0.7481 -0.1417
    7CHL1   C21  496   2.995   3.511   9.454  0.2748 -0.3107  0.4574
    7CHL1  H21A  497   3.091   3.463   9.483 -0.7477 -1.8575  1.4056
    7CHL1  H21B  498   2.935   3.451   9.383 -3.5849  4.1070 -0.4878
    7CHL1  H21C  499   2.918   3.525   9.533 -0.8398 -1.7935 -0.3280
    7CHL1   C22  500   3.111   3.610   9.254  0.3805  0.1148  0.5914
    7CHL1  H22A  501   3.176   3.690   9.212  2.4392 -0.4513  2.4709
    7CHL1  H22B  502   3.153   3.508   9.258 -0.6873 -0.4142 -0.9793
    7CHL1   C23  503   3.003   3.590   9.140  0.2344  0.6284 -0.5081
    7CHL1  H23A  504   2.932   3.510   9.170  3.4083 -2.8761 -1.5089
    7CHL1  H23B  505   2.953   3.687   9.120  0.3879  0.4369 -1.9250
    7CHL1   C24  506   3.070   3.546   9.004  0.0046 -0.4144 -0.2240
    7CHL1  H24A  507   3.126   3.635   8.967 -1.0319  1.0978  1.6195
    7CHL1  H24B  508   3.140   3.462   9.025 -1.6314 -1.8412 -0.2987
    7CHL1   C25  509   2.971   3.504   8.894  0.2441  0.2798  0.0602
    7CHL1   H25  510   2.908   3.595   8.890  2.2456  1.7123 -0.0547
    7CHL1   C26  511   3.025   3.465   8.759  0.0630  0.4356 -0.6169
    7CHL1  H26A  512   3.085   3.553   8.729  1.7012 -0.0355  1.0682
    7CHL1  H26B  513   3.089   3.373   8.753  0.9798  0.9940  0.2665
    7CHL1  H26C  514   2.939   3.466   8.689  0.8638  1.8135 -1.6190
    7CHL1   C27  515   2.882   3.382   8.936  0.1309  0.5098 -0.6422
    7CHL1  H27A  516   2.813   3.411   9.018  1.5307 -1.2629  1.2751
    7CHL1  H27B  517   2.831   3.348   8.844 -0.4531  2.6932 -1.1686
    7CHL1  H27C  518   2.945   3.294   8.960  0.1305  1.0553  1.6211
    8CHL1    C3  519   0.338   0.672  10.188  0.0734  0.2568  0.1775
    8CHL1    H3  520   0.346   0.782  10.176  2.7774  0.2900  1.3445
    8CHL1    O3  521   0.322   0.662  10.331 -0.2155 -0.4032  0.0197
    8CHL1   H3'  522   0.396   0.710  10.369  0.0368 -0.3633 -0.5153
    8CHL1    C4  523   0.218   0.599  10.121  0.4951  0.3605  0.3250
    8CHL1   H4A  524   0.214   0.491  10.148  1.4830  0.6886  1.9641
    8CHL1   H4B  525   0.123   0.646  10.153 -1.4234 -0.2755 -3.8377
    8CHL1    C5  526   0.241   0.597   9.968  0.0361 -0.4400 -0.1706
    8CHL1    C6  527   0.138   0.642   9.887 -0.3322  1.0980  0.0876
    8CHL1    H6  528   0.050   0.678   9.942 -0.2594  0.5076  0.6042
    8CHL1    C7  529   0.139   0.623   9.733 -0.2534 -0.0182 -1.4946
    8CHL1   H7A  530   0.052   0.569   9.691 -2.2733 -0.4220  2.7713
    8CHL1   H7B  531   0.139   0.728   9.695  1.8558  1.5327  2.2243
    8CHL1    C8  532   0.256   0.534   9.686  0.3319  0.1064  0.2628
    8CHL1    H8  533   0.232   0.426   9.695 -1.4785  0.4456 -0.1151
    8CHL1   C14  534   0.286   0.564   9.540  0.3961 -0.3867 -0.3413
    8CHL1   H14  535   0.330   0.666   9.545 -0.1497 -0.1837  0.6848
    8CHL1   C15  536   0.167   0.562   9.447  0.2859 -0.8629 -0.8129
    8CHL1  H15A  537   0.105   0.470   9.460 -0.5236 -0.1416  0.6504
    8CHL1  H15B  538   0.102   0.650   9.465  1.7044 -0.0739  0.8240
    8CHL1   C16  539   0.232   0.561   9.304 -0.3952  0.2776 -0.2704
    8CHL1  H16A  540   0.193   0.475   9.245  0.2902 -1.6102  1.8918
    8CHL1  H16B  541   0.209   0.657   9.254 -0.0718  0.1090 -0.7478
    8CHL1   C17  542   0.386   0.543   9.331  0.0547 -0.3962  0.7520
    8CHL1   H17  543   0.422   0.648   9.339  0.0877 -0.3721  0.3117
    8CHL1   C13  544   0.388   0.478   9.470 -0.5004 -0.3878  0.0786
    8CHL1   C18  545   0.343   0.333   9.452 -0.0132 -0.2218  0.6340
    8CHL1  H18A  546   0.314   0.304   9.555 -2.2716 -0.1005  0.0843
    8CHL1  H18B  547   0.258   0.309   9.385 -2.0615  0.9846  2.6628
    8CHL1  H18C  548   0.434   0.277   9.422  0.5480  0.2849  1.3458
    8CHL1   C12  549   0.524   0.486   9.545 -0.7969 -0.1720  0.0576
    8CHL1  H12A  550   0.602   0.415   9.511 -0.2557  0.3981  0.0870
    8CHL1  H12B  551   0.552   0.593   9.539  2.1114 -0.9143 -1.0303
    8CHL1   C11  552   0.510   0.472   9.703  0.2511  0.1199  0.2101
    8CHL1  H11A  553   0.498   0.362   9.715 -1.6146  0.2579 -0.1997
    8CHL1  H11B  554   0.605   0.503   9.753  1.7763 -2.6956 -0.7362
    8CHL1    C9  555   0.390   0.554   9.762  0.0600 -0.9496 -0.0293
    8CHL1    H9  556   0.417   0.662   9.754  2.0791 -1.1509  2.8870
    8CHL1   C10  557   0.374   0.537   9.913  0.7182 -0.1545 -0.4808
    8CHL1   C19  558   0.374   0.391   9.954 -0.7338  0.0247  0.8473
    8CHL1  H19A  559   0.343   0.375  10.059 -1.7232  0.6370  0.6600
    8CHL1  H19B  560   0.308   0.334   9.885 -0.2507  0.3795  0.0670
    8CHL1  H19C  561   0.482   0.363   9.944  0.0595  2.6367  1.3315
    8CHL1    C1  562   0.481   0.616   9.990 -0.5284  0.1836 -0.2631
    8CHL1   H1A  563   0.580   0.576   9.959 -1.4968 -1.9953 -0.6887
    8CHL1   H1B  564   0.476   0.723   9.960  0.8100  0.5860  0.8148
    8CHL1    C2  565   0.469   0.614  10.150  0.0574 -0.2071 -0.5288
    8CHL1   H2A  566   0.552   0.670  10.198 -1.5383  0.4637  1.5901
    8CHL1   H2B  567   0.468   0.507  10.180 -1.0847  0.1289  0.7163
    8CHL1   C20  568   0.458   0.469   9.214 -0.1417 -0.2423 -0.2850
    8CHL1   H20  569   0.456   0.358   9.213  2.0848 -0.3288 -0.2704
    8CHL1   C21  570   0.607   0.510   9.238  0.0972 -0.3143  0.6195
    8CHL1  H21A  571   0.636   0.433   9.313 -1.1550  0.1083  1.5775
    8CHL1  H21B  572   0.625   0.612   9.278  0.3845 -1.3298  3.2671
    8CHL1  H21C  573   0.660   0.498   9.141  0.1247  1.3812  0.3919
    8CHL1   C22  574   0.418   0.531   9.077  0.2943  0.3103 -0.2083
    8CHL1  H22A  575   0.313   0.567   9.075  0.2781  0.3220  0.7582
    8CHL1  H22B  576   0.478   0.625   9.081 -0.6537  0.8994  0.7162
    8CHL1   C23  577   0.469   0.454   8.954 -0.0902 -0.0999  0.1507
    8CHL1  H23A  578   0.579   0.448   8.967  0.0113  2.4710  0.9465
    8CHL1  H23B  579   0.421   0.354   8.961 -0.9027  0.3398  1.3108
    8CHL1   C24  580   0.433   0.522   8.821 -0.0940 -0.5969 -0.3651
    8CHL1  H24A  581   0.323   0.534   8.809 -0.1636 -1.6594 -0.9759
    8CHL1  H24B  582   0.479   0.622   8.811  4.9043 -2.5142  0.3330
    8CHL1   C25  583   0.497   0.451   8.703 -0.4119  0.6215  0.8249
    8CHL1   H25  584   0.506   0.343   8.730  1.5281  0.0713 -1.6277
    8CHL1   C26  585   0.428   0.466   8.573  0.7264 -0.2447  0.2033
    8CHL1  H26A  586   0.321   0.436   8.574  0.8015 -0.5604  2.0932
    8CHL1  H26B  587   0.424   0.571   8.537 -1.0110 -0.6824 -1.0458
    8CHL1  H26C  588   0.479   0.408   8.493 -0.1802  0.7800 -1.1762
    8CHL1   C27  589   0.647   0.495   8.687 -0.1608 -0.1799 -0.0951
    8CHL1  H27A  590   0.705   0.462   8.776 -2.5716 -2.4383  0.7483
    8CHL1  H27B  591   0.685   0.438   8.601 -1.7399 -0.8720 -0.3655
    8CHL1  H27C  592   0.666   0.601   8.658  1.6935 -0.5816 -0.4778
    9CHL1    C3  593   3.276   2.718   9.866  0.0592 -0.1852 -0.2935
    9CHL1    H3  594   3.344   2.802   9.840 -2.1514  1.5509 -0.7618
    9CHL1    O3  595   3.221   2.744   9.993  0.0585 -0.3781 -0.2474
    9CHL1   H3'  596   3.142   2.690   9.995 -0.1730 -0.1075 -1.3535
    9CHL1    C4  597   3.166   2.721   9.761  0.6228 -0.7334 -0.0753
    9CHL1   H4A  598   3.082   2.654   9.789 -0.8601  1.6647  1.5806
    9CHL1   H4B  599   3.132   2.827   9.756 -1.3812 -1.2231  1.5357
    9CHL1    C5  600   3.225   2.687   9.622  0.6862 -0.5896  0.6130
    9CHL1    C6  601   3.225   2.775   9.516 -0.1285  0.0061 -0.0306
    9CHL1    H6  602   3.177   2.873   9.523 -1.2384 -0.4562 -0.9345
    9CHL1    C7  603   3.257   2.733   9.378 -0.3114  0.2091  0.7030
    9CHL1   H7A  604   3.170   2.751   9.311 -0.7615 -1.1319  0.9021
    9CHL1   H7B  605   3.337   2.796   9.333 -2.0670  1.1933 -1.2170
    9CHL1    C8  606   3.280   2.584   9.347  0.2026 -1.5052  0.1799
    9CHL1    H8  607   3.181   2.534   9.351 -0.1159 -0.8610  0.6806
    9CHL1   C14  608   3.348   2.566   9.210 -0.5942 -0.1875  0.2568
    9CHL1   H14  609   3.445   2.618   9.219  0.0141 -1.4775  1.7466
    9CHL1   C15  610   3.277   2.635   9.090 -0.2483  0.4878 -0.4080
    9CHL1  H15A  611   3.168   2.615   9.103 -0.6780 -0.3590 -4.0602
    9CHL1  H15B  612   3.292   2.745   9.086 -0.0721  0.4646 -0.3800
    9CHL1   C16  613   3.332   2.561   8.971  0.3377  0.4973 -0.2681
    9CHL1  H16A  614   3.240   2.516   8.928  0.8321  1.3798 -2.3438
    9CHL1  H16B  615   3.379   2.621   8.890 -0.4815 -1.9335 -2.6861
    9CHL1   C17  616   3.416   2.436   9.020 -0.3975  0.1743  0.1062
    9CHL1   H17  617   3.521   2.471   9.028  0.3224 -1.4945 -1.4176
    9CHL1   C13  618   3.379   2.425   9.168  0.6268 -0.3281 -0.0965
    9CHL1   C18  619   3.254   2.339   9.170  0.2052 -0.2461  0.0632
    9CHL1  H18A  620   3.196   2.363   9.078 -0.3021  1.1331  0.7176
    9CHL1  H18B  621   3.280   2.232   9.180  2.5242  0.2427 -0.2139
    9CHL1  H18C  622   3.196   2.356   9.263  0.8719  0.3436  0.3735
    9CHL1   C12  623   3.477   2.374   9.282  1.1506  0.2780  0.2204
    9CHL1  H12A  624   3.515   2.273   9.254 -1.1731  0.0882 -2.8463
    9CHL1  H12B  625   3.560   2.448   9.279 -0.0249  1.6166 -1.3530
    9CHL1   C11  626   3.411   2.384   9.425 -0.0800 -0.5727 -0.5609
    9CHL1  H11A  627   3.333   2.306   9.437  0.2582 -1.0227 -1.1952
    9CHL1  H11B  628   3.492   2.355   9.494  0.2432  4.0421  1.4017
    9CHL1    C9  629   3.362   2.521   9.464  0.3061  0.4828 -0.3947
    9CHL1    H9  630   3.454   2.583   9.476  1.1331 -0.2838 -2.3705
    9CHL1   C10  631   3.284   2.543   9.600  0.0090  0.2132 -0.0397
    9CHL1   C19  632   3.182   2.435   9.630 -0.4269 -0.2003  0.8691
    9CHL1  H19A  633   3.098   2.438   9.558  0.1518 -1.7645  0.0879
    9CHL1  H19B  634   3.221   2.332   9.620  1.6346  0.7085 -2.2749
    9CHL1  H19C  635   3.143   2.437   9.733 -0.0444 -0.5036  1.0220
    9CHL1    C1  636   3.395   2.545   9.715 -0.1941  0.1807  0.0943
    9CHL1   H1A  637   3.426   2.439   9.723  0.1061  0.4002  2.8853
    9CHL1   H1B  638   3.483   2.604   9.682 -1.2381  1.4708 -0.4605
    9CHL1    C2  639   3.348   2.581   9.863  0.0451  0.4949  0.8251
    9CHL1   H2A  640   3.428   2.602   9.937  0.3149  2.5298  0.0257
    9CHL1   H2B  641   3.276   2.503   9.894 -0.2741 -0.2401 -1.5838
    9CHL1   C20  642   3.417   2.316   8.924 -0.1756  0.0983 -0.6047
    9CHL1   H20  643   3.317   2.270   8.938  0.2771 -0.3805  1.3535
    9CHL1   C21  644   3.515   2.201   8.976 -0.6559 -0.1390  0.1663
    9CHL1  H21A  645   3.614   2.248   8.995  0.8070 -2.6948 -0.7287
    9CHL1  H21B  646   3.531   2.123   8.899 -0.5635  0.6830 -0.6746
    9CHL1  H21C  647   3.483   2.160   9.074  1.6536 -0.2313  0.9398
    9CHL1   C22  648   3.440   2.362   8.779  0.6405 -0.0154 -0.2765
    9CHL1  H22A  649   3.348   2.413   8.743  1.1967  0.8971 -0.4496
    9CHL1  H22B  650   3.526   2.431   8.760  0.1408  0.3064 -1.4631
    9CHL1   C23  651   3.462   2.248   8.670 -0.4515 -0.0727 -0.7630
    9CHL1  H23A  652   3.561   2.201   8.689 -0.4002  0.6214  0.8676
    9CHL1  H23B  653   3.386   2.172   8.696  1.0746 -2.3839 -2.6729
    9CHL1   C24  654   3.441   2.281   8.520  0.8497 -0.5362  0.1564
    9CHL1  H24A  655   3.341   2.328   8.510  0.1116 -2.1457 -0.1982
    9CHL1  H24B  656   3.524   2.346   8.482 -1.6078  1.9743 -1.3237
    9CHL1   C25  657   3.436   2.157   8.428 -0.4588 -0.2876 -0.0778
    9CHL1   H25  658   3.534   2.107   8.442 -0.7804 -0.5194  1.7059
    9CHL1   C26  659   3.320   2.056   8.458 -0.7280  0.0701 -0.2537
    9CHL1  H26A  660   3.221   2.102   8.483 -0.4421 -0.7605  2.6931
    9CHL1  H26B  661   3.293   2.004   8.363  0.8515  1.2749 -1.4139
    9CHL1  H26C  662   3.337   1.993   8.547 -1.9866  1.2933  0.8977
    9CHL1   C27  663   3.424   2.212   8.282  0.5196 -0.7060 -1.0219
    9CHL1  H27A  664   3.337   2.281   8.281 -0.4352 -1.5931  3.0748
    9CHL1  H27B  665   3.514   2.266   8.246  1.2311 -0.6460  0.7609
    9CHL1  H27C  666   3.389   2.133   8.212 -2.9853  1.6727 -2.2549
   10CHL1    C3  667   2.886   1.708  10.001  0.7337 -0.0983 -0.4847
   10CHL1    H3  668   2.854   1.608   9.965 -2.0372  0.3239  0.5418
   10CHL1    O3  669   2.916   1.702  10.137 -0.8849 -0.3075  0.6110
   10CHL1   H3'  670   2.874   1.626  10.178 -1.0573  1.2084  3.4501
   10CHL1    C4  671   3.006   1.770   9.923 -0.0835 -0.8591 -0.2002
   10CHL1   H4A  672   3.021   1.877   9.949  0.6212 -1.5260  2.4626
   10CHL1   H4B  673   3.102   1.724   9.956  0.2357 -0.4994 -0.6212
   10CHL1    C5  674   2.973   1.762   9.774  0.1207 -0.2546 -0.1499
   10CHL1    C6  675   3.044   1.682   9.686  0.2191 -0.4318 -0.1579
   10CHL1    H6  676   3.135   1.629   9.720  1.0490  0.5071 -0.8586
   10CHL1    C7  677   3.015   1.671   9.539  0.0111 -0.0356 -0.4598
   10CHL1   H7A  678   3.109   1.684   9.482 -0.0555  1.6513 -0.2380
   10CHL1   H7B  679   2.968   1.574   9.516 -2.3454  1.4111 -2.1887
   10CHL1    C8  680   2.903   1.773   9.489 -0.2758  0.1945 -0.5161
   10CHL1    H8  681   2.955   1.866   9.458  2.5652 -1.2549 -0.3916
   10CHL1   C14  682   2.833   1.717   9.357  0.4053 -0.2827 -0.5326
   10CHL1   H14  683   2.777   1.628   9.395  2.1590 -1.1940  0.0140
   10CHL1   C15  684   2.915   1.667   9.240  0.6581  1.0009 -0.0703
   10CHL1  H15A  685   3.009   1.725   9.227  1.0213  0.3673 -0.2737
   10CHL1  H15B  686   2.945   1.563   9.263  1.5219  1.7141  2.3867
   10CHL1   C16  687   2.820   1.678   9.118 -0.0610 -0.4610  0.3074
   10CHL1  H16A  688   2.865   1.742   9.040 -0.5893  1.3594  1.4258
   10CHL1  H16B  689   2.796   1.580   9.072  0.7392 -0.4340 -0.1985
   10CHL1   C17  690   2.691   1.749   9.171 -0.3630 -0.1715 -0.3797
   10CHL1   H17  691   2.630   1.664   9.209 -2.9236  1.9854  0.6653
   10CHL1   C13  692   2.741   1.822   9.301 -0.4946  0.0730 -0.4223
   10CHL1   C18  693   2.818   1.953   9.257  0.9232 -0.2692 -0.4420
   10CHL1  H18A  694   2.857   2.010   9.345 -0.8762  2.0831 -1.0868
   10CHL1  H18B  695   2.900   1.932   9.185  0.1132  2.3996 -2.3044
   10CHL1  H18C  696   2.757   2.032   9.208 -1.0979 -0.9853  0.7965
   10CHL1   C12  697   2.628   1.854   9.394 -0.5406  0.0594  0.1496
   10CHL1  H12A  698   2.572   1.945   9.363 -0.0032  0.1887 -0.4547
   10CHL1  H12B  699   2.574   1.762   9.426  0.4052  0.5882  3.7194
   10CHL1   C11  700   2.693   1.899   9.529  0.9399  0.3077 -1.4604
   10CHL1  H11A  701   2.737   2.001   9.524  1.1961  0.3724  0.9801
   10CHL1  H11B  702   2.610   1.921   9.600  1.6101 -0.8404 -0.2879
   10CHL1    C9  703   2.797   1.799   9.591 -0.0916  0.3646 -0.3577
   10CHL1    H9  704   2.749   1.699   9.595  0.9236 -0.1096  0.4918
   10CHL1   C10  705   2.848   1.832   9.733  0.1684  0.4705  0.1878
   10CHL1   C19  706   2.868   1.982   9.747 -0.0740  0.1974 -0.0170
   10CHL1  H19A  707   2.891   2.006   9.853  0.6437 -1.0455  0.1306
   10CHL1  H19B  708   2.948   2.024   9.683  1.7242 -0.0448  1.9900
   10CHL1  H19C  709   2.772   2.034   9.724  0.1159  1.2613  1.5113
   10CHL1    C1  710   2.732   1.797   9.827 -0.7112  0.4831 -0.0452
   10CHL1   H1A  711   2.647   1.865   9.801 -1.0644 -0.2581 -0.8912
   10CHL1   H1B  712   2.701   1.693   9.801  0.4928  0.5573 -1.9799
   10CHL1    C2  713   2.763   1.797   9.981 -0.4280 -0.1461  0.5336
   10CHL1   H2A  714   2.671   1.757  10.030 -1.1142  0.3531 -0.3275
   10CHL1   H2B  715   2.780   1.896  10.028  0.9552 -1.7059  3.6418
   10CHL1   C20  716   2.617   1.832   9.064 -0.2317  0.3896 -0.0506
   10CHL1   H20  717   2.689   1.909   9.030 -0.0605 -0.2493 -1.1932
   10CHL1   C21  718   2.488   1.884   9.111  0.2597  0.6476  0.5202
   10CHL1  H21A  719   2.432   1.813   9.177  1.9779 -1.5089 -0.2279
   10CHL1  H21B  720   2.423   1.921   9.029 -3.2066 -1.1159  2.2471
   10CHL1  H21C  721   2.508   1.972   9.176 -0.3348 -0.4220  2.2326
   10CHL1   C22  722   2.596   1.751   8.935 -0.2694 -0.3598  0.2784
   10CHL1  H22A  723   2.677   1.676   8.923 -1.0596 -1.4805  1.5922
   10CHL1  H22B  724   2.507   1.685   8.945  1.1380 -2.5731 -0.8628
   10CHL1   C23  725   2.577   1.834   8.811 -0.4811  0.4066  0.0142
   10CHL1  H23A  726   2.638   1.926   8.823 -0.6951  0.5404  0.0910
   10CHL1  H23B  727   2.621   1.772   8.731  1.5672  0.6530  0.8801
   10CHL1   C24  728   2.437   1.880   8.764  0.6276  0.3202  0.1687
   10CHL1  H24A  729   2.355   1.807   8.780 -0.6030  1.6104 -0.0394
   10CHL1  H24B  730   2.413   1.970   8.824 -1.6123  0.5320 -0.9442
   10CHL1   C25  731   2.418   1.931   8.615  0.2492  0.1978 -0.1599
   10CHL1   H25  732   2.454   1.853   8.544 -0.0485 -1.3323  1.2778
   10CHL1   C26  733   2.267   1.935   8.587 -0.2840  0.1586 -0.0837
   10CHL1  H26A  734   2.221   2.025   8.634 -0.0713 -0.1521  0.7559
   10CHL1  H26B  735   2.231   1.942   8.482  0.6384  1.0982 -0.3556
   10CHL1  H26C  736   2.202   1.866   8.645  1.2907 -0.5224  0.9612
   10CHL1   C27  737   2.486   2.067   8.582 -0.1039  0.5692 -0.1059
   10CHL1  H27A  738   2.458   2.096   8.479  2.3877  0.8817 -0.7440
   10CHL1  H27B  739   2.443   2.145   8.650  0.1920  1.3048 -0.7414
   10CHL1  H27C  740   2.595   2.055   8.594 -0.3787 -1.2811  0.8427
   11CHL1    C3  741   0.108   1.979  10.078 -0.1131  0.6740 -0.3842
   11CHL1    H3  742   0.006   1.974  10.121  0.0043  0.8207 -0.0785
   11CHL1    O3  743   0.197   1.938  10.181 -0.0264  0.2523 -0.3486
   11CHL1   H3'  744   0.274   1.911  10.131 -1.1341 -2.0232 -0.9180
   11CHL1    C4  745   0.115   1.872   9.958  0.7196 -0.0420 -0.1211
   11CHL1   H4A  746   0.223   1.853   9.938  0.5948 -1.4325  0.4279
   11CHL1   H4B  747   0.072   1.776   9.994 -0.7245  1.3983  2.2315
   11CHL1    C5  748   0.039   1.921   9.840  0.1499 -0.2597 -0.5097
   11CHL1    C6  749  -0.054   1.840   9.782  0.0072  0.5309 -0.4265
   11CHL1    H6  750  -0.075   1.736   9.809 -0.1063  0.7211  0.2505
   11CHL1    C7  751  -0.127   1.897   9.663  0.1333 -0.5420 -0.7134
   11CHL1   H7A  752  -0.147   1.812   9.595 -0.4819 -0.8494 -0.1505
   11CHL1   H7B  753  -0.228   1.927   9.697 -0.1018  0.1738 -1.9554
   11CHL1    C8  754  -0.058   2.007   9.573 -0.0165 -0.7160  0.2006
   11CHL1    H8  755   0.036   1.968   9.528 -0.5786  1.1402 -2.9026
   11CHL1   C14  756  -0.140   2.067   9.462 -0.0836 -0.0734 -0.4756
   11CHL1   H14  757  -0.220   2.116   9.522  1.6808  0.6427  1.3768
   11CHL1   C15  758  -0.213   1.982   9.359  0.6886  0.4116 -0.0442
   11CHL1  H15A  759  -0.144   1.904   9.320 -0.0199 -0.9306  1.2709
   11CHL1  H15B  760  -0.302   1.931   9.401  0.6936  1.1863  0.9549
   11CHL1   C16  761  -0.246   2.073   9.254 -0.3360  0.7831  0.6667
   11CHL1  H16A  762  -0.194   2.031   9.165 -1.9767  0.6222 -0.2526
   11CHL1  H16B  763  -0.352   2.080   9.224 -0.4906 -1.4060  0.5557
   11CHL1   C17  764  -0.189   2.212   9.291  0.0056  0.1632 -0.2584
   11CHL1   H17  765  -0.268   2.261   9.352 -0.7519 -0.8012 -0.4298
   11CHL1   C13  766  -0.075   2.185   9.389  0.1583 -0.4416  0.4743
   11CHL1   C18  767   0.044   2.139   9.300  0.0152  0.2102 -0.1600
   11CHL1  H18A  768   0.087   2.224   9.242  0.4634  0.7673  0.9523
   11CHL1  H18B  769   0.119   2.096   9.369  2.4931  0.7507 -2.3634
   11CHL1  H18C  770   0.014   2.054   9.235 -2.3949  0.6483  0.2813
   11CHL1   C12  771  -0.039   2.306   9.487  0.0554 -0.1654 -0.2325
   11CHL1  H12A  772   0.006   2.386   9.424 -1.8434 -0.2484 -1.8186
   11CHL1  H12B  773  -0.132   2.339   9.537  0.1904 -0.0791 -0.0357
   11CHL1   C11  774   0.047   2.255   9.604 -0.4147 -0.1957  0.1164
   11CHL1  H11A  775   0.143   2.235   9.552 -1.7333 -1.7494 -1.9153
   11CHL1  H11B  776   0.053   2.340   9.676  0.7430 -0.1935  0.0360
   11CHL1    C9  777  -0.013   2.127   9.667 -0.2962  0.3201  0.6942
   11CHL1    H9  778  -0.104   2.153   9.724 -0.9934 -1.6705  0.5681
   11CHL1   C10  779   0.072   2.069   9.786  0.0251 -0.2127  0.3954
   11CHL1   C19  780   0.218   2.071   9.732 -0.5877  0.6474  0.1809
   11CHL1  H19A  781   0.228   2.020   9.634  0.8673 -1.7823  1.5018
   11CHL1  H19B  782   0.263   2.172   9.721  0.0349  0.3208 -0.3693
   11CHL1  H19C  783   0.291   2.020   9.799 -1.0403  0.5988  0.6400
   11CHL1    C1  784   0.076   2.174   9.911  0.0148  1.1644 -0.4729
   11CHL1   H1A  785   0.110   2.272   9.872 -0.4115  0.9400 -1.4436
   11CHL1   H1B  786  -0.027   2.201   9.940  0.2815  2.7675 -0.9373
   11CHL1    C2  787   0.153   2.113  10.032 -1.0649  0.3212 -0.5885
   11CHL1   H2A  788   0.123   2.184  10.111  2.9175  1.7166 -0.0725
   11CHL1   H2B  789   0.264   2.107  10.022 -1.0834 -1.2363 -0.1724
   11CHL1   C20  790  -0.176   2.317   9.179  0.4083  0.0978  0.3309
   11CHL1   H20  791  -0.112   2.399   9.217 -3.6570  2.6906  2.2394
   11CHL1   C21  792  -0.317   2.367   9.144 -0.0934 -0.3967 -0.0563
   11CHL1  H21A  793  -0.352   2.421   9.235  1.2491  1.1929 -0.4515
   11CHL1  H21B  794  -0.380   2.278   9.119  0.8964 -0.9078 -0.7858
   11CHL1  H21C  795  -0.332   2.437   9.060 -1.9530  2.7214  2.6097
   11CHL1   C22  796  -0.106   2.268   9.048  0.1353 -0.3922  0.2599
   11CHL1  H22A  797  -0.013   2.217   9.084 -0.5815  0.4506  3.6986
   11CHL1  H22B  798  -0.180   2.196   9.008  0.0104 -0.2522  0.2390
   11CHL1   C23  799  -0.078   2.383   8.949  0.0404 -0.7622  0.5534
   11CHL1  H23A  800  -0.174   2.432   8.924  0.3478  0.1618  1.1196
   11CHL1  H23B  801  -0.003   2.448   9.000  0.4996 -1.1348  0.3588
   11CHL1   C24  802  -0.015   2.343   8.810 -0.6613  0.6195 -1.3991
   11CHL1  H24A  803   0.082   2.292   8.831 -1.2786 -0.4021 -0.9538
   11CHL1  H24B  804  -0.081   2.259   8.778 -0.6294 -0.4919  1.2433
   11CHL1   C25  805  -0.017   2.455   8.707 -0.9183 -0.1800 -0.2070
   11CHL1   H25  806  -0.123   2.485   8.696 -0.3285  2.6571  1.0180
   11CHL1   C26  807   0.077   2.573   8.752  0.1321 -0.4750 -0.1841
   11CHL1  H26A  808   0.058   2.662   8.688  0.0715 -0.5092 -0.2142
   11CHL1  H26B  809   0.066   2.599   8.859 -0.0659 -1.1351 -0.0377
   11CHL1  H26C  810   0.182   2.540   8.737  0.8722  2.0300 -1.0678
   11CHL1   C27  811   0.041   2.405   8.570  0.2109 -0.1225 -0.0482
   11CHL1  H27A  812   0.148   2.377   8.579 -0.1488 -1.3741  0.5325
   11CHL1  H27B  813  -0.019   2.332   8.512  0.1543  0.9357 -1.3758
   11CHL1  H27C  814   0.031   2.492   8.502 -0.6188  1.4793  2.0320
   12CHL1    C3  815   6.543   5.627  10.500 -0.1147 -0.1128 -0.2028
   12CHL1    H3  816   6.523   5.735  10.480  0.7167  0.2060  0.6076
   12CHL1    O3  817   6.545   5.604  10.639  0.3772  0.3467 -0.4348
   12CHL1   H3'  818   6.628   5.560  10.660  0.1948  0.5779  0.9059
   12CHL1    C4  819   6.424   5.554  10.432 -0.7798  0.8689 -0.4081
   12CHL1   H4A  820   6.425   5.445  10.456 -0.1230 -0.0022 -3.9436
   12CHL1   H4B  821   6.340   5.611  10.479 -0.3593  2.3563 -1.4031
   12CHL1    C5  822   6.424   5.561  10.279  0.1860  0.4792 -0.1566
   12CHL1    C6  823   6.321   5.607  10.211 -0.0118  0.2106 -0.0483
   12CHL1    H6  824   6.233   5.643  10.265  0.0915  0.2278  0.1101
   12CHL1    C7  825   6.326   5.601  10.063 -0.0240 -0.5843  0.5579
   12CHL1   H7A  826   6.230   5.580  10.011 -0.6182  0.6761  1.0917
   12CHL1   H7B  827   6.341   5.707  10.030  1.5573 -0.5399  1.3053
   12CHL1    C8  828   6.445   5.527   9.993 -0.0720  0.7077 -0.2518
   12CHL1    H8  829   6.411   5.422  10.004  0.4948  0.4195 -1.1386
   12CHL1   C14  830   6.462   5.559   9.846  0.6364 -0.4857  1.0645
   12CHL1   H14  831   6.497   5.664   9.854  0.5268 -0.1835 -1.6414
   12CHL1   C15  832   6.336   5.567   9.748 -0.1915 -0.2018 -0.2403
   12CHL1  H15A  833   6.249   5.501   9.770 -0.6648  0.3654 -0.3899
   12CHL1  H15B  834   6.302   5.672   9.737  1.9599  0.4894 -0.8134
   12CHL1   C16  835   6.395   5.543   9.606  0.0811  1.0057  0.2091
   12CHL1  H16A  836   6.353   5.447   9.568  1.2485  0.2201  0.8598
   12CHL1  H16B  837   6.369   5.620   9.531 -1.1477 -0.7225 -1.2289
   12CHL1   C17  838   6.544   5.517   9.627  0.4822 -0.0126  1.3765
   12CHL1   H17  839   6.596   5.616   9.621  0.8196 -0.2803 -1.6249
   12CHL1   C13  840   6.565   5.468   9.774  0.6448 -0.3416 -0.7680
   12CHL1   C18  841   6.523   5.317   9.784 -0.8600 -0.3700  0.6822
   12CHL1  H18A  842   6.598   5.264   9.722  1.6125  2.2884  1.1693
   12CHL1  H18B  843   6.525   5.260   9.880  3.1367 -1.4328  0.1327
   12CHL1  H18C  844   6.427   5.297   9.731  1.0692 -1.7100 -2.5898
   12CHL1   C12  845   6.705   5.489   9.840  0.9842  0.5150  0.1326
   12CHL1  H12A  846   6.787   5.421   9.809  0.4542 -0.3706  0.6448
   12CHL1  H12B  847   6.738   5.591   9.810 -1.5183  0.8030 -1.9433
   12CHL1   C11  848   6.698   5.475   9.995  0.0684 -0.6064  0.5163
   12CHL1  H11A  849   6.701   5.365  10.012  1.1392 -0.9674 -1.7350
   12CHL1  H11B  850   6.793   5.509  10.042 -0.6579  1.7319  0.3885
   12CHL1    C9  851   6.579   5.544  10.065 -0.0784  0.1224 -0.1417
   12CHL1    H9  852   6.594   5.654  10.062  2.3471  0.0117  2.8149
   12CHL1   C10  853   6.560   5.516  10.218 -0.1063 -0.4137  0.2830
   12CHL1   C19  854   6.580   5.360  10.242 -0.3523  0.2912  0.0126
   12CHL1  H19A  855   6.568   5.335  10.350  1.5991  0.3889  0.2864
   12CHL1  H19B  856   6.511   5.291  10.189  1.9859 -1.8501 -0.3970
   12CHL1  H19C  857   6.681   5.327  10.211 -0.6824  0.1931 -0.9726
   12CHL1    C1  858   6.678   5.587  10.293 -0.2144  0.9315 -0.7379
   12CHL1   H1A  859   6.778   5.556  10.257 -0.3853 -3.4989  1.8798
   12CHL1   H1B  860   6.681   5.698  10.280  0.2098  0.8407 -1.4626
   12CHL1    C2  861   6.674   5.562  10.452  0.0245  0.4234 -0.0204
   12CHL1   H2A  862   6.772   5.603  10.486  1.0031 -2.5860  1.1097
   12CHL1   H2B  863   6.691   5.459  10.490 -0.4829  1.6267  3.9091
   12CHL1   C20  864   6.600   5.441   9.510 -0.2871  0.0805 -0.2044
   12CHL1   H20  865   6.565   5.336   9.521 -1.0721  0.4575  1.1048
   12CHL1   C21  866   6.755   5.442   9.518 -0.3101  0.3191 -0.2624
   12CHL1  H21A  867   6.797   5.428   9.417  1.7385  0.7218  0.4881
   12CHL1  H21B  868   6.791   5.362   9.586  0.1809 -0.1141 -1.0212
   12CHL1  H21C  869   6.791   5.545   9.541  0.5350  0.2146 -1.0692
   12CHL1   C22  870   6.544   5.487   9.369  0.1540  1.0666  0.2927
   12CHL1  H22A  871   6.438   5.455   9.373 -0.0556  1.6109  5.3389
   12CHL1  H22B  872   6.534   5.598   9.375  0.3854  1.0588  0.9134
   12CHL1   C23  873   6.624   5.460   9.242  0.2637  0.9797 -0.1665
   12CHL1  H23A  874   6.717   5.518   9.260  1.3344 -1.1262  1.5846
   12CHL1  H23B  875   6.646   5.351   9.246 -0.9308  0.7514  0.8591
   12CHL1   C24  876   6.546   5.479   9.109  0.0065  0.2604 -0.1209
   12CHL1  H24A  877   6.473   5.396   9.105  2.2512 -1.7858 -0.4118
   12CHL1  H24B  878   6.493   5.577   9.113 -2.1468 -0.7318 -2.0161
   12CHL1   C25  879   6.638   5.461   8.984 -0.5312  0.3521  0.0232
   12CHL1   H25  880   6.656   5.352   8.967  2.7366  0.7485  0.4375
   12CHL1   C26  881   6.575   5.510   8.856 -0.2707 -0.3416 -0.8852
   12CHL1  H26A  882   6.643   5.482   8.772  0.7628 -1.2489  0.2165
   12CHL1  H26B  883   6.478   5.458   8.840  0.0345 -0.7648 -1.3841
   12CHL1  H26C  884   6.556   5.619   8.863 -0.9983 -0.4800 -0.6489
   12CHL1   C27  885   6.773   5.525   8.996  0.7420  0.2470 -0.5495
   12CHL1  H27A  886   6.817   5.477   9.086 -2.2970  2.7859  2.5306
   12CHL1  H27B  887   6.825   5.522   8.897  1.2176 -0.8173 -0.2830
   12CHL1  H27C  888   6.758   5.630   9.027 -0.9744 -0.6247  1.8507
   13CHL1    C3  889   2.628   1.227   9.992  0.3937  0.0842 -0.1840
   13CHL1    H3  890   2.738   1.222   9.984  0.2351 -0.9677 -2.4480
   13CHL1    O3  891   2.586   1.255  10.131  0.0792 -0.0861  0.6266
   13CHL1   H3'  892   2.556   1.346  10.125  0.0698 -0.1502 -0.6122
   13CHL1    C4  893   2.590   1.344   9.895  0.0887  0.5381  0.0185
   13CHL1   H4A  894   2.489   1.389   9.910  0.3044  1.1687 -0.3695
   13CHL1   H4B  895   2.655   1.430   9.922 -1.3515  2.4223 -2.0984
   13CHL1    C5  896   2.608   1.317   9.751  0.5411  0.3252  0.3800
   13CHL1    C6  897   2.682   1.393   9.672 -0.2836 -0.6130 -0.0496
   13CHL1    H6  898   2.722   1.481   9.724 -1.2922 -1.5170  2.4007
   13CHL1    C7  899   2.679   1.388   9.526 -0.3376 -0.3924  0.7244
   13CHL1   H7A  900   2.650   1.488   9.486  1.1409 -0.2571 -0.0916
   13CHL1   H7B  901   2.780   1.366   9.487 -1.2363 -0.2662 -1.8835
   13CHL1    C8  902   2.578   1.289   9.465 -0.1205  0.4270  0.1104
   13CHL1    H8  903   2.475   1.329   9.476 -0.7837 -1.6313  2.0825
   13CHL1   C14  904   2.623   1.257   9.325  0.8401 -0.2819  0.1052
   13CHL1   H14  905   2.724   1.212   9.332  1.3043  0.5394 -0.9737
   13CHL1   C15  906   2.637   1.370   9.225 -0.1386  0.4213  0.0469
   13CHL1  H15A  907   2.565   1.454   9.228 -0.3797  0.2267 -0.2112
   13CHL1  H15B  908   2.735   1.420   9.240 -0.2357  0.4483  0.6431
   13CHL1   C16  909   2.629   1.301   9.090 -0.4193  0.0822  0.3888
   13CHL1  H16A  910   2.539   1.336   9.035 -0.5354 -0.7537  0.0251
   13CHL1  H16B  911   2.723   1.320   9.035  1.2904  0.0943  3.0979
   13CHL1   C17  912   2.603   1.149   9.113  0.0006  0.0685  0.4345
   13CHL1   H17  913   2.710   1.116   9.115  0.1944  0.6557 -0.0078
   13CHL1   C13  914   2.544   1.146   9.257 -0.0160 -0.0159  1.0503
   13CHL1   C18  915   2.393   1.188   9.246 -0.0708  0.0958  0.3215
   13CHL1  H18A  916   2.327   1.103   9.217 -0.6067  0.5648  0.1418
   13CHL1  H18B  917   2.366   1.233   9.344  0.4250  0.1292  0.4464
   13CHL1  H18C  918   2.381   1.269   9.172 -1.9374 -0.0615  0.3986
   13CHL1   C12  919   2.560   1.013   9.334  0.7513  0.4272  0.1236
   13CHL1  H12A  920   2.518   0.923   9.285  2.3876  0.1471 -0.8654
   13CHL1  H12B  921   2.671   1.001   9.339  0.7561  0.6602  0.6618
   13CHL1   C11  922   2.512   1.028   9.479 -0.3369  0.2495  0.2639
   13CHL1  H11A  923   2.401   1.034   9.490 -0.2956  0.7990  0.4058
   13CHL1  H11B  924   2.530   0.931   9.531 -1.7222 -0.2896 -0.2041
   13CHL1    C9  925   2.573   1.152   9.553 -0.2910  0.3615  0.2438
   13CHL1    H9  926   2.681   1.128   9.560 -0.7463 -1.2676  3.1625
   13CHL1   C10  927   2.538   1.185   9.699  0.2560 -0.5062 -0.2378
   13CHL1   C19  928   2.386   1.210   9.715 -0.2335 -0.3956 -0.1427
   13CHL1  H19A  929   2.355   1.219   9.821 -1.7596  1.3299 -0.6810
   13CHL1  H19B  930   2.341   1.298   9.665 -0.8264  0.2159  1.4013
   13CHL1  H19C  931   2.338   1.116   9.683 -1.2776 -0.1559  0.6884
   13CHL1    C1  932   2.583   1.069   9.800 -0.7355 -0.2866 -1.4114
   13CHL1   H1A  933   2.515   0.982   9.796 -1.3378  0.0925 -0.0223
   13CHL1   H1B  934   2.688   1.038   9.782 -0.9265 -1.1758 -1.0387
   13CHL1    C2  935   2.571   1.098   9.951  0.0852  1.2884  0.1064
   13CHL1   H2A  936   2.613   1.013  10.009 -1.6450  0.9232  0.9019
   13CHL1   H2B  937   2.465   1.116   9.980  0.2297 -0.3443  1.8142
   13CHL1   C20  938   2.531   1.082   8.991  0.0864 -0.0960  0.7656
   13CHL1   H20  939   2.438   1.131   8.956  0.0481  0.3481  1.4676
   13CHL1   C21  940   2.516   0.936   9.026  0.3259  0.4994 -0.7600
   13CHL1  H21A  941   2.598   0.910   9.096 -1.0643 -1.2791  0.3162
   13CHL1  H21B  942   2.513   0.872   8.936  0.8674 -0.0767 -0.3737
   13CHL1  H21C  943   2.416   0.938   9.075  0.6599  1.8455 -0.0989
   13CHL1   C22  944   2.624   1.087   8.860 -0.0796  0.5853 -0.0057
   13CHL1  H22A  945   2.642   1.195   8.841 -3.5688  1.1527 -0.8823
   13CHL1  H22B  946   2.717   1.027   8.870 -0.5524 -0.6856 -2.5070
   13CHL1   C23  947   2.553   1.037   8.735  0.0823 -0.3456 -0.3811
   13CHL1  H23A  948   2.541   0.926   8.732  2.5655 -0.6450 -0.8796
   13CHL1  H23B  949   2.453   1.084   8.722 -0.1767 -0.8369 -0.2008
   13CHL1   C24  950   2.638   1.064   8.615 -0.5389 -0.1222 -0.6557
   13CHL1  H24A  951   2.670   1.170   8.619  1.2217 -0.6346 -0.3652
   13CHL1  H24B  952   2.735   1.011   8.626 -0.6345 -0.3248 -0.7789
   13CHL1   C25  953   2.580   1.018   8.481  0.3538 -0.2804  0.9395
   13CHL1   H25  954   2.652   1.043   8.401 -0.5163  0.9450  0.5055
   13CHL1   C26  955   2.567   0.867   8.467  0.4696  0.5223 -0.2389
   13CHL1  H26A  956   2.493   0.825   8.538 -0.7677 -0.7383 -2.1917
   13CHL1  H26B  957   2.535   0.839   8.365 -0.5447 -0.2360  0.2742
   13CHL1  H26C  958   2.665   0.820   8.490  0.0262 -1.1697 -1.5838
   13CHL1   C27  959   2.445   1.095   8.449  0.6444  0.6071  0.2389
   13CHL1  H27A  960   2.464   1.203   8.461 -1.3078  0.8499  1.7160
   13CHL1  H27B  961   2.414   1.067   8.346 -0.1366  0.3203  0.5375
   13CHL1  H27C  962   2.363   1.064   8.518  1.0933  0.0562  0.5412
   14CHL1    C3  963   2.073   4.031  10.357 -0.6886 -0.0957 -0.0676
   14CHL1    H3  964   2.090   4.138  10.331  2.1223 -0.4845 -0.1751
   14CHL1    O3  965   2.126   4.018  10.489  0.7670  0.4118  0.3484
   14CHL1   H3'  966   2.121   3.926  10.513  1.0183  0.2976 -0.0239
   14CHL1    C4  967   1.927   3.990  10.342 -0.1756  0.2525  0.5538
   14CHL1   H4A  968   1.907   3.882  10.361 -1.2527  0.0404 -1.5170
   14CHL1   H4B  969   1.874   4.047  10.422  0.9992  1.8422  0.2396
   14CHL1    C5  970   1.878   4.027  10.205 -0.0055 -0.3831  0.2515
   14CHL1    C6  971   1.784   4.115  10.188  0.3165 -0.1794  1.0214
   14CHL1    H6  972   1.744   4.182  10.266  0.7985  3.5945 -1.6844
   14CHL1    C7  973   1.737   4.154  10.050  0.2460 -0.1810 -0.2535
   14CHL1   H7A  974   1.628   4.175  10.055  0.5226  1.0736  1.2680
   14CHL1   H7B  975   1.774   4.247  10.003  0.9058 -0.5454 -0.4671
   14CHL1    C8  976   1.762   4.031   9.950 -0.1775  0.1270 -0.2057
   14CHL1    H8  977   1.716   3.941   9.997 -0.7801  1.4131  1.7955
   14CHL1   C14  978   1.701   4.054   9.804 -0.3536 -0.5859  0.0735
   14CHL1   H14  979   1.742   4.152   9.773 -0.0761 -0.7261 -0.0135
   14CHL1   C15  980   1.556   4.053   9.793 -0.8279 -0.0263  0.3998
   14CHL1  H15A  981   1.516   3.967   9.852 -0.3937  0.1515  0.9671
   14CHL1  H15B  982   1.520   4.153   9.826  0.7798  0.9432 -0.6252
   14CHL1   C16  983   1.537   4.033   9.641 -0.5220  0.3755 -0.2391
   14CHL1  H16A  984   1.469   3.947   9.628 -1.1535  0.9966 -1.1706
   14CHL1  H16B  985   1.483   4.120   9.598  1.2644  1.5511 -0.2510
   14CHL1   C17  986   1.679   4.014   9.577 -0.2039  0.4635  0.3465
   14CHL1   H17  987   1.726   4.113   9.560 -3.2252  2.1668  1.1097
   14CHL1   C13  988   1.756   3.957   9.697 -0.0997 -0.2200 -0.1549
   14CHL1   C18  989   1.712   3.812   9.724 -0.2015 -0.3463 -0.4438
   14CHL1  H18A  990   1.756   3.758   9.638  1.9994  1.9405 -0.8537
   14CHL1  H18B  991   1.732   3.769   9.825  2.8428  0.2748 -0.6931
   14CHL1  H18C  992   1.601   3.809   9.717 -0.3042  1.3311  0.0403
   14CHL1   C12  993   1.912   3.962   9.693  0.3374 -0.5965 -0.7049
   14CHL1  H12A  994   1.956   3.876   9.637  0.0856 -0.6614 -0.8049
   14CHL1  H12B  995   1.951   4.055   9.647 -0.1119 -1.8310 -3.7825
   14CHL1   C11  996   1.974   3.926   9.831 -0.9830 -0.6987 -0.3442
   14CHL1  H11A  997   1.949   3.819   9.847  1.1963 -0.9561  1.9772
   14CHL1  H11B  998   2.085   3.925   9.825 -1.0116 -0.5492 -0.9955
   14CHL1    C9  999   1.920   4.015   9.950  0.0124 -0.1806 -0.1659
   14CHL1    H9 1000   1.957   4.119   9.946  0.1446 -0.1156  1.7555
   14CHL1   C10 1001   1.955   3.960  10.087  0.3686 -0.1286  0.4390
   14CHL1   C19 1002   1.926   3.805  10.097 -0.3613  0.2353  0.2889
   14CHL1  H19A 1003   1.990   3.740  10.033  0.5166  0.7179  0.6615
   14CHL1  H19B 1004   1.953   3.757  10.193  2.5941 -4.7763 -2.5809
   14CHL1  H19C 1005   1.820   3.793  10.065 -0.7130  0.4954  1.3177
   14CHL1    C1 1006   2.108   3.985  10.107 -0.4032 -0.0372  0.3330
   14CHL1   H1A 1007   2.143   3.910  10.034  0.5923  0.8935 -0.1676
   14CHL1   H1B 1008   2.131   4.081  10.055 -0.7561  0.2824  0.7597
   14CHL1    C2 1009   2.163   3.961  10.254  0.1908  0.4221  0.2435
   14CHL1   H2A 1010   2.267   4.001  10.258  0.1323  0.4929  2.0923
   14CHL1   H2B 1011   2.169   3.856  10.287 -0.0482 -0.1534 -1.4348
   14CHL1   C20 1012   1.678   3.932   9.446 -0.1782  0.2586  0.2446
   14CHL1   H20 1013   1.631   3.833   9.466 -0.6361  0.4313  0.0364
   14CHL1   C21 1014   1.823   3.917   9.395  0.6249 -0.0684  0.1926
   14CHL1  H21A 1015   1.827   3.866   9.296  0.1620  2.3687 -1.1595
   14CHL1  H21B 1016   1.876   3.847   9.463 -1.2219 -1.6550  0.0554
   14CHL1  H21C 1017   1.873   4.016   9.386 -2.8600  1.7205 -1.5610
   14CHL1   C22 1018   1.594   4.004   9.339 -0.5409  0.2502 -0.2565
   14CHL1  H22A 1019   1.492   4.035   9.372  0.2124  0.6011  1.9187
   14CHL1  H22B 1020   1.638   4.106   9.330 -1.8885  0.9188  0.4684
   14CHL1   C23 1021   1.572   3.920   9.214 -0.5480 -0.1115 -0.0601
   14CHL1  H23A 1022   1.670   3.894   9.169 -0.4158 -0.0354  0.1831
   14CHL1  H23B 1023   1.523   3.823   9.237 -1.7145  0.3660 -0.4523
   14CHL1   C24 1024   1.479   3.999   9.119  0.9119  0.5175  0.5090
   14CHL1  H24A 1025   1.384   4.023   9.172  0.2573 -2.2803  0.7646
   14CHL1  H24B 1026   1.527   4.094   9.086  1.3901  0.4258  0.9335
   14CHL1   C25 1027   1.461   3.914   8.981  0.0122 -0.2804 -0.7099
   14CHL1   H25 1028   1.415   3.815   8.999  1.1823 -0.9439 -1.3200
   14CHL1   C26 1029   1.362   3.982   8.883  0.3363 -0.5981 -0.0921
   14CHL1  H26A 1030   1.354   3.906   8.803 -0.5739 -2.1096  1.3753
   14CHL1  H26B 1031   1.267   4.011   8.933  0.6705  4.8271 -1.8948
   14CHL1  H26C 1032   1.412   4.077   8.852 -0.5109  0.3880  1.4254
   14CHL1   C27 1033   1.586   3.915   8.899  0.2565  0.3907 -0.1199
   14CHL1  H27A 1034   1.572   3.855   8.806 -0.6209 -1.2551  1.0132
   14CHL1  H27B 1035   1.621   4.015   8.866  0.1577  0.6548  0.5641
   14CHL1  H27C 1036   1.671   3.864   8.948  1.3176  1.4384 -0.8346
   15CHL1    C3 1037   2.203   1.700   9.955  0.6259  0.0815 -0.0958
   15CHL1    H3 1038   2.095   1.719   9.972 -0.6929 -4.1140 -2.3567
   15CHL1    O3 1039   2.272   1.681  10.077 -0.7361  0.1132  0.3454
   15CHL1   H3' 1040   2.261   1.767  10.119 -1.2298  0.1170  0.2139
   15CHL1    C4 1041   2.218   1.560   9.877 -0.2557  0.1555  0.1394
   15CHL1   H4A 1042   2.325   1.531   9.887 -0.8293 -1.6268  1.7741
   15CHL1   H4B 1043   2.153   1.487   9.930 -3.0253 -0.6101 -3.8799
   15CHL1    C5 1044   2.169   1.578   9.737  0.0820  0.2612  0.3464
   15CHL1    C6 1045   2.070   1.493   9.689  1.0113 -0.1662 -0.0976
   15CHL1    H6 1046   2.019   1.413   9.744  0.7620  0.1507  0.1330
   15CHL1    C7 1047   2.019   1.498   9.549  0.0499  0.2050 -0.0952
   15CHL1   H7A 1048   2.008   1.395   9.508 -2.6370  0.7245 -0.8650
   15CHL1   H7B 1049   1.920   1.548   9.545  0.1984  0.4835 -0.3642
   15CHL1    C8 1050   2.108   1.576   9.448  0.2078  0.2407  0.6547
   15CHL1    H8 1051   2.188   1.516   9.400 -1.0223 -0.6022 -0.4222
   15CHL1   C14 1052   2.026   1.618   9.327  0.3347 -0.0587 -0.1999
   15CHL1   H14 1053   1.935   1.670   9.364 -0.0202 -1.3157  0.8085
   15CHL1   C15 1054   1.965   1.499   9.247  0.5470  0.3920  0.9720
   15CHL1  H15A 1055   2.039   1.418   9.234  0.0732 -0.0545  1.0386
   15CHL1  H15B 1056   1.875   1.447   9.287  0.0866  0.7256  0.3912
   15CHL1   C16 1057   1.922   1.561   9.111  0.4633  0.5158 -0.8396
   15CHL1  H16A 1058   1.964   1.505   9.025  0.0024 -2.3338  0.6620
   15CHL1  H16B 1059   1.813   1.562   9.090  0.5874 -1.3784 -1.7302
   15CHL1   C17 1060   1.984   1.706   9.106  0.1615  1.0145  0.2105
   15CHL1   H17 1061   1.904   1.773   9.143 -1.3551 -0.4664 -0.2380
   15CHL1   C13 1062   2.095   1.694   9.211 -0.0676  0.8963  0.0842
   15CHL1   C18 1063   2.213   1.630   9.143 -0.2544  0.2517  0.2989
   15CHL1  H18A 1064   2.177   1.535   9.098  1.8652 -0.9922  1.1011
   15CHL1  H18B 1065   2.257   1.692   9.062 -1.1656 -1.6913 -1.7939
   15CHL1  H18C 1066   2.292   1.618   9.220 -1.0668  1.7934  1.4048
   15CHL1   C12 1067   2.132   1.833   9.285  1.2193 -0.1114 -0.0284
   15CHL1  H12A 1068   2.196   1.904   9.229  1.3581 -0.0396  0.2205
   15CHL1  H12B 1069   2.036   1.872   9.325  1.2666 -1.7029  1.8342
   15CHL1   C11 1070   2.222   1.807   9.409 -0.3760  0.3212 -1.0011
   15CHL1  H11A 1071   2.312   1.756   9.366  0.6579  1.3781 -0.1647
   15CHL1  H11B 1072   2.253   1.902   9.458 -1.6472  0.0651  0.3580
   15CHL1    C9 1073   2.154   1.712   9.510 -0.7600  0.2113 -0.4007
   15CHL1    H9 1074   2.063   1.768   9.541  0.4227  1.0004  1.8912
   15CHL1   C10 1075   2.232   1.691   9.642 -0.0214  0.1039  0.4710
   15CHL1   C19 1076   2.383   1.649   9.612  0.3932 -0.3295 -0.2896
   15CHL1  H19A 1077   2.443   1.605   9.695  0.4850 -3.7891 -2.0346
   15CHL1  H19B 1078   2.384   1.572   9.533 -1.2295  0.8937 -1.5780
   15CHL1  H19C 1079   2.432   1.746   9.586  0.4706  0.5545  2.7678
   15CHL1    C1 1080   2.221   1.816   9.725  0.5188 -0.3106 -0.0754
   15CHL1   H1A 1081   2.276   1.903   9.684 -0.2338 -0.1742 -0.8350
   15CHL1   H1B 1082   2.114   1.848   9.721  1.0621  1.5801 -0.5063
   15CHL1    C2 1083   2.270   1.819   9.873  0.4091 -0.5327  0.6209
   15CHL1   H2A 1084   2.257   1.915   9.927  1.0609  0.6935 -1.3050
   15CHL1   H2B 1085   2.379   1.797   9.873 -0.0658 -3.3172 -0.4929
   15CHL1   C20 1086   2.021   1.755   8.964 -0.3939  0.1710 -0.6748
   15CHL1   H20 1087   2.078   1.681   8.905 -2.7276  0.4081 -3.4293
   15CHL1   C21 1088   2.083   1.902   8.962  0.1178 -0.9813  0.0065
   15CHL1  H21A 1089   2.171   1.906   9.030 -1.6555  3.5381  2.4542
   15CHL1  H21B 1090   2.009   1.975   9.001  1.0118 -0.9644  1.7865
   15CHL1  H21C 1091   2.119   1.925   8.859  0.4585  1.4263  0.6157
   15CHL1   C22 1092   1.892   1.770   8.872 -0.7456 -0.1620  0.1296
   15CHL1  H22A 1093   1.828   1.681   8.888 -1.3482  0.0682 -0.8831
   15CHL1  H22B 1094   1.843   1.865   8.901  0.1252  0.7881 -1.3601
   15CHL1   C23 1095   1.926   1.762   8.727 -0.2603 -0.0755 -0.3726
   15CHL1  H23A 1096   1.984   1.851   8.696  0.9890 -0.5118  0.6108
   15CHL1  H23B 1097   1.979   1.665   8.711 -1.2720 -0.6355 -0.4257
   15CHL1   C24 1098   1.796   1.762   8.641 -0.5356  0.9132 -0.2371
   15CHL1  H24A 1099   1.724   1.679   8.659 -0.4247  0.5373 -1.4305
   15CHL1  H24B 1100   1.746   1.850   8.687  0.2804  1.2788 -0.0196
   15CHL1   C25 1101   1.808   1.778   8.487 -0.0337 -0.5979 -0.2257
   15CHL1   H25 1102   1.702   1.775   8.453 -0.5776 -1.3623  1.4313
   15CHL1   C26 1103   1.870   1.911   8.441  0.9450 -0.4936  0.1567
   15CHL1  H26A 1104   1.865   1.930   8.331  2.9513 -0.4007  0.0432
   15CHL1  H26B 1105   1.814   2.000   8.478  0.0803 -0.2852 -1.5443
   15CHL1  H26C 1106   1.973   1.920   8.480  1.7820  1.1107 -2.1895
   15CHL1   C27 1107   1.880   1.655   8.433 -0.2356  0.6371 -0.3680
   15CHL1  H27A 1108   1.897   1.668   8.324 -3.2882  0.6206 -0.9372
   15CHL1  H27B 1109   1.980   1.647   8.481 -0.7111  1.8708  0.8955
   15CHL1  H27C 1110   1.821   1.565   8.462  2.0875 -1.2688 -1.1889
   16CHL1    C3 1111   2.852   5.889  10.310  0.3521 -0.4141 -0.5411
   16CHL1    H3 1112   2.790   5.980  10.297  0.7024 -0.1782 -0.5977
   16CHL1    O3 1113   2.868   5.886  10.450  0.3674  0.2625 -0.3999
   16CHL1   H3' 1114   2.940   5.824  10.466 -0.9542 -1.1331  0.4010
   16CHL1    C4 1115   2.791   5.767  10.255  0.9135 -0.2220  0.0869
   16CHL1   H4A 1116   2.864   5.686  10.277 -0.4067 -0.7919  2.8405
   16CHL1   H4B 1117   2.694   5.735  10.301  0.5536 -0.0362 -0.5392
   16CHL1    C5 1118   2.786   5.764  10.102 -0.1905 -1.0693 -0.8635
   16CHL1    C6 1119   2.668   5.745  10.036  0.5722 -0.4149 -0.3382
   16CHL1    H6 1120   2.573   5.729  10.090  1.6956  0.5976  2.0771
   16CHL1    C7 1121   2.661   5.732   9.889  0.2015 -0.4277 -0.9263
   16CHL1   H7A 1122   2.599   5.645   9.858  0.5983 -0.9217 -0.3727
   16CHL1   H7B 1123   2.624   5.826   9.843  1.5334 -0.4114 -2.0573
   16CHL1    C8 1124   2.799   5.715   9.833  0.4629 -0.6916 -0.7302
   16CHL1    H8 1125   2.839   5.613   9.853 -0.5427 -1.0024 -0.2793
   16CHL1   C14 1126   2.782   5.733   9.680  0.0997  0.3112 -0.0339
   16CHL1   H14 1127   2.743   5.832   9.648  1.2233  0.6673 -0.3687
   16CHL1   C15 1128   2.691   5.627   9.609 -0.0828 -0.0663 -0.0812
   16CHL1  H15A 1129   2.711   5.534   9.666 -0.3317  0.6137  1.1351
   16CHL1  H15B 1130   2.584   5.655   9.618 -0.2788  0.1567 -2.3768
   16CHL1   C16 1131   2.735   5.623   9.468 -0.1237 -0.8669  0.0982
   16CHL1  H16A 1132   2.778   5.522   9.451 -0.4026 -1.2945  1.7605
   16CHL1  H16B 1133   2.653   5.625   9.393 -0.2627 -2.0799  0.2007
   16CHL1   C17 1134   2.859   5.729   9.457  1.4812  0.4421  0.0096
   16CHL1   H17 1135   2.812   5.828   9.438  2.8237  1.1413  0.1356
   16CHL1   C13 1136   2.912   5.728   9.604 -0.2414  1.2885  0.5762
   16CHL1   C18 1137   2.992   5.596   9.627  0.1555  0.0247 -0.0405
   16CHL1  H18A 1138   3.098   5.613   9.596  0.5386 -0.6611  0.8560
   16CHL1  H18B 1139   2.998   5.591   9.737 -3.9585 -1.1114  0.2967
   16CHL1  H18C 1140   2.948   5.503   9.587 -1.3682  0.1650  1.2454
   16CHL1   C12 1141   2.996   5.850   9.648  0.9676 -0.4775 -0.2376
   16CHL1  H12A 1142   3.090   5.856   9.588 -0.0012 -0.2629 -1.7869
   16CHL1  H12B 1143   2.943   5.946   9.628  0.9511  0.3607  3.2549
   16CHL1   C11 1144   3.028   5.845   9.798 -0.5511  0.4050  0.0606
   16CHL1  H11A 1145   3.089   5.753   9.810 -0.8402  0.4700  2.5159
   16CHL1  H11B 1146   3.069   5.942   9.833  0.8552 -0.1767  0.1119
   16CHL1    C9 1147   2.898   5.818   9.882  0.0136 -0.0901  0.4664
   16CHL1    H9 1148   2.839   5.913   9.887  1.8435  1.1678 -0.6181
   16CHL1   C10 1149   2.919   5.786  10.032 -0.3941 -0.7889  0.0910
   16CHL1   C19 1150   3.013   5.654  10.046  0.0763 -0.7938 -0.0691
   16CHL1  H19A 1151   3.114   5.695  10.028 -0.2794  0.1881  0.1126
   16CHL1  H19B 1152   3.021   5.612  10.149  0.9287 -0.8651 -0.1589
   16CHL1  H19C 1153   2.986   5.578   9.969  1.6002  1.2954 -2.8566
   16CHL1    C1 1154   2.980   5.915  10.094 -1.4041  0.1314 -0.2167
   16CHL1   H1A 1155   3.084   5.919  10.056 -1.1610  0.4116  0.4522
   16CHL1   H1B 1156   2.931   6.000  10.043 -0.5829  0.4307 -0.5223
   16CHL1    C2 1157   2.985   5.923  10.243  0.5906  0.1497  0.9691
   16CHL1   H2A 1158   3.029   6.018  10.280  2.5051 -1.2702  2.6221
   16CHL1   H2B 1159   3.053   5.846  10.286 -0.0832 -0.3858  1.0827
   16CHL1   C20 1160   2.945   5.696   9.332 -0.4659  0.7346  0.1041
   16CHL1   H20 1161   2.983   5.594   9.351 -2.1038  0.5080  2.8175
   16CHL1   C21 1162   3.059   5.791   9.319 -0.2210 -0.2899 -0.4030
   16CHL1  H21A 1163   3.033   5.895   9.346 -1.5509  0.1047 -2.8820
   16CHL1  H21B 1164   3.115   5.791   9.223 -1.1465  2.6178 -1.0167
   16CHL1  H21C 1165   3.135   5.757   9.392  0.3095 -2.3321 -1.8032
   16CHL1   C22 1166   2.873   5.687   9.191 -0.2595 -0.3181  0.2809
   16CHL1  H22A 1167   2.951   5.665   9.116  2.8345  0.4371  3.0731
   16CHL1  H22B 1168   2.791   5.611   9.195  1.1404 -2.0809 -1.8242
   16CHL1   C23 1169   2.807   5.824   9.157  0.0480  0.5551 -0.2438
   16CHL1  H23A 1170   2.735   5.852   9.236  0.5293  0.0714  0.3751
   16CHL1  H23B 1171   2.887   5.899   9.142  1.0928 -0.1363  1.6248
   16CHL1   C24 1172   2.723   5.812   9.033 -0.4233  0.4237  0.1770
   16CHL1  H24A 1173   2.766   5.760   8.945 -0.0189  0.9887  0.0354
   16CHL1  H24B 1174   2.627   5.756   9.044 -0.1141 -0.7919 -2.4735
   16CHL1   C25 1175   2.682   5.949   8.978  0.2240  0.5272  0.2349
   16CHL1   H25 1176   2.634   6.014   9.055  1.0793  1.5646 -0.0846
   16CHL1   C26 1177   2.804   6.014   8.911 -0.3343 -0.8454  0.2923
   16CHL1  H26A 1178   2.816   5.966   8.812  0.0316 -2.2917  1.0010
   16CHL1  H26B 1179   2.781   6.121   8.893 -0.1975 -0.4185  2.3704
   16CHL1  H26C 1180   2.895   6.008   8.974  0.1335  2.4055  0.1101
   16CHL1   C27 1181   2.576   5.919   8.868 -0.0838 -0.7314 -0.1879
   16CHL1  H27A 1182   2.543   6.021   8.839  2.1998  0.5276  1.2853
   16CHL1  H27B 1183   2.617   5.875   8.775 -0.7325  0.2413 -0.9670
   16CHL1  H27C 1184   2.490   5.856   8.898 -1.3955  1.9479  2.2427
   17CHL1    C3 1185   4.348   6.250  10.025  0.4979 -0.1936  0.3654
   17CHL1    H3 1186   4.267   6.175  10.036  1.0292 -0.9899 -0.9477
   17CHL1    O3 1187   4.376   6.293  10.160  0.2104  0.6278  0.0321
   17CHL1   H3' 1188   4.290   6.331  10.179  0.1798  1.4502 -1.6039
   17CHL1    C4 1189   4.473   6.184   9.968  0.5026 -0.1095  0.2674
   17CHL1   H4A 1190   4.553   6.260   9.978 -1.1866  1.8420 -0.3642
   17CHL1   H4B 1191   4.490   6.093  10.030  0.4374 -1.7736 -2.0243
   17CHL1    C5 1192   4.451   6.140   9.819 -0.3944  0.1067  1.0789
   17CHL1    C6 1193   4.466   6.010   9.774  0.3014  0.2714 -0.1433
   17CHL1    H6 1194   4.490   5.932   9.848 -0.7599  1.1588  1.1839
   17CHL1    C7 1195   4.472   5.980   9.624  0.4925 -0.2003 -0.0607
   17CHL1   H7A 1196   4.549   5.902   9.606  0.5980 -0.1101 -0.0033
   17CHL1   H7B 1197   4.378   5.934   9.587  0.7697 -0.4037 -0.5169
   17CHL1    C8 1198   4.480   6.101   9.534 -0.1018 -0.1694  0.1180
   17CHL1    H8 1199   4.586   6.131   9.550  0.1245 -1.5982  1.5837
   17CHL1   C14 1200   4.442   6.070   9.390  0.0468  0.3618 -0.2807
   17CHL1   H14 1201   4.337   6.035   9.390  0.1553 -0.0432  1.2977
   17CHL1   C15 1202   4.532   5.958   9.331  0.3548  0.1464  0.2791
   17CHL1  H15A 1203   4.637   5.958   9.367  0.4787 -0.5177 -0.0588
   17CHL1  H15B 1204   4.485   5.860   9.355  0.3351  0.1063  0.0734
   17CHL1   C16 1205   4.537   5.990   9.180  0.1566  0.4103  0.2983
   17CHL1  H16A 1206   4.640   5.998   9.140  0.7287 -1.1813  1.3610
   17CHL1  H16B 1207   4.487   5.905   9.128 -1.6744  0.5859  1.6673
   17CHL1   C17 1208   4.444   6.116   9.160  0.7754  0.5517 -0.3247
   17CHL1   H17 1209   4.341   6.076   9.147  2.0755 -2.6204 -2.0022
   17CHL1   C13 1210   4.454   6.191   9.292 -0.1711 -0.2299 -0.7618
   17CHL1   C18 1211   4.603   6.254   9.301 -0.6157 -0.0199  0.2901
   17CHL1  H18A 1212   4.676   6.179   9.262 -1.1129 -1.1494  1.4677
   17CHL1  H18B 1213   4.602   6.346   9.240 -2.3370 -0.1876  0.0223
   17CHL1  H18C 1214   4.628   6.283   9.405  1.0864  1.3892 -0.4688
   17CHL1   C12 1215   4.345   6.290   9.330 -0.0770  0.2697 -0.4683
   17CHL1  H12A 1216   4.356   6.376   9.260  2.1390  0.5507  0.1548
   17CHL1  H12B 1217   4.246   6.241   9.328  0.5520 -1.2703  1.8967
   17CHL1   C11 1218   4.368   6.332   9.477  0.2932 -0.6318  0.8742
   17CHL1  H11A 1219   4.454   6.402   9.470 -1.0730  0.9811 -0.9950
   17CHL1  H11B 1220   4.270   6.384   9.483  0.7759  0.5428 -0.6617
   17CHL1    C9 1221   4.393   6.218   9.583 -0.4789 -0.6114 -0.1079
   17CHL1    H9 1222   4.292   6.173   9.589 -0.7893 -0.6560 -3.5580
   17CHL1   C10 1223   4.427   6.264   9.727  0.5753 -0.2642 -0.5698
   17CHL1   C19 1224   4.539   6.367   9.735  0.9148 -0.7284 -0.1033
   17CHL1  H19A 1225   4.515   6.454   9.670 -0.1010 -0.8554  0.0800
   17CHL1  H19B 1226   4.549   6.404   9.839 -0.9619  0.6501 -0.3618
   17CHL1  H19C 1227   4.637   6.331   9.697  1.9534  0.5116  1.2772
   17CHL1    C1 1228   4.300   6.325   9.786  0.2563 -0.3512  0.1515
   17CHL1   H1A 1229   4.265   6.410   9.723 -0.8325 -1.3159 -0.5684
   17CHL1   H1B 1230   4.212   6.258   9.778  0.0701 -0.1478  0.4678
   17CHL1    C2 1231   4.301   6.369   9.936  0.4015  0.0393 -0.3381
   17CHL1   H2A 1232   4.205   6.402   9.981  1.3584  0.2646  1.6501
   17CHL1   H2B 1233   4.378   6.448   9.946  0.3964  0.2182 -1.6081
   17CHL1   C20 1234   4.474   6.193   9.025  0.3719 -0.2877 -0.5746
   17CHL1   H20 1235   4.539   6.280   9.048  1.9956 -1.7336  0.4897
   17CHL1   C21 1236   4.338   6.254   8.986 -0.3167 -1.0091 -0.2016
   17CHL1  H21A 1237   4.263   6.179   8.952 -0.3007 -0.7876 -0.7336
   17CHL1  H21B 1238   4.344   6.340   8.916 -2.1888 -0.1380  0.6397
   17CHL1  H21C 1239   4.294   6.289   9.082  0.7489 -1.2964  0.4091
   17CHL1   C22 1240   4.541   6.114   8.909  0.2166 -0.1293 -0.7675
   17CHL1  H22A 1241   4.646   6.087   8.937  0.7501  0.8874 -1.7042
   17CHL1  H22B 1242   4.474   6.026   8.899  1.5451 -1.3861  0.8346
   17CHL1   C23 1243   4.550   6.197   8.777  0.2618 -0.6498  0.0284
   17CHL1  H23A 1244   4.448   6.227   8.743 -0.3519 -0.8028  1.6445
   17CHL1  H23B 1245   4.616   6.285   8.791 -1.1298  0.6044 -0.9801
   17CHL1   C24 1246   4.607   6.104   8.665 -1.2236 -0.2634 -0.3735
   17CHL1  H24A 1247   4.681   6.031   8.704 -0.0001  0.6570 -0.9189
   17CHL1  H24B 1248   4.527   6.041   8.619  0.6110 -2.1231 -1.1832
   17CHL1   C25 1249   4.675   6.176   8.538 -0.0382  1.0549  0.3002
   17CHL1   H25 1250   4.612   6.255   8.493  2.0535  1.0636 -2.9385
   17CHL1   C26 1251   4.806   6.241   8.569 -0.6153 -0.4130  0.2241
   17CHL1  H26A 1252   4.800   6.301   8.662 -1.6030 -0.1638  0.0193
   17CHL1  H26B 1253   4.887   6.167   8.583  0.5785  1.1171  1.7167
   17CHL1  H26C 1254   4.840   6.311   8.490  2.2500 -0.5177  1.2600
   17CHL1   C27 1255   4.691   6.070   8.429 -0.6467 -0.1430 -0.0498
   17CHL1  H27A 1256   4.741   6.118   8.343 -0.1579  0.5533  0.6109
   17CHL1  H27B 1257   4.761   5.990   8.464  0.6928  1.1294  0.2572
   17CHL1  H27C 1258   4.593   6.046   8.383  0.4922 -0.0555 -2.6832
   18CHL1    C3 1259   3.802   6.370  10.053  0.1652  0.6551  0.3432
   18CHL1    H3 1260   3.869   6.286  10.026 -0.5523  0.1148  0.2078
   18CHL1    O3 1261   3.806   6.385  10.194  0.2156  0.3164  0.6833
   18CHL1   H3' 1262   3.748   6.461  10.207 -1.8795 -1.1453  0.3627
   18CHL1    C4 1263   3.844   6.496   9.977 -0.3946 -0.2501 -0.0058
   18CHL1   H4A 1264   3.778   6.582   9.999 -2.3796 -1.3018 -1.5476
   18CHL1   H4B 1265   3.942   6.514  10.028 -0.5112 -0.1388  0.1831
   18CHL1    C5 1266   3.853   6.464   9.834  0.3711 -0.0643 -0.5023
   18CHL1    C6 1267   3.968   6.486   9.771 -1.0105 -0.6582 -0.9503
   18CHL1    H6 1268   4.052   6.516   9.835 -2.8479 -0.7378  1.6475
   18CHL1    C7 1269   3.993   6.471   9.629 -0.8664  0.3823 -0.7049
   18CHL1   H7A 1270   4.048   6.563   9.600 -0.0406  0.4767  1.0374
   18CHL1   H7B 1271   4.065   6.388   9.615  0.4005  1.6326 -1.9446
   18CHL1    C8 1272   3.856   6.444   9.551 -0.1447 -0.2056 -0.3105
   18CHL1    H8 1273   3.810   6.541   9.522  1.0245  0.2224 -0.8098
   18CHL1   C14 1274   3.871   6.373   9.421 -0.3234  0.0224  0.2257
   18CHL1   H14 1275   3.912   6.271   9.437  2.0731  1.0639  1.1863
   18CHL1   C15 1276   3.967   6.442   9.326  0.1553  0.2750  0.6268
   18CHL1  H15A 1277   3.941   6.547   9.301 -1.8626 -0.4771 -0.6753
   18CHL1  H15B 1278   4.066   6.429   9.374  0.8554  2.8006  0.0059
   18CHL1   C16 1279   3.949   6.366   9.196 -0.2944 -0.9648 -0.1060
   18CHL1  H16A 1280   3.969   6.442   9.118 -0.3930 -0.5180  0.2983
   18CHL1  H16B 1281   4.033   6.294   9.188 -0.2527 -1.0613  0.9884
   18CHL1   C17 1282   3.813   6.292   9.205 -0.6110 -0.2627  0.1745
   18CHL1   H17 1283   3.840   6.188   9.230 -2.4605 -0.3252  2.1729
   18CHL1   C13 1284   3.753   6.347   9.340  0.1869  0.6812  0.6260
   18CHL1   C18 1285   3.674   6.476   9.306 -0.5575  0.2796  0.0580
   18CHL1  H18A 1286   3.736   6.555   9.258 -1.3618  0.8669 -0.0386
   18CHL1  H18B 1287   3.585   6.467   9.240  0.4090  2.5696 -1.7026
   18CHL1  H18C 1288   3.642   6.523   9.401  0.5051  1.1493 -0.0024
   18CHL1   C12 1289   3.674   6.245   9.416 -0.1013 -0.0800 -0.4377
   18CHL1  H12A 1290   3.582   6.200   9.374  0.0758 -1.6331  0.7584
   18CHL1  H12B 1291   3.743   6.160   9.438 -1.3501 -0.7249  1.1052
   18CHL1   C11 1292   3.634   6.301   9.549  0.3892  0.0877 -0.2999
   18CHL1  H11A 1293   3.564   6.386   9.536  0.6770  0.2129 -1.0515
   18CHL1  H11B 1294   3.568   6.244   9.619  1.3830  0.5017  1.0010
   18CHL1    C9 1295   3.761   6.354   9.631  0.2756  0.7479 -0.8141
   18CHL1    H9 1296   3.818   6.260   9.646 -1.7148 -0.4499 -0.5095
   18CHL1   C10 1297   3.728   6.405   9.773  0.3399  0.2772 -0.6018
   18CHL1   C19 1298   3.618   6.513   9.767 -0.3307  0.1440 -0.7864
   18CHL1  H19A 1299   3.611   6.564   9.865  1.2577 -0.0282 -0.5550
   18CHL1  H19B 1300   3.651   6.588   9.692  0.0139 -1.0569 -1.8862
   18CHL1  H19C 1301   3.517   6.475   9.742 -0.4486 -0.7427  0.8989
   18CHL1    C1 1302   3.671   6.286   9.858 -0.6577  0.3543 -0.6821
   18CHL1   H1A 1303   3.569   6.250   9.831 -0.1888 -1.6159 -0.0177
   18CHL1   H1B 1304   3.743   6.202   9.845 -1.1026 -0.2448  0.5511
   18CHL1    C2 1305   3.672   6.312  10.009  0.6344 -0.3277 -0.0160
   18CHL1   H2A 1306   3.646   6.214  10.056  0.1684 -0.6446 -0.9175
   18CHL1   H2B 1307   3.594   6.386  10.040  1.3875  0.0648  0.9973
   18CHL1   C20 1308   3.746   6.306   9.076  0.0250  0.4948  0.1076
   18CHL1   H20 1309   3.730   6.414   9.059 -0.9826  0.4531  0.7348
   18CHL1   C21 1310   3.607   6.231   9.076 -0.4461 -0.6526 -0.2497
   18CHL1  H21A 1311   3.547   6.260   8.987  0.5324 -0.2702 -0.8033
   18CHL1  H21B 1312   3.547   6.248   9.168  0.8189 -2.1153  0.9020
   18CHL1  H21C 1313   3.620   6.121   9.081  2.3044 -0.3575  1.1820
   18CHL1   C22 1314   3.832   6.241   8.965  0.2860  0.3702 -0.5650
   18CHL1  H22A 1315   3.942   6.252   8.977  0.0003  1.8149  1.1186
   18CHL1  H22B 1316   3.814   6.132   8.959 -1.2727  0.4939  0.9989
   18CHL1   C23 1317   3.799   6.316   8.829 -0.1750  0.0177 -0.0697
   18CHL1  H23A 1318   3.691   6.312   8.801 -0.0615  1.0868 -0.6960
   18CHL1  H23B 1319   3.825   6.424   8.824  1.7975 -0.4611 -1.4492
   18CHL1   C24 1320   3.887   6.250   8.720  0.5064 -0.3472  0.6871
   18CHL1  H24A 1321   3.994   6.247   8.750  0.4718  0.4958  0.9469
   18CHL1  H24B 1322   3.862   6.143   8.709 -1.7321  0.2028 -0.2279
   18CHL1   C25 1323   3.859   6.303   8.576 -0.5023  0.3472  0.4414
   18CHL1   H25 1324   3.890   6.409   8.583  0.0563  0.1573  0.8784
   18CHL1   C26 1325   3.942   6.225   8.472 -0.4909 -0.0425  0.2589
   18CHL1  H26A 1326   3.940   6.115   8.483 -2.5937 -0.2148 -1.2004
   18CHL1  H26B 1327   3.913   6.261   8.371  0.2101  1.2042  0.4822
   18CHL1  H26C 1328   4.047   6.253   8.495 -0.2208 -1.4377  0.8228
   18CHL1   C27 1329   3.705   6.293   8.544 -0.2276  0.0801  0.1537
   18CHL1  H27A 1330   3.681   6.325   8.441  0.2480 -0.8199 -0.2429
   18CHL1  H27B 1331   3.677   6.187   8.560 -1.0745  0.3446  0.4861
   18CHL1  H27C 1332   3.658   6.371   8.608 -0.5285 -0.0125  0.0434
   19CHL1    C3 1333   0.535   3.353   9.980  0.1214  0.1173  0.6261
   19CHL1    H3 1334   0.454   3.278   9.969  0.3165  0.1021 -0.8745
   19CHL1    O3 1335   0.565   3.371  10.117 -0.1392  0.3898  0.4478
   19CHL1   H3' 1336   0.613   3.295  10.148  2.2191  0.1925 -3.0855
   19CHL1    C4 1337   0.667   3.295   9.915 -0.4091  0.4647 -0.1931
   19CHL1   H4A 1338   0.760   3.348   9.945  0.2701  0.4196 -2.0523
   19CHL1   H4B 1339   0.677   3.192   9.955 -0.1050  0.5109 -0.1467
   19CHL1    C5 1340   0.666   3.288   9.761 -0.2828  0.0887 -0.0129
   19CHL1    C6 1341   0.688   3.169   9.698 -0.8303  0.3287  0.2643
   19CHL1    H6 1342   0.703   3.074   9.752  0.3086 -0.6333 -1.6510
   19CHL1    C7 1343   0.711   3.158   9.553  0.4839  0.5373 -0.2220
   19CHL1   H7A 1344   0.813   3.116   9.537  0.3360 -0.1784  0.6788
   19CHL1   H7B 1345   0.627   3.095   9.518  0.5467 -0.4466  1.3070
   19CHL1    C8 1346   0.697   3.288   9.476 -0.2895 -0.2517 -0.4004
   19CHL1    H8 1347   0.799   3.331   9.479 -0.1444 -0.6191  1.0219
   19CHL1   C14 1348   0.665   3.267   9.334  0.5029 -0.0637 -0.1189
   19CHL1   H14 1349   0.558   3.241   9.331  0.2062  1.1199 -0.2727
   19CHL1   C15 1350   0.740   3.155   9.261 -0.5959  0.7405 -0.3943
   19CHL1  H15A 1351   0.850   3.169   9.269 -0.4985  0.6373 -1.4582
   19CHL1  H15B 1352   0.719   3.054   9.302 -1.2187  1.4422  1.0700
   19CHL1   C16 1353   0.718   3.189   9.114  0.5572 -0.3853  0.0636
   19CHL1  H16A 1354   0.819   3.206   9.073  1.4406  2.0465  2.8471
   19CHL1  H16B 1355   0.670   3.107   9.057  0.4715 -1.3501  1.4733
   19CHL1   C17 1356   0.635   3.323   9.110 -0.3322  0.0209 -0.0627
   19CHL1   H17 1357   0.529   3.293   9.124 -0.1406  0.3156  2.5086
   19CHL1   C13 1358   0.666   3.397   9.243  0.6189  0.0039  0.0938
   19CHL1   C18 1359   0.803   3.467   9.239 -0.3802 -0.1395  0.4841
   19CHL1  H18A 1360   0.882   3.397   9.206 -1.8398 -1.7014  0.1535
   19CHL1  H18B 1361   0.807   3.548   9.162  2.1350  0.8195  1.5163
   19CHL1  H18C 1362   0.839   3.496   9.340  1.7686 -2.3610  0.4420
   19CHL1   C12 1363   0.561   3.490   9.296  0.1099 -0.0816 -0.5252
   19CHL1  H12A 1364   0.543   3.584   9.240 -1.5940 -0.7117 -1.0993
   19CHL1  H12B 1365   0.464   3.437   9.287 -0.4859  0.9133 -0.0892
   19CHL1   C11 1366   0.587   3.507   9.444  0.1103 -0.6503  0.2049
   19CHL1  H11A 1367   0.681   3.565   9.455 -0.8696  1.3026 -1.0414
   19CHL1  H11B 1368   0.524   3.587   9.491  1.1009 -0.1362  0.6828
   19CHL1    C9 1369   0.601   3.386   9.535 -0.2168 -0.0907  0.0554
   19CHL1    H9 1370   0.500   3.341   9.536 -0.1981 -0.1712  1.4998
   19CHL1   C10 1371   0.626   3.414   9.691 -0.1624 -0.1560  0.5861
   19CHL1   C19 1372   0.743   3.514   9.702  0.4662 -0.1104  0.4120
   19CHL1  H19A 1373   0.765   3.537   9.808 -0.9245  0.0017  0.6979
   19CHL1  H19B 1374   0.832   3.500   9.637 -0.7665 -3.0251 -0.8083
   19CHL1  H19C 1375   0.703   3.609   9.659  2.8414  1.0883  0.6764
   19CHL1    C1 1376   0.500   3.475   9.756  0.3524  0.5671  0.1017
   19CHL1   H1A 1377   0.478   3.575   9.714 -3.7988  0.1656  0.8981
   19CHL1   H1B 1378   0.405   3.419   9.740 -0.8693  1.9173  2.1345
   19CHL1    C2 1379   0.516   3.485   9.911 -0.4929  0.1618 -0.0952
   19CHL1   H2A 1380   0.429   3.536   9.958 -0.4120  1.9793 -1.8071
   19CHL1   H2B 1381   0.600   3.556   9.926 -2.3852  2.4906 -0.0692
   19CHL1   C20 1382   0.640   3.400   8.978  0.1651  0.6131  0.6365
   19CHL1   H20 1383   0.621   3.506   9.006 -0.6487  0.2626  1.4656
   19CHL1   C21 1384   0.511   3.370   8.900  0.7890  0.4201  0.6463
   19CHL1  H21A 1385   0.521   3.264   8.868 -1.5998  0.6736 -1.2806
   19CHL1  H21B 1386   0.493   3.428   8.806 -2.0390  1.6353  1.8282
   19CHL1  H21C 1387   0.420   3.390   8.960 -0.1067  0.3010 -0.6117
   19CHL1   C22 1388   0.772   3.388   8.895  0.5840  0.3004 -0.2774
   19CHL1  H22A 1389   0.864   3.417   8.951  1.0060  0.9945 -1.3028
   19CHL1  H22B 1390   0.783   3.281   8.866  1.4913  0.2565  0.1736
   19CHL1   C23 1391   0.775   3.464   8.768  0.0196  0.0221  0.3682
   19CHL1  H23A 1392   0.878   3.444   8.731 -0.1335  1.5510 -1.0339
   19CHL1  H23B 1393   0.691   3.437   8.701 -0.6181  0.8919  0.8008
   19CHL1   C24 1394   0.787   3.611   8.794 -0.5293 -0.1945  0.0019
   19CHL1  H24A 1395   0.691   3.653   8.833  0.2633  0.5028  1.2881
   19CHL1  H24B 1396   0.863   3.629   8.873 -1.7259  0.8980  0.9703
   19CHL1   C25 1397   0.829   3.684   8.673 -0.6387 -0.2566 -1.0168
   19CHL1   H25 1398   0.940   3.689   8.679 -0.6414 -0.7396 -0.5267
   19CHL1   C26 1399   0.783   3.643   8.536 -0.8803  0.1729  0.0264
   19CHL1  H26A 1400   0.816   3.544   8.500  2.8111  1.3522 -0.2813
   19CHL1  H26B 1401   0.673   3.647   8.527 -0.8405  0.4733 -0.3993
   19CHL1  H26C 1402   0.830   3.708   8.458  0.2298 -0.5394  0.0741
   19CHL1   C27 1403   0.787   3.839   8.682 -0.1839  0.4044 -0.6506
   19CHL1  H27A 1404   0.839   3.897   8.761  2.1944 -1.1269 -0.9813
   19CHL1  H27B 1405   0.808   3.897   8.590 -1.8139  0.0228 -1.2967
   19CHL1  H27C 1406   0.676   3.851   8.680 -0.3135 -0.2586  0.7751
   20CHL1    C3 1407   3.594   3.705  10.190  0.1505 -0.3122  0.4160
   20CHL1    H3 1408   3.484   3.712  10.175  0.2097  2.2144  0.7106
   20CHL1    O3 1409   3.633   3.677  10.319 -0.1861 -0.2408  0.3847
   20CHL1   H3' 1410   3.577   3.603  10.345 -0.7518  0.3733  0.9679
   20CHL1    C4 1411   3.639   3.583  10.105 -0.2874  0.1196  0.3121
   20CHL1   H4A 1412   3.743   3.555  10.135  0.0648  1.0570  0.0079
   20CHL1   H4B 1413   3.577   3.499  10.141  1.6330 -1.3589  0.3275
   20CHL1    C5 1414   3.631   3.602   9.954  0.3719  0.4418 -0.5441
   20CHL1    C6 1415   3.559   3.506   9.890 -0.1325 -1.2106  0.0569
   20CHL1    H6 1416   3.528   3.415   9.945 -0.6542 -1.2668 -0.3214
   20CHL1    C7 1417   3.552   3.522   9.739  0.4156  0.3893 -0.3486
   20CHL1   H7A 1418   3.591   3.434   9.685  0.8018  0.3118  0.0504
   20CHL1   H7B 1419   3.446   3.551   9.722  0.1959  0.8482  1.5612
   20CHL1    C8 1420   3.651   3.632   9.672  0.5198 -0.2861  0.9509
   20CHL1    H8 1421   3.753   3.588   9.670  1.0747  0.9595  1.1344
   20CHL1   C14 1422   3.608   3.663   9.532  0.2551  0.1665  0.2676
   20CHL1   H14 1423   3.508   3.712   9.539  1.0133  1.6391  1.3649
   20CHL1   C15 1424   3.576   3.550   9.435 -0.3046 -0.9999  0.7599
   20CHL1  H15A 1425   3.644   3.463   9.446 -1.6258 -2.4356 -1.5199
   20CHL1  H15B 1426   3.475   3.509   9.454 -0.0106 -1.1716  1.9914
   20CHL1   C16 1427   3.589   3.609   9.294  0.0984  0.2432  0.0075
   20CHL1  H16A 1428   3.634   3.526   9.236 -1.4421  0.3575 -1.4244
   20CHL1  H16B 1429   3.491   3.627   9.244  0.3630 -1.3696 -1.1585
   20CHL1   C17 1430   3.645   3.754   9.306  0.5430 -0.0014  0.1300
   20CHL1   H17 1431   3.562   3.827   9.308  1.1795  0.8104 -1.1653
   20CHL1   C13 1432   3.707   3.760   9.449 -0.2677  0.0708 -0.4049
   20CHL1   C18 1433   3.846   3.693   9.440  0.1886  0.5114  0.3571
   20CHL1  H18A 1434   3.927   3.753   9.393  0.8518 -0.3829  0.3281
   20CHL1  H18B 1435   3.895   3.659   9.534  0.1615 -1.9658 -0.4622
   20CHL1  H18C 1436   3.836   3.598   9.383  0.9885  1.4522 -1.4508
   20CHL1   C12 1437   3.687   3.889   9.529 -0.9196  0.2115 -0.2902
   20CHL1  H12A 1438   3.759   3.958   9.479 -0.1532  0.2413  0.8248
   20CHL1  H12B 1439   3.582   3.921   9.510 -0.8331  1.2301  0.8058
   20CHL1   C11 1440   3.724   3.877   9.678 -0.1314 -0.5414  0.1196
   20CHL1  H11A 1441   3.833   3.853   9.672 -0.1645 -0.5038 -0.6397
   20CHL1  H11B 1442   3.702   3.969   9.737  0.2686 -0.6498  0.4480
   20CHL1    C9 1443   3.647   3.760   9.752  0.1983 -0.5617  0.0345
   20CHL1    H9 1444   3.539   3.784   9.759  0.8377  2.1701  1.9132
   20CHL1   C10 1445   3.695   3.729   9.893  0.5601  0.1861  0.0980
   20CHL1   C19 1446   3.851   3.718   9.896 -0.0267 -0.2111 -0.4475
   20CHL1  H19A 1447   3.878   3.637   9.825  1.4672 -0.2516  0.1427
   20CHL1  H19B 1448   3.914   3.806   9.873  0.3049  0.4464  2.6065
   20CHL1  H19C 1449   3.883   3.677   9.994 -2.1096  1.3126  0.9573
   20CHL1    C1 1450   3.650   3.847   9.988  0.4244 -0.5546  0.1934
   20CHL1   H1A 1451   3.703   3.940   9.959  0.7768 -0.6623  0.4748
   20CHL1   H1B 1452   3.545   3.870   9.959 -0.5596 -2.7201  1.6978
   20CHL1    C2 1453   3.675   3.824  10.140 -0.2368 -0.2924  0.9222
   20CHL1   H2A 1454   3.641   3.912  10.199  1.2741 -0.0537  1.4710
   20CHL1   H2B 1455   3.783   3.809  10.160 -0.2776  0.1137  1.4709
   20CHL1   C20 1456   3.728   3.795   9.183  0.0033 -0.5372  0.2072
   20CHL1   H20 1457   3.807   3.717   9.172  2.0537  1.0108  2.6775
   20CHL1   C21 1458   3.795   3.939   9.203 -0.1304  0.1720 -0.8623
   20CHL1  H21A 1459   3.830   3.967   9.101 -0.6578 -0.8203 -1.3328
   20CHL1  H21B 1460   3.881   3.938   9.273 -0.6208 -1.3167 -0.2304
   20CHL1  H21C 1461   3.721   4.007   9.249  0.5170  0.1445  0.2446
   20CHL1   C22 1462   3.649   3.792   9.048  0.1829 -0.1186 -0.1140
   20CHL1  H22A 1463   3.722   3.816   8.967  0.2940  0.5454  0.1796
   20CHL1  H22B 1464   3.621   3.685   9.038  0.8374 -0.4190  1.0432
   20CHL1   C23 1465   3.521   3.886   9.041 -0.8227  0.5133  0.3012
   20CHL1  H23A 1466   3.471   3.868   9.139  0.2900 -1.8395  0.5144
   20CHL1  H23B 1467   3.546   3.994   9.034  0.6464  0.1295 -0.8662
   20CHL1   C24 1468   3.414   3.841   8.947  0.6754 -0.4847 -0.6058
   20CHL1  H24A 1469   3.360   3.748   8.976 -0.9915 -0.1841 -2.4898
   20CHL1  H24B 1470   3.336   3.920   8.941 -1.4144 -2.4279 -0.6598
   20CHL1   C25 1471   3.455   3.842   8.794 -0.2893 -0.2096  0.0575
   20CHL1   H25 1472   3.540   3.773   8.780  0.9796  1.4050 -0.5391
   20CHL1   C26 1473   3.347   3.777   8.699 -0.1647  0.0433 -0.0423
   20CHL1  H26A 1474   3.378   3.763   8.593  0.0743 -0.8508  0.1387
   20CHL1  H26B 1475   3.346   3.672   8.735  0.3826  0.6631  1.9008
   20CHL1  H26C 1476   3.264   3.850   8.706  0.6024  0.9426  0.0256
   20CHL1   C27 1477   3.500   3.983   8.744  0.1211  0.1633 -0.0996
   20CHL1  H27A 1478   3.549   4.042   8.823  1.0288  1.7960 -1.8160
   20CHL1  H27B 1479   3.568   3.962   8.659  1.0938 -0.1696  0.7414
   20CHL1  H27C 1480   3.407   4.037   8.718 -0.6590 -0.5902  1.0406
   21CHL1    C3 1481   0.868   5.996  10.234  0.6588  0.3998  0.9654
   21CHL1    H3 1482   0.956   5.930  10.217  0.1836  0.3451 -1.7380
   21CHL1    O3 1483   0.843   6.021  10.370 -0.6975  0.1411  0.2364
   21CHL1   H3' 1484   0.862   5.938  10.415  0.2433  0.4197  0.3668
   21CHL1    C4 1485   0.909   6.127  10.161  0.5180  0.0202 -0.7501
   21CHL1   H4A 1486   0.847   6.210  10.200 -0.8298 -1.9279  1.5673
   21CHL1   H4B 1487   1.007   6.148  10.210 -0.8936  2.6908  1.1873
   21CHL1    C5 1488   0.917   6.117  10.011 -0.6065  0.2007 -0.7859
   21CHL1    C6 1489   1.028   6.150   9.951 -0.8136 -0.8932  0.2529
   21CHL1    H6 1490   1.111   6.191  10.011 -1.4190 -0.9392  1.1470
   21CHL1    C7 1491   1.036   6.153   9.798 -0.6276 -0.4955 -0.3385
   21CHL1   H7A 1492   1.093   6.246   9.775 -0.7146 -0.7585 -1.6924
   21CHL1   H7B 1493   1.115   6.081   9.768 -0.9568 -1.4975  1.0660
   21CHL1    C8 1494   0.909   6.130   9.733  0.6479 -0.2480  0.5524
   21CHL1    H8 1495   0.853   6.225   9.744 -0.0656 -0.5942 -0.0073
   21CHL1   C14 1496   0.922   6.096   9.588  0.6158  0.2587 -0.1552
   21CHL1   H14 1497   0.978   6.000   9.589  1.0559  0.5009  0.9476
   21CHL1   C15 1498   1.020   6.184   9.506 -0.1333  0.3547 -0.5076
   21CHL1  H15A 1499   1.016   6.291   9.534 -1.1354  0.1063  0.3712
   21CHL1  H15B 1500   1.121   6.138   9.512 -0.4070 -0.1108  0.8998
   21CHL1   C16 1501   0.969   6.175   9.362  0.0485 -0.2922  0.5420
   21CHL1  H16A 1502   0.932   6.275   9.332  0.4856 -0.6169 -1.1660
   21CHL1  H16B 1503   1.058   6.143   9.304 -0.5955  0.3357 -0.8087
   21CHL1   C17 1504   0.859   6.069   9.371 -0.1897  0.1512 -0.1632
   21CHL1   H17 1505   0.913   5.972   9.368 -0.2889  0.1060 -0.7655
   21CHL1   C13 1506   0.793   6.077   9.512  0.9749 -0.8730 -0.4058
   21CHL1   C18 1507   0.683   6.186   9.510  0.1094  0.5737  0.2350
   21CHL1  H18A 1508   0.589   6.148   9.465  1.7769 -2.2581 -1.0800
   21CHL1  H18B 1509   0.654   6.224   9.611 -1.0600  1.0764 -0.2700
   21CHL1  H18C 1510   0.720   6.274   9.453  0.8158  0.7839  0.9851
   21CHL1   C12 1511   0.729   5.947   9.562  0.4117  0.0311  0.5166
   21CHL1  H12A 1512   0.632   5.932   9.509  0.0233 -1.6815  1.6270
   21CHL1  H12B 1513   0.803   5.867   9.541  1.0952  0.8237 -0.2172
   21CHL1   C11 1514   0.699   5.967   9.713  0.2813 -1.0003 -0.5803
   21CHL1  H11A 1515   0.613   6.037   9.715 -0.3628 -1.7198 -1.9095
   21CHL1  H11B 1516   0.676   5.864   9.749 -0.1945 -0.7993 -0.3074
   21CHL1    C9 1517   0.820   6.019   9.802  0.8318 -0.9294  0.9858
   21CHL1    H9 1518   0.892   5.935   9.803  0.9534 -0.8471  0.1112
   21CHL1   C10 1519   0.794   6.053   9.948 -0.0244  0.4202 -0.4561
   21CHL1   C19 1520   0.671   6.148   9.948 -0.3426 -0.4899  0.0891
   21CHL1  H19A 1521   0.703   6.228   9.879 -0.4886 -0.6387 -0.1513
   21CHL1  H19B 1522   0.584   6.089   9.912  1.0073 -0.9015 -2.7214
   21CHL1  H19C 1523   0.654   6.184  10.052  2.9133 -0.0030  0.5451
   21CHL1    C1 1524   0.771   5.914  10.019  0.5370 -0.4838 -0.7650
   21CHL1   H1A 1525   0.681   5.861   9.981 -0.6110  0.6688  0.2430
   21CHL1   H1B 1526   0.863   5.853  10.008  1.2765  0.2773  0.9140
   21CHL1    C2 1527   0.746   5.930  10.172  0.8842  0.3570  1.1942
   21CHL1   H2A 1528   0.727   5.830  10.218  0.3625 -0.1593 -0.0942
   21CHL1   H2B 1529   0.659   5.999  10.179 -0.0232 -0.4496 -1.2264
   21CHL1   C20 1530   0.779   6.074   9.233 -0.0603  0.6116 -0.5438
   21CHL1   H20 1531   0.695   6.142   9.258  0.6242  0.8812  1.1928
   21CHL1   C21 1532   0.727   5.927   9.212  0.1122  0.4327 -0.0753
   21CHL1  H21A 1533   0.639   5.944   9.146 -0.0254 -0.9362 -0.2799
   21CHL1  H21B 1534   0.698   5.871   9.304 -2.0367  0.9294 -0.3871
   21CHL1  H21C 1535   0.798   5.863   9.156 -0.6008 -0.5534  0.1315
   21CHL1   C22 1536   0.839   6.113   9.096 -0.1067 -0.3617  0.0146
   21CHL1  H22A 1537   0.949   6.129   9.105 -0.3244  0.3898  2.0099
   21CHL1  H22B 1538   0.826   6.032   9.022  0.0524 -0.9559  0.6243
   21CHL1   C23 1539   0.796   6.259   9.043  0.2585  0.4025 -0.0059
   21CHL1  H23A 1540   0.686   6.271   9.051  0.5153  4.3038 -0.3416
   21CHL1  H23B 1541   0.837   6.341   9.107  1.1276  1.1618 -1.4841
   21CHL1   C24 1542   0.840   6.282   8.897 -0.4471  0.1911  0.1088
   21CHL1  H24A 1543   0.947   6.251   8.888 -0.4830 -0.6075  1.9765
   21CHL1  H24B 1544   0.787   6.226   8.817 -0.1140  2.3667 -1.7192
   21CHL1   C25 1545   0.841   6.428   8.851 -0.2188 -0.3680 -0.0669
   21CHL1   H25 1546   0.915   6.485   8.912  1.7892 -1.2232 -1.5971
   21CHL1   C26 1547   0.898   6.433   8.710 -0.2907 -0.1888 -0.3744
   21CHL1  H26A 1548   0.924   6.534   8.672  2.1253 -0.5490  0.1217
   21CHL1  H26B 1549   0.995   6.380   8.701 -1.2156 -2.2181  1.0596
   21CHL1  H26C 1550   0.837   6.367   8.645 -0.5016  1.0080 -1.4288
   21CHL1   C27 1551   0.697   6.493   8.852 -0.0960  0.4810  0.1595
   21CHL1  H27A 1552   0.642   6.500   8.947 -0.8720  1.2565 -0.3296
   21CHL1  H27B 1553   0.700   6.600   8.823 -3.8917  0.6325 -0.1399
   21CHL1  H27C 1554   0.632   6.449   8.773 -1.2524 -0.5191  1.6150
   22CHL1    C3 1555   2.045   2.703  10.156 -0.2503  0.1019 -0.0886
   22CHL1    H3 1556   2.134   2.735  10.098  0.0480  0.5496  0.5972
   22CHL1    O3 1557   2.052   2.752  10.285 -0.3833 -0.1844 -0.3870
   22CHL1   H3' 1558   1.964   2.781  10.311  0.8541  2.8755  0.8050
   22CHL1    C4 1559   1.923   2.762  10.087 -0.8220  0.1666  0.4379
   22CHL1   H4A 1560   1.834   2.727  10.142  0.1924  0.0380  2.0640
   22CHL1   H4B 1561   1.921   2.872  10.098 -1.9228  0.1839  0.1510
   22CHL1    C5 1562   1.904   2.723   9.941 -0.1312  0.8106  0.2966
   22CHL1    C6 1563   1.914   2.812   9.846 -0.4468 -0.1970  0.3621
   22CHL1    H6 1564   1.920   2.919   9.870 -0.2601  0.2446 -1.4933
   22CHL1    C7 1565   1.897   2.784   9.697  0.2980 -1.0344 -0.7966
   22CHL1   H7A 1566   1.828   2.860   9.652  0.5785 -0.8931 -0.9879
   22CHL1   H7B 1567   1.992   2.804   9.644 -0.2720  1.3803 -1.0210
   22CHL1    C8 1568   1.857   2.634   9.669  0.4310  0.0216 -0.4072
   22CHL1    H8 1569   1.751   2.627   9.701  1.3267  1.6416  3.4969
   22CHL1   C14 1570   1.874   2.592   9.525  0.1590  0.6203  0.3598
   22CHL1   H14 1571   1.983   2.598   9.505  0.2179 -0.9172  0.0493
   22CHL1   C15 1572   1.805   2.675   9.413 -0.1238 -0.3043 -1.1148
   22CHL1  H15A 1573   1.707   2.722   9.436  1.3051  2.9542 -1.0662
   22CHL1  H15B 1574   1.861   2.769   9.391 -2.1459  1.0174 -0.8838
   22CHL1   C16 1575   1.784   2.574   9.302  0.4336  0.6386  0.4065
   22CHL1  H16A 1576   1.674   2.568   9.292  0.5870  0.0813 -1.2316
   22CHL1  H16B 1577   1.821   2.600   9.201  2.4609 -0.6585  0.7546
   22CHL1   C17 1578   1.857   2.441   9.346 -0.5912 -0.0025  0.4683
   22CHL1   H17 1579   1.965   2.462   9.326 -0.4243 -1.6088 -0.5346
   22CHL1   C13 1580   1.850   2.440   9.497 -0.6718  0.5864 -0.0798
   22CHL1   C18 1581   1.707   2.408   9.541 -0.7128  0.2199 -0.3077
   22CHL1  H18A 1582   1.682   2.300   9.531 -2.5780  0.6977 -1.3804
   22CHL1  H18B 1583   1.682   2.432   9.646 -1.5811  2.7625 -1.0244
   22CHL1  H18C 1584   1.624   2.462   9.490 -1.2579 -1.0040 -0.7657
   22CHL1   C12 1585   1.948   2.348   9.581  0.5000  1.0348 -0.3592
   22CHL1  H12A 1586   1.928   2.240   9.569  0.0928  0.9919  0.5827
   22CHL1  H12B 1587   2.055   2.366   9.560  1.1091 -2.1259 -0.4137
   22CHL1   C11 1588   1.920   2.383   9.727  0.0539  0.3295 -0.2926
   22CHL1  H11A 1589   1.826   2.340   9.768  1.2865 -2.5589 -0.2198
   22CHL1  H11B 1590   1.998   2.340   9.794  1.2295  2.0012 -0.5501
   22CHL1    C9 1591   1.932   2.539   9.764  0.0159 -0.5783 -0.9398
   22CHL1    H9 1592   2.040   2.564   9.754 -0.0559 -0.2562 -0.9252
   22CHL1   C10 1593   1.906   2.570   9.914  0.3312  0.3216 -0.0789
   22CHL1   C19 1594   1.770   2.510   9.961  0.7716  0.2359  1.1309
   22CHL1  H19A 1595   1.687   2.549   9.899  1.0260 -1.1489 -0.1397
   22CHL1  H19B 1596   1.775   2.399   9.967 -1.2903  0.1081  1.0624
   22CHL1  H19C 1597   1.735   2.535  10.064  1.9219 -0.7971  1.8070
   22CHL1    C1 1598   2.024   2.508   9.997  0.0363  0.2203 -0.2609
   22CHL1   H1A 1599   2.014   2.399   9.982 -0.5157  0.3920 -1.2661
   22CHL1   H1B 1600   2.120   2.542   9.953 -0.0216  0.4483 -0.2161
   22CHL1    C2 1601   2.038   2.544  10.149 -0.1178 -0.6338  0.2631
   22CHL1   H2A 1602   2.135   2.504  10.186  0.6094 -1.5040 -2.3393
   22CHL1   H2B 1603   1.948   2.505  10.202 -0.1943 -1.5867 -0.5275
   22CHL1   C20 1604   1.808   2.312   9.271 -0.1469  0.1157 -0.1477
   22CHL1   H20 1605   1.702   2.288   9.297  0.8179 -3.8498  0.7763
   22CHL1   C21 1606   1.886   2.191   9.312 -0.2626 -0.8012 -0.2789
   22CHL1  H21A 1607   1.860   2.108   9.244 -1.6739 -0.5616 -0.0712
   22CHL1  H21B 1608   1.849   2.144   9.406  0.1619 -1.8936 -0.6536
   22CHL1  H21C 1609   1.995   2.214   9.304 -0.2663 -0.9305 -0.7322
   22CHL1   C22 1610   1.820   2.328   9.121  0.0042 -0.4399  0.0124
   22CHL1  H22A 1611   1.774   2.425   9.090 -0.7465 -0.6051  0.5649
   22CHL1  H22B 1612   1.928   2.335   9.097 -0.1874 -0.5404 -0.9249
   22CHL1   C23 1613   1.746   2.226   9.034 -0.3459 -0.0499  0.4192
   22CHL1  H23A 1614   1.812   2.137   9.031 -0.1410  0.0140  2.0417
   22CHL1  H23B 1615   1.657   2.200   9.096  0.1395 -0.3928  0.9750
   22CHL1   C24 1616   1.720   2.289   8.893  0.5022 -0.2519 -0.0937
   22CHL1  H24A 1617   1.684   2.394   8.891  0.1470 -0.2847  2.2788
   22CHL1  H24B 1618   1.818   2.308   8.844  0.5240  2.3183  0.8382
   22CHL1   C25 1619   1.636   2.192   8.807  0.5316  0.4799 -0.1409
   22CHL1   H25 1620   1.666   2.090   8.841 -1.1661 -0.0247 -0.0136
   22CHL1   C26 1621   1.490   2.200   8.841  1.0886 -0.5568 -0.0296
   22CHL1  H26A 1622   1.469   2.189   8.950 -1.6446  0.8257 -0.3434
   22CHL1  H26B 1623   1.447   2.301   8.824 -0.4748 -0.7776  2.2068
   22CHL1  H26C 1624   1.431   2.123   8.787  0.4550  0.8975 -1.4778
   22CHL1   C27 1625   1.656   2.208   8.655  0.0396 -0.1058  0.5925
   22CHL1  H27A 1626   1.616   2.306   8.620 -0.3463 -0.6199 -0.4273
   22CHL1  H27B 1627   1.766   2.214   8.644  0.0269 -0.8563  0.0376
   22CHL1  H27C 1628   1.615   2.129   8.590 -0.9290  0.3633  0.6092
   23CHL1    C3 1629   4.761   6.731  10.229 -0.2847  0.1285 -0.0431
   23CHL1    H3 1630   4.786   6.625  10.248  0.5622  0.2002 -0.6964
   23CHL1    O3 1631   4.724   6.804  10.347 -0.2641  0.5297  0.1757
   23CHL1   H3' 1632   4.812   6.819  10.384  0.3150 -0.6543 -0.6297
   23CHL1    C4 1633   4.884   6.806  10.160  0.3551 -0.2564  0.3097
   23CHL1   H4A 1634   4.852   6.910  10.137 -2.1983 -1.5468 -2.7740
   23CHL1   H4B 1635   4.974   6.799  10.225  0.2981  0.7375  0.5111
   23CHL1    C5 1636   4.912   6.755  10.023  0.2431 -0.1871  0.1010
   23CHL1    C6 1637   5.040   6.717   9.999  0.0481  0.6179 -0.0578
   23CHL1    H6 1638   5.119   6.717  10.076  2.1174  1.0251 -2.0712
   23CHL1    C7 1639   5.090   6.680   9.863  0.1531 -0.9990  0.1383
   23CHL1   H7A 1640   5.189   6.721   9.831  0.2496 -2.1455 -1.1083
   23CHL1   H7B 1641   5.108   6.571   9.860  3.3147 -0.6461  1.5226
   23CHL1    C8 1642   4.991   6.715   9.751  0.5775  0.4598  0.0729
   23CHL1    H8 1643   5.000   6.824   9.729  0.1502  0.3638 -0.6308
   23CHL1   C14 1644   5.030   6.636   9.625 -0.4173  0.9035  0.7336
   23CHL1   H14 1645   5.022   6.530   9.660  0.6583  0.1663 -1.1329
   23CHL1   C15 1646   5.177   6.637   9.573  0.4068 -0.2254  0.5629
   23CHL1  H15A 1647   5.205   6.741   9.546  0.3958  0.0303  1.4975
   23CHL1  H15B 1648   5.246   6.579   9.638  1.0830 -0.4475 -0.3411
   23CHL1   C16 1649   5.171   6.569   9.433 -0.4946  0.3234  0.1878
   23CHL1  H16A 1650   5.201   6.637   9.350 -0.6940 -0.9814 -0.9921
   23CHL1  H16B 1651   5.223   6.471   9.443  0.2500  0.8534  1.8569
   23CHL1   C17 1652   5.015   6.536   9.414 -0.0864 -0.1170 -0.0769
   23CHL1   H17 1653   4.996   6.439   9.464  2.4937  0.1110  1.5049
   23CHL1   C13 1654   4.940   6.636   9.502  0.2070  0.2397 -0.3169
   23CHL1   C18 1655   4.943   6.774   9.443 -0.5614 -0.2432 -0.0576
   23CHL1  H18A 1656   5.038   6.804   9.396 -0.2527  0.5490  1.0203
   23CHL1  H18B 1657   4.869   6.780   9.360  0.0196 -0.6018 -0.6051
   23CHL1  H18C 1658   4.905   6.846   9.520 -1.1606 -1.5720  0.9306
   23CHL1   C12 1659   4.803   6.590   9.556  0.2506 -0.3932  0.4852
   23CHL1  H12A 1660   4.722   6.598   9.480 -0.3815  0.7800  1.2617
   23CHL1  H12B 1661   4.805   6.485   9.593 -0.8203 -0.6807 -0.2087
   23CHL1   C11 1662   4.751   6.678   9.670 -0.7412 -0.7809 -0.5583
   23CHL1  H11A 1663   4.748   6.785   9.640  0.3322 -0.7771 -0.6876
   23CHL1  H11B 1664   4.654   6.637   9.705 -0.6181 -2.2013 -1.7857
   23CHL1    C9 1665   4.847   6.679   9.797  0.8212  0.4002  0.5599
   23CHL1    H9 1666   4.847   6.572   9.829  2.0423 -0.6531 -2.6297
   23CHL1   C10 1667   4.796   6.757   9.921 -0.1319  0.3233  0.4226
   23CHL1   C19 1668   4.761   6.900   9.880 -0.8890 -0.6097 -0.0995
   23CHL1  H19A 1669   4.666   6.907   9.823 -0.7094  0.1311 -0.3156
   23CHL1  H19B 1670   4.745   6.960   9.972  0.5203  0.7672 -0.6988
   23CHL1  H19C 1671   4.845   6.952   9.829 -1.0809  0.9137  1.0709
   23CHL1    C1 1672   4.674   6.688   9.986 -0.4318  0.3954 -0.2297
   23CHL1   H1A 1673   4.582   6.694   9.923 -2.0666  0.3646  2.0519
   23CHL1   H1B 1674   4.691   6.578   9.994 -1.4062  0.2501 -0.0068
   23CHL1    C2 1675   4.642   6.735  10.132 -0.1921  0.5644 -0.0766
   23CHL1   H2A 1676   4.566   6.666  10.176 -0.7103  0.6678 -0.8032
   23CHL1   H2B 1677   4.597   6.836  10.126  0.0996  0.7598  0.8270
   23CHL1   C20 1678   4.982   6.524   9.266  0.0773 -0.6103 -0.6611
   23CHL1   H20 1679   4.997   6.622   9.216 -3.2550  0.4790  0.2012
   23CHL1   C21 1680   4.835   6.496   9.237  0.0784  0.4253 -0.5253
   23CHL1  H21A 1681   4.807   6.399   9.283 -3.6982  2.3621  1.8053
   23CHL1  H21B 1682   4.805   6.509   9.131 -0.5453 -0.7446 -0.5049
   23CHL1  H21C 1683   4.778   6.575   9.291 -2.4735 -0.4717 -1.7373
   23CHL1   C22 1684   5.080   6.432   9.192  0.5655 -0.4220  0.0224
   23CHL1  H22A 1685   5.186   6.444   9.223  0.1552  1.1321  0.9193
   23CHL1  H22B 1686   5.066   6.327   9.228 -1.0118  0.0564  0.9305
   23CHL1   C23 1687   5.061   6.441   9.038  0.4827  0.0003  0.3181
   23CHL1  H23A 1688   4.957   6.409   9.014  0.6878 -1.7731  1.6192
   23CHL1  H23B 1689   5.087   6.546   9.014  0.3785 -0.3484 -1.4517
   23CHL1   C24 1690   5.168   6.361   8.955  0.4242  0.2867 -0.2303
   23CHL1  H24A 1691   5.271   6.401   8.971  0.0733  1.2714 -0.3566
   23CHL1  H24B 1692   5.161   6.260   9.001 -0.9912  0.0313 -0.9455
   23CHL1   C25 1693   5.142   6.331   8.807  0.7630  0.1695 -0.4614
   23CHL1   H25 1694   5.057   6.261   8.793  0.6881 -0.0472  0.9508
   23CHL1   C26 1695   5.114   6.451   8.720  0.4873 -0.8528 -0.2274
   23CHL1  H26A 1696   5.010   6.490   8.725  0.6414 -0.5639  0.9183
   23CHL1  H26B 1697   5.191   6.529   8.740  0.9191 -1.7321  1.7564
   23CHL1  H26C 1698   5.130   6.430   8.612 -2.6437 -3.4719 -0.3036
   23CHL1   C27 1699   5.269   6.262   8.755  0.0049  0.0156  0.3080
   23CHL1  H27A 1700   5.272   6.250   8.644  2.6363 -1.5701  0.4777
   23CHL1  H27B 1701   5.357   6.326   8.779  0.1118  0.8927 -2.1350
   23CHL1  H27C 1702   5.286   6.161   8.797 -0.0716 -0.6025 -1.0891
   24CHL1    C3 1703   1.760   4.941  10.091  0.1794 -0.1456  0.0933
   24CHL1    H3 1704   1.675   4.871  10.103  0.5460 -0.6115 -0.0168
   24CHL1    O3 1705   1.853   4.912  10.194  0.7780 -0.0146  0.2810
   24CHL1   H3' 1706   1.918   4.982  10.197  1.3299 -0.5211  0.4997
   24CHL1    C4 1707   1.844   4.908   9.963  0.4990  0.0434  0.7322
   24CHL1   H4A 1708   1.946   4.950   9.969 -0.3545  3.3522 -3.6711
   24CHL1   H4B 1709   1.865   4.799   9.957 -3.0134 -0.7710  0.9762
   24CHL1    C5 1710   1.779   4.961   9.839  0.3562  0.2048 -0.6981
   24CHL1    C6 1711   1.749   4.869   9.744  0.0967 -0.1590  0.6369
   24CHL1    H6 1712   1.792   4.769   9.757 -2.6475 -1.8359 -2.0146
   24CHL1    C7 1713   1.672   4.905   9.617  0.7827  0.5533 -0.3333
   24CHL1   H7A 1714   1.703   4.847   9.528 -1.7241 -1.3727 -0.0800
   24CHL1   H7B 1715   1.566   4.878   9.634  1.0020 -0.2844 -0.2266
   24CHL1    C8 1716   1.684   5.053   9.596 -0.3768  0.1237  0.1061
   24CHL1    H8 1717   1.791   5.076   9.575 -1.2458  3.9539 -0.7481
   24CHL1   C14 1718   1.599   5.097   9.478 -0.9341  0.2860  0.2820
   24CHL1   H14 1719   1.494   5.074   9.508 -0.2575 -1.9541  1.1817
   24CHL1   C15 1720   1.612   5.022   9.340 -0.3352 -0.0548 -0.4168
   24CHL1  H15A 1721   1.715   5.024   9.297 -1.1265 -0.0029 -2.4047
   24CHL1  H15B 1722   1.577   4.917   9.333 -0.8272  0.0822 -0.0202
   24CHL1   C16 1723   1.525   5.110   9.251 -1.0102 -0.1859  0.3045
   24CHL1  H16A 1724   1.575   5.129   9.154 -0.2426 -0.9325  0.5346
   24CHL1  H16B 1725   1.431   5.051   9.246 -0.2249 -1.8028  2.5983
   24CHL1   C17 1726   1.510   5.252   9.314 -0.0756 -0.0572 -0.9153
   24CHL1   H17 1727   1.410   5.253   9.364  0.6824  1.3617  0.6621
   24CHL1   C13 1728   1.602   5.243   9.440  0.4650  0.1679  0.0942
   24CHL1   C18 1729   1.743   5.292   9.403 -0.6592 -0.0293  0.1862
   24CHL1  H18A 1730   1.775   5.265   9.300 -0.8593  3.4624 -0.9207
   24CHL1  H18B 1731   1.753   5.402   9.392  0.3104 -0.0020  1.1840
   24CHL1  H18C 1732   1.823   5.255   9.471  0.5862 -0.8278 -1.6130
   24CHL1   C12 1733   1.548   5.320   9.567 -0.3127 -0.6744 -0.2445
   24CHL1  H12A 1734   1.552   5.431   9.555 -0.9215 -0.8887 -2.9514
   24CHL1  H12B 1735   1.440   5.296   9.566 -0.1551 -1.3967 -0.8463
   24CHL1   C11 1736   1.636   5.289   9.689  0.2947  0.6497  0.4208
   24CHL1  H11A 1737   1.736   5.329   9.663  0.1110  1.0226  0.2653
   24CHL1  H11B 1738   1.590   5.343   9.775 -2.4264  0.7794 -0.9972
   24CHL1    C9 1739   1.643   5.139   9.719 -0.2633 -0.4981 -0.0466
   24CHL1    H9 1740   1.540   5.101   9.740 -1.1265  2.0948  0.7051
   24CHL1   C10 1741   1.731   5.108   9.844  0.0800 -0.4848  0.4186
   24CHL1   C19 1742   1.858   5.197   9.843  0.1572  0.5487  0.3672
   24CHL1  H19A 1743   1.909   5.202   9.744  0.4759 -0.6794  0.4479
   24CHL1  H19B 1744   1.836   5.302   9.872  0.3145  0.3605  1.1881
   24CHL1  H19C 1745   1.939   5.165   9.911  1.7257 -0.0556 -1.6668
   24CHL1    C1 1746   1.652   5.133   9.963  0.0979 -0.7439  0.0911
   24CHL1   H1A 1747   1.641   5.243   9.970  2.1869 -0.5414  0.6203
   24CHL1   H1B 1748   1.552   5.084   9.963  0.1480 -0.8634  0.9400
   24CHL1    C2 1749   1.721   5.091  10.096 -0.3667  0.1349 -0.0827
   24CHL1   H2A 1750   1.645   5.111  10.174 -0.3795 -1.0582  0.2264
   24CHL1   H2B 1751   1.809   5.155  10.116 -0.8551  0.6465  0.4470
   24CHL1   C20 1752   1.528   5.381   9.233  0.1588 -0.1433  0.6365
   24CHL1   H20 1753   1.633   5.398   9.201  0.2578 -1.3175  0.3098
   24CHL1   C21 1754   1.472   5.508   9.301  0.2383 -0.7705  0.2079
   24CHL1  H21A 1755   1.373   5.482   9.346 -0.0342  0.0082  0.0604
   24CHL1  H21B 1756   1.463   5.601   9.241  0.4255  0.0020  1.3436
   24CHL1  H21C 1757   1.544   5.547   9.375  1.7090  1.6793 -2.3301
   24CHL1   C22 1758   1.450   5.374   9.101  0.5366 -0.2047 -0.5614
   24CHL1  H22A 1759   1.449   5.475   9.054  1.1523 -0.8805 -2.1099
   24CHL1  H22B 1760   1.487   5.302   9.025  3.3775 -1.6372  2.0052
   24CHL1   C23 1761   1.296   5.337   9.124  0.0222  0.5495  0.5234
   24CHL1  H23A 1762   1.290   5.240   9.179  1.4319  0.4543  0.5423
   24CHL1  H23B 1763   1.247   5.418   9.183 -1.0001 -0.2416  0.8053
   24CHL1   C24 1764   1.212   5.325   8.995  0.3653  0.0853  0.4393
   24CHL1  H24A 1765   1.104   5.314   9.017  0.1523  0.8181 -0.1690
   24CHL1  H24B 1766   1.229   5.419   8.937  0.8149 -0.8257 -0.9570
   24CHL1   C25 1767   1.241   5.211   8.901  0.1854  0.6744  0.4158
   24CHL1   H25 1768   1.350   5.208   8.879  0.3791 -0.4541  1.4681
   24CHL1   C26 1769   1.202   5.069   8.962  0.5308 -0.2691 -0.3692
   24CHL1  H26A 1770   1.205   4.991   8.883 -1.7284 -0.4566 -0.3533
   24CHL1  H26B 1771   1.268   5.038   9.046  0.9089  1.2051 -0.0974
   24CHL1  H26C 1772   1.094   5.075   8.989  0.7558  1.4275  0.2969
   24CHL1   C27 1773   1.176   5.228   8.761 -1.6130  0.4030  0.1508
   24CHL1  H27A 1774   1.214   5.326   8.727  0.7007 -0.4190  0.1987
   24CHL1  H27B 1775   1.213   5.146   8.695 -1.8972  1.0910 -0.8786
   24CHL1  H27C 1776   1.066   5.214   8.770 -1.6330 -0.7992 -1.3763
   25CHL1    C3 1777   3.733   4.839  10.224  0.0574  0.1090  0.0367
   25CHL1    H3 1778   3.840   4.842  10.196 -0.2858 -1.5975 -1.5591
   25CHL1    O3 1779   3.716   4.836  10.366 -0.2877  0.2712 -0.3007
   25CHL1   H3' 1780   3.770   4.766  10.404 -0.7426  0.6052  1.0073
   25CHL1    C4 1781   3.677   4.973  10.173  0.4825  0.0015  0.4684
   25CHL1   H4A 1782   3.577   4.993  10.217  0.3686 -1.2665  0.8246
   25CHL1   H4B 1783   3.738   5.062  10.198 -1.6168  2.0106 -1.0830
   25CHL1    C5 1784   3.668   4.963  10.023 -0.6096 -0.1909  0.5077
   25CHL1    C6 1785   3.745   5.047   9.948  0.4622  0.0387 -0.1022
   25CHL1    H6 1786   3.809   5.115  10.006  2.3720 -1.3358 -0.4901
   25CHL1    C7 1787   3.742   5.051   9.800  0.0514 -0.7850  0.4668
   25CHL1   H7A 1788   3.718   5.156   9.773  2.3853 -0.5492 -0.9786
   25CHL1   H7B 1789   3.837   5.034   9.744  0.8351  4.8840 -0.5345
   25CHL1    C8 1790   3.620   4.976   9.732 -0.2792  0.2483  0.5653
   25CHL1    H8 1791   3.534   5.046   9.738 -2.8965 -2.3935 -2.7022
   25CHL1   C14 1792   3.641   4.956   9.585 -0.3648 -0.3859 -0.4530
   25CHL1   H14 1793   3.728   4.888   9.570 -0.3613 -0.0855 -1.9671
   25CHL1   C15 1794   3.678   5.079   9.500 -0.2552 -0.2728  0.0364
   25CHL1  H15A 1795   3.617   5.165   9.534 -0.0508 -0.1632  0.1323
   25CHL1  H15B 1796   3.786   5.106   9.507  0.0000 -1.0830 -0.5443
   25CHL1   C16 1797   3.653   5.034   9.352 -0.7019  0.1866  0.1138
   25CHL1  H16A 1798   3.600   5.110   9.291 -0.0556 -0.9536 -1.9578
   25CHL1  H16B 1799   3.752   5.016   9.306  0.2922  1.5906  1.5924
   25CHL1   C17 1800   3.579   4.899   9.361  0.3776  0.0542  0.0406
   25CHL1   H17 1801   3.655   4.819   9.348 -0.3515 -1.1119  2.2733
   25CHL1   C13 1802   3.534   4.886   9.506  1.3511 -0.6424 -0.8126
   25CHL1   C18 1803   3.398   4.959   9.518  0.1279 -0.1444  0.0170
   25CHL1  H18A 1804   3.307   4.902   9.487 -0.6784 -0.3473  2.5638
   25CHL1  H18B 1805   3.368   5.006   9.614 -0.0349 -0.5485  0.1655
   25CHL1  H18C 1806   3.384   5.038   9.442 -0.1126  1.0093  1.2320
   25CHL1   C12 1807   3.513   4.746   9.573 -0.3538 -0.0549  0.3157
   25CHL1  H12A 1808   3.424   4.690   9.539 -0.6747  1.4422 -1.4904
   25CHL1  H12B 1809   3.603   4.685   9.552  0.2270  0.2571  1.7479
   25CHL1   C11 1810   3.488   4.765   9.723  0.1210  0.2381 -0.1024
   25CHL1  H11A 1811   3.395   4.823   9.744  0.6715  1.1006  0.0173
   25CHL1  H11B 1812   3.481   4.665   9.770 -0.9340  0.0878 -0.5460
   25CHL1    C9 1813   3.601   4.838   9.798  0.3331 -0.4061  0.6398
   25CHL1    H9 1814   3.700   4.791   9.783  0.7819  0.5160  0.6049
   25CHL1   C10 1815   3.583   4.853   9.957  0.2660  0.0715  0.1546
   25CHL1   C19 1816   3.436   4.895   9.990  0.5472  0.4347  0.2409
   25CHL1  H19A 1817   3.403   4.987   9.937  0.5527  1.0948  1.3501
   25CHL1  H19B 1818   3.361   4.828   9.944  2.7635 -2.5767  0.7198
   25CHL1  H19C 1819   3.411   4.895  10.098  2.0285 -2.1339  0.6611
   25CHL1    C1 1820   3.624   4.723  10.024 -0.6447 -0.2339  0.9225
   25CHL1   H1A 1821   3.556   4.642   9.991 -1.7608  0.9271  0.2984
   25CHL1   H1B 1822   3.721   4.696   9.977  0.7614  1.8386  2.4079
   25CHL1    C2 1823   3.655   4.720  10.171  0.6230  0.7762  0.0581
   25CHL1   H2A 1824   3.702   4.622  10.197  0.4301  0.3135 -1.2512
   25CHL1   H2B 1825   3.554   4.715  10.217  0.6821  1.6496  0.2861
   25CHL1   C20 1826   3.487   4.864   9.246  0.2023 -0.7629  0.5552
   25CHL1   H20 1827   3.401   4.932   9.260  1.1430  0.4705  0.5602
   25CHL1   C21 1828   3.441   4.724   9.250 -0.0268 -0.2865 -0.3544
   25CHL1  H21A 1829   3.366   4.699   9.172  0.4037 -0.5167 -0.6988
   25CHL1  H21B 1830   3.397   4.698   9.349 -3.8692 -0.6901 -1.9730
   25CHL1  H21C 1831   3.529   4.657   9.240 -0.7786 -1.2422 -0.7456
   25CHL1   C22 1832   3.553   4.890   9.115 -0.3760 -0.2251 -0.0243
   25CHL1  H22A 1833   3.581   4.997   9.103  0.5236 -0.5386 -0.8348
   25CHL1  H22B 1834   3.646   4.831   9.100 -0.0116 -0.1715  1.7758
   25CHL1   C23 1835   3.456   4.864   8.995  0.6548 -0.5891  0.0107
   25CHL1  H23A 1836   3.442   4.754   8.984  0.1059 -0.3035 -2.9471
   25CHL1  H23B 1837   3.361   4.913   9.026  0.7694  0.9812 -1.8987
   25CHL1   C24 1838   3.502   4.911   8.859  0.3496 -0.2845 -0.0682
   25CHL1  H24A 1839   3.543   5.015   8.861 -0.0421 -0.1351  0.6013
   25CHL1  H24B 1840   3.582   4.837   8.838  2.2048  1.5717  0.1449
   25CHL1   C25 1841   3.402   4.913   8.741 -0.3242 -0.2342  0.4110
   25CHL1   H25 1842   3.322   4.989   8.755 -0.9908 -0.4631 -1.6853
   25CHL1   C26 1843   3.464   4.955   8.607  0.3907 -0.9531  0.3680
   25CHL1  H26A 1844   3.390   4.930   8.529  0.8295 -1.7381  0.2009
   25CHL1  H26B 1845   3.500   5.060   8.614  2.4089 -1.6277  0.7928
   25CHL1  H26C 1846   3.550   4.887   8.590  1.2847  0.4053 -0.6880
   25CHL1   C27 1847   3.346   4.774   8.726 -0.4331 -0.0665  0.3103
   25CHL1  H27A 1848   3.438   4.712   8.719  0.4303  1.0509  1.2984
   25CHL1  H27B 1849   3.284   4.734   8.809  0.2158 -2.1111 -0.1344
   25CHL1  H27C 1850   3.287   4.762   8.633 -0.1864 -1.5697  0.3172
   26CHL1    C3 1851   2.324   2.991  10.234  0.6368  0.0477 -0.2826
   26CHL1    H3 1852   2.240   2.923  10.259 -1.5354  1.8592 -2.1837
   26CHL1    O3 1853   2.384   3.047  10.353 -0.0404  0.3556 -0.2817
   26CHL1   H3' 1854   2.407   3.137  10.327  2.0223  0.3730  1.3732
   26CHL1    C4 1855   2.443   2.927  10.151  0.3033 -0.3572 -1.0303
   26CHL1   H4A 1856   2.531   2.996  10.154 -0.4718  0.7388 -2.2795
   26CHL1   H4B 1857   2.461   2.837  10.214  0.8209 -0.0406 -0.7131
   26CHL1    C5 1858   2.405   2.892  10.010 -0.0025 -0.0160 -0.2847
   26CHL1    C6 1859   2.425   2.770   9.961  0.5469  0.0978 -0.5429
   26CHL1    H6 1860   2.471   2.696  10.027  0.8591  1.7645  1.2168
   26CHL1    C7 1861   2.398   2.723   9.823  0.4257 -0.0608  0.5343
   26CHL1   H7A 1862   2.477   2.661   9.775 -2.1159 -1.0617 -2.7391
   26CHL1   H7B 1863   2.301   2.668   9.826  0.3168  0.0119 -0.9308
   26CHL1    C8 1864   2.379   2.845   9.726 -0.4214 -0.4214 -0.1218
   26CHL1    H8 1865   2.481   2.878   9.698 -0.6980  0.1813 -0.4389
   26CHL1   C14 1866   2.303   2.792   9.610  0.3943  0.1543 -0.1439
   26CHL1   H14 1867   2.201   2.762   9.644 -0.6995  0.5038 -2.8648
   26CHL1   C15 1868   2.361   2.673   9.536  0.1632 -0.0765  0.3005
   26CHL1  H15A 1869   2.472   2.679   9.539  0.1787  1.9720 -1.8110
   26CHL1  H15B 1870   2.337   2.575   9.583  0.5565 -0.7144 -0.7839
   26CHL1   C16 1871   2.286   2.678   9.399 -0.5434 -0.4960  0.3167
   26CHL1  H16A 1872   2.366   2.659   9.324 -0.0537 -0.8411  0.9129
   26CHL1  H16B 1873   2.228   2.584   9.385 -0.8304 -0.3477  0.4988
   26CHL1   C17 1874   2.203   2.810   9.393  0.0455 -0.3845 -0.2027
   26CHL1   H17 1875   2.107   2.788   9.443  1.1911 -0.5153  2.0759
   26CHL1   C13 1876   2.276   2.900   9.495 -0.1555  0.2763  0.4169
   26CHL1   C18 1877   2.407   2.949   9.424  0.0107  0.6006 -0.0409
   26CHL1  H18A 1878   2.389   3.037   9.359  0.1480  0.0938 -0.7836
   26CHL1  H18B 1879   2.480   2.981   9.500  0.7872  1.8432 -1.2580
   26CHL1  H18C 1880   2.460   2.869   9.368  1.3175  1.8998 -0.7271
   26CHL1   C12 1881   2.194   3.022   9.552  0.0601 -0.4358 -0.7500
   26CHL1  H12A 1882   2.197   3.104   9.477  2.1556 -1.1173 -1.4774
   26CHL1  H12B 1883   2.087   2.996   9.571  0.2134  0.5760  1.8098
   26CHL1   C11 1884   2.264   3.071   9.682 -0.3443  0.2325 -0.0162
   26CHL1  H11A 1885   2.360   3.119   9.653  0.7394  1.0200  4.1734
   26CHL1  H11B 1886   2.206   3.147   9.738 -0.6513 -0.2198  0.2846
   26CHL1    C9 1887   2.303   2.959   9.785  0.3848 -0.3130 -0.0171
   26CHL1    H9 1888   2.203   2.914   9.802 -0.4911  0.7386 -2.0534
   26CHL1   C10 1889   2.347   3.006   9.926 -0.0955  0.0375 -0.0510
   26CHL1   C19 1890   2.469   3.101   9.900 -0.2459 -0.1369  1.2582
   26CHL1  H19A 1891   2.440   3.193   9.845 -1.6371 -1.0983  0.3080
   26CHL1  H19B 1892   2.507   3.137   9.998  0.3610  1.0493  0.6112
   26CHL1  H19C 1893   2.550   3.037   9.857  0.8911  1.0376  1.5717
   26CHL1    C1 1894   2.237   3.073   9.998  0.3707  0.1455 -0.1568
   26CHL1   H1A 1895   2.204   3.160   9.938  0.9786 -0.5005 -1.4611
   26CHL1   H1B 1896   2.151   3.003  10.005  1.2585 -0.8405  2.6231
   26CHL1    C2 1897   2.272   3.112  10.149 -0.1416 -0.2745  0.5589
   26CHL1   H2A 1898   2.186   3.156  10.204  0.3189 -0.7341  1.6641
   26CHL1   H2B 1899   2.346   3.195  10.140 -0.9229  0.2404 -1.8444
   26CHL1   C20 1900   2.160   2.854   9.251  0.1446 -0.0937  0.1714
   26CHL1   H20 1901   2.250   2.899   9.204  0.6404 -1.6961 -0.4839
   26CHL1   C21 1902   2.057   2.974   9.257 -0.7935  0.2699 -0.2379
   26CHL1  H21A 1903   1.970   2.957   9.324 -0.3058  1.2134  0.6665
   26CHL1  H21B 1904   2.022   3.005   9.156 -2.8779  0.1116  0.3891
   26CHL1  H21C 1905   2.121   3.056   9.296  0.7183 -1.9073  2.1676
   26CHL1   C22 1906   2.108   2.743   9.158 -0.2020  0.3183  0.3920
   26CHL1  H22A 1907   2.183   2.662   9.150  2.8047  2.8636  0.9939
   26CHL1  H22B 1908   2.017   2.706   9.210 -0.3775  0.0629 -0.0911
   26CHL1   C23 1909   2.088   2.786   9.007 -0.0968 -0.6006  0.5005
   26CHL1  H23A 1910   2.020   2.873   9.001  1.8108  0.8833 -1.2691
   26CHL1  H23B 1911   2.188   2.822   8.972  0.7365 -2.9651  0.2850
   26CHL1   C24 1912   2.024   2.684   8.911 -0.2142 -1.0794  0.2687
   26CHL1  H24A 1913   2.064   2.582   8.927  0.0253 -0.8548  1.1960
   26CHL1  H24B 1914   1.915   2.681   8.933 -0.3669  2.0989  0.5006
   26CHL1   C25 1915   2.032   2.737   8.764 -0.2101  0.1590  0.2198
   26CHL1   H25 1916   1.957   2.676   8.710 -0.4588  1.1105 -0.5526
   26CHL1   C26 1917   1.983   2.890   8.759 -1.1828  0.6027 -0.1200
   26CHL1  H26A 1918   2.066   2.949   8.802  0.2863 -0.5003 -1.3312
   26CHL1  H26B 1919   1.973   2.930   8.656 -2.3578 -0.2604 -0.3551
   26CHL1  H26C 1920   1.885   2.905   8.809 -1.6336 -1.1067 -0.4377
   26CHL1   C27 1921   2.181   2.729   8.701  0.3592  0.4592 -0.0805
   26CHL1  H27A 1922   2.189   2.773   8.599 -0.5707 -0.2850 -0.4930
   26CHL1  H27B 1923   2.254   2.776   8.771  2.6266 -2.2055 -0.4704
   26CHL1  H27C 1924   2.211   2.622   8.699 -1.3741 -0.2255  3.2927
   27CHL1    C3 1925   4.049   3.969  10.124  0.3615 -0.9256 -0.1606
   27CHL1    H3 1926   3.977   3.891  10.090  1.0435 -1.3807 -0.6081
   27CHL1    O3 1927   4.061   3.969  10.267 -0.1197  0.3510  0.0143
   27CHL1   H3' 1928   4.128   4.032  10.294  0.4680 -1.2209  2.5872
   27CHL1    C4 1929   4.181   3.935  10.067  0.3273  0.2727  0.2067
   27CHL1   H4A 1930   4.265   3.998  10.105  0.0426 -0.0104  1.3539
   27CHL1   H4B 1931   4.204   3.833  10.105  0.6492  0.5339  0.7340
   27CHL1    C5 1932   4.168   3.936   9.911  0.7166  0.0168  0.5443
   27CHL1    C6 1933   4.200   3.828   9.834  0.2423  0.0053  0.3753
   27CHL1    H6 1934   4.243   3.741   9.886  1.1438 -0.4362 -1.0482
   27CHL1    C7 1935   4.211   3.822   9.685 -0.0595  0.2441  0.0290
   27CHL1   H7A 1936   4.305   3.767   9.661 -0.0731  1.5472 -3.7923
   27CHL1   H7B 1937   4.126   3.769   9.638  0.8367 -1.7323  0.5474
   27CHL1    C8 1938   4.209   3.975   9.628 -0.7062  0.2633  0.6460
   27CHL1    H8 1939   4.309   4.010   9.660 -0.0981  1.2984 -2.1059
   27CHL1   C14 1940   4.192   3.976   9.476 -0.9485  0.1231 -0.4309
   27CHL1   H14 1941   4.096   3.928   9.449  0.2907 -1.5930 -2.0802
   27CHL1   C15 1942   4.293   3.893   9.392  0.3889 -0.6654  0.1817
   27CHL1  H15A 1943   4.397   3.924   9.416  0.7677 -0.8406 -1.1600
   27CHL1  H15B 1944   4.296   3.785   9.417  0.8902 -0.8418 -0.5914
   27CHL1   C16 1945   4.267   3.940   9.250  0.1327 -1.0600 -0.1693
   27CHL1  H16A 1946   4.361   3.948   9.192  0.0171  2.4867 -0.0446
   27CHL1  H16B 1947   4.195   3.871   9.199 -0.7198 -0.5686  0.3384
   27CHL1   C17 1948   4.184   4.075   9.261 -0.6987 -0.3789 -0.2764
   27CHL1   H17 1949   4.077   4.052   9.240 -0.7712 -1.6446  1.2576
   27CHL1   C13 1950   4.190   4.119   9.414 -0.3492 -0.1104 -0.4987
   27CHL1   C18 1951   4.325   4.190   9.444  0.2641 -0.3475 -0.3377
   27CHL1  H18A 1952   4.321   4.299   9.421  0.2384 -0.6329 -1.7950
   27CHL1  H18B 1953   4.349   4.191   9.552 -0.8299 -0.2299 -0.0870
   27CHL1  H18C 1954   4.408   4.149   9.383  1.6610 -1.1792  2.0007
   27CHL1   C12 1955   4.067   4.193   9.471  0.0025  0.1463  0.1491
   27CHL1  H12A 1956   4.030   4.289   9.430 -0.7755 -0.9359 -1.8084
   27CHL1  H12B 1957   3.974   4.133   9.458  0.2431 -0.3809  0.7911
   27CHL1   C11 1958   4.083   4.197   9.625  1.0349 -0.8429 -0.1962
   27CHL1  H11A 1959   4.161   4.271   9.654 -0.5868  0.7944  0.1640
   27CHL1  H11B 1960   3.992   4.243   9.667 -0.3429 -3.0752 -0.5514
   27CHL1    C9 1961   4.105   4.059   9.702  1.0522  0.4206 -0.1310
   27CHL1    H9 1962   4.002   4.018   9.688  1.6926 -0.5882 -2.3786
   27CHL1   C10 1963   4.117   4.075   9.856  0.9535  0.1400 -0.0210
   27CHL1   C19 1964   4.207   4.189   9.894 -0.1708 -0.8056 -0.0782
   27CHL1  H19A 1965   4.170   4.281   9.845 -0.8239 -1.1298 -0.2020
   27CHL1  H19B 1966   4.226   4.202  10.003  1.0571  3.4100 -0.6219
   27CHL1  H19C 1967   4.300   4.176   9.835 -0.9392 -1.2523 -1.2166
   27CHL1    C1 1968   3.979   4.106   9.925 -0.8065 -0.7127  0.7352
   27CHL1   H1A 1969   3.931   4.198   9.887  0.6476 -0.0721  0.3926
   27CHL1   H1B 1970   3.910   4.020   9.910 -2.3486  0.3479  1.4552
   27CHL1    C2 1971   4.000   4.113  10.080 -0.0215  0.1098 -0.1466
   27CHL1   H2A 1972   3.903   4.135  10.131  0.0924  2.9572 -0.9571
   27CHL1   H2B 1973   4.065   4.197  10.114 -0.2161  0.9871 -1.8423
   27CHL1   C20 1974   4.231   4.180   9.160 -0.4168  0.4559  0.2419
   27CHL1   H20 1975   4.339   4.197   9.178  0.0031  0.1818 -1.8838
   27CHL1   C21 1976   4.144   4.310   9.171  0.6877 -0.5756 -0.4481
   27CHL1  H21A 1977   4.176   4.389   9.099  1.5242 -0.8458 -0.3864
   27CHL1  H21B 1978   4.162   4.356   9.270 -2.3958 -4.7416  2.3763
   27CHL1  H21C 1979   4.036   4.288   9.163  0.5096  0.7234 -2.2520
   27CHL1   C22 1980   4.237   4.134   9.012  0.0888 -0.0852 -0.3262
   27CHL1  H22A 1981   4.292   4.208   8.950  0.9866 -0.1919  0.3375
   27CHL1  H22B 1982   4.291   4.037   9.003  0.7457  0.1480  1.0057
   27CHL1   C23 1983   4.100   4.112   8.947  0.0366  0.5350 -0.0431
   27CHL1  H23A 1984   4.061   4.021   8.998  1.1902 -0.6888 -1.2651
   27CHL1  H23B 1985   4.031   4.199   8.955  1.4124  1.6307  0.1927
   27CHL1   C24 1986   4.110   4.079   8.796  0.3964 -0.0632 -0.1876
   27CHL1  H24A 1987   4.120   4.180   8.750  1.6560 -1.1146 -2.4035
   27CHL1  H24B 1988   4.204   4.023   8.777  0.2579 -0.8593  1.3314
   27CHL1   C25 1989   3.991   3.997   8.737  0.2974  0.1987  0.2955
   27CHL1   H25 1990   3.894   4.036   8.775  0.9772  2.0967  0.2173
   27CHL1   C26 1991   3.978   4.000   8.579  0.6051 -0.1762 -0.3790
   27CHL1  H26A 1992   4.071   3.961   8.532  0.9834  1.4572 -1.0495
   27CHL1  H26B 1993   3.895   3.934   8.547  0.3805  0.0914 -0.3498
   27CHL1  H26C 1994   3.961   4.099   8.532  0.6373  0.4576  0.9007
   27CHL1   C27 1995   4.002   3.851   8.780  0.1591 -0.5387  0.2216
   27CHL1  H27A 1996   4.087   3.804   8.726  1.6909  1.0955  1.1171
   27CHL1  H27B 1997   4.017   3.855   8.890 -2.6241  1.6685  0.6366
   27CHL1  H27C 1998   3.914   3.789   8.753 -0.0324 -0.3677  0.4486
   28CHL1    C3 1999   3.722   0.506   9.865 -0.0723 -0.1359  0.2175
   28CHL1    H3 2000   3.810   0.438   9.859  0.6821  0.8106  0.3741
   28CHL1    O3 2001   3.679   0.517   9.997  0.5630 -0.0972  0.1505
   28CHL1   H3' 2002   3.750   0.559  10.045  1.9409 -1.3196 -0.7183
   28CHL1    C4 2003   3.752   0.644   9.807 -0.3674 -0.0484 -0.4523
   28CHL1   H4A 2004   3.663   0.710   9.815 -0.0870  0.3585 -0.6702
   28CHL1   H4B 2005   3.829   0.688   9.873 -0.6729  1.3998 -1.0228
   28CHL1    C5 2006   3.794   0.638   9.666  0.0125 -0.0299  0.6043
   28CHL1    C6 2007   3.907   0.699   9.617 -0.4837 -0.0812 -0.5338
   28CHL1    H6 2008   3.968   0.757   9.687 -0.1080  2.1703 -2.5867
   28CHL1    C7 2009   3.950   0.693   9.470 -0.4519  0.0655 -0.7795
   28CHL1   H7A 2010   3.987   0.787   9.425  0.4284 -0.6478 -1.5990
   28CHL1   H7B 2011   4.018   0.605   9.464  1.9329  1.6526  1.2777
   28CHL1    C8 2012   3.827   0.651   9.380  0.6039  0.0571  0.5999
   28CHL1    H8 2013   3.756   0.736   9.370 -1.7439 -1.7136  1.2153
   28CHL1   C14 2014   3.874   0.614   9.238 -0.3295  0.8382  0.0306
   28CHL1   H14 2015   3.935   0.523   9.258  0.4959  1.3254 -0.1795
   28CHL1   C15 2016   3.964   0.716   9.176  0.4118 -0.4997  0.6735
   28CHL1  H15A 2017   3.921   0.819   9.182  0.7448 -0.3047 -0.1020
   28CHL1  H15B 2018   4.066   0.724   9.218  0.7776 -0.0624 -0.2690
   28CHL1   C16 2019   3.968   0.669   9.030  0.5016  0.2208  0.0671
   28CHL1  H16A 2020   3.924   0.757   8.978 -2.0486  0.0497  1.7292
   28CHL1  H16B 2021   4.061   0.623   8.990 -0.1851  1.3643 -3.1454
   28CHL1   C17 2022   3.854   0.563   9.016  0.0517  0.5510 -0.0874
   28CHL1   H17 2023   3.904   0.464   9.015  0.3331  0.6945 -1.2974
   28CHL1   C13 2024   3.768   0.577   9.139  0.4005  0.7801 -1.0688
   28CHL1   C18 2025   3.669   0.692   9.112 -0.5065 -0.2851 -0.4175
   28CHL1  H18A 2026   3.630   0.733   9.208 -1.8655 -0.2991 -0.9451
   28CHL1  H18B 2027   3.731   0.776   9.074  0.1069 -0.9914 -0.9964
   28CHL1  H18C 2028   3.591   0.666   9.038 -1.3738 -3.8863  1.5215
   28CHL1   C12 2029   3.692   0.452   9.195 -0.9162  0.0525  0.5556
   28CHL1  H12A 2030   3.605   0.428   9.130 -0.8704  2.0802 -0.3374
   28CHL1  H12B 2031   3.758   0.363   9.191 -0.0752  0.6309  1.0648
   28CHL1   C11 2032   3.644   0.469   9.340 -0.3849  0.0976  0.2910
   28CHL1  H11A 2033   3.545   0.515   9.320 -1.8823 -3.8005 -2.6917
   28CHL1  H11B 2034   3.624   0.369   9.384 -1.1870 -0.4210 -1.1450
   28CHL1    C9 2035   3.747   0.533   9.438 -0.3037  0.0728 -0.2865
   28CHL1    H9 2036   3.825   0.455   9.450 -0.1234  0.4713  1.3835
   28CHL1   C10 2037   3.693   0.569   9.582 -0.1937  0.7380 -0.1104
   28CHL1   C19 2038   3.559   0.649   9.556 -0.2044  0.0926 -0.2674
   28CHL1  H19A 2039   3.515   0.677   9.654 -0.0748 -0.6548  0.0117
   28CHL1  H19B 2040   3.583   0.743   9.502 -0.5469 -0.4690 -1.4404
   28CHL1  H19C 2041   3.481   0.586   9.507 -0.6950  0.2026  0.3550
   28CHL1    C1 2042   3.651   0.433   9.641  0.5006 -0.4965 -0.0155
   28CHL1   H1A 2043   3.563   0.392   9.587 -1.9081  0.8669  2.5891
   28CHL1   H1B 2044   3.738   0.363   9.632  0.8715 -0.2426  1.3587
   28CHL1    C2 2045   3.605   0.451   9.788  0.0300  0.2862  0.3625
   28CHL1   H2A 2046   3.577   0.352   9.831 -1.8971  0.9917  0.8563
   28CHL1   H2B 2047   3.512   0.511   9.798  0.8537  1.9048 -1.2098
   28CHL1   C20 2048   3.784   0.556   8.883  0.2814  0.7026 -0.3241
   28CHL1   H20 2049   3.745   0.650   8.839  1.4021  1.3478  0.0166
   28CHL1   C21 2050   3.664   0.451   8.877  0.3344 -0.3903  0.2305
   28CHL1  H21A 2051   3.629   0.461   8.772 -1.5575 -0.3808  0.8199
   28CHL1  H21B 2052   3.573   0.475   8.936  1.1507 -1.0022  1.8057
   28CHL1  H21C 2053   3.710   0.351   8.889 -0.9945 -0.8555  1.8692
   28CHL1   C22 2054   3.888   0.504   8.771  0.2849 -0.0662 -0.2484
   28CHL1  H22A 2055   3.963   0.585   8.759 -0.1882  0.6511  1.2691
   28CHL1  H22B 2056   3.930   0.404   8.795 -1.1114 -0.9946 -1.4897
   28CHL1   C23 2057   3.826   0.501   8.628  0.3896  0.5089 -0.6316
   28CHL1  H23A 2058   3.770   0.405   8.618 -0.2886  0.7010  0.9991
   28CHL1  H23B 2059   3.774   0.599   8.622  0.4276  0.4763 -1.6455
   28CHL1   C24 2060   3.932   0.509   8.516  0.2872  0.0339  0.8603
   28CHL1  H24A 2061   4.007   0.589   8.534  1.2832 -1.0995  2.0213
   28CHL1  H24B 2062   3.985   0.411   8.518  1.3456  0.5912  0.9616
   28CHL1   C25 2063   3.874   0.533   8.371  0.3745  0.2776  0.1575
   28CHL1   H25 2064   3.962   0.536   8.303  0.4690  0.4805  0.2872
   28CHL1   C26 2065   3.787   0.411   8.337  0.7261  0.1249  0.4846
   28CHL1  H26A 2066   3.745   0.415   8.235 -0.0408 -3.7211  0.4965
   28CHL1  H26B 2067   3.857   0.325   8.334  2.5181  1.4212  2.2288
   28CHL1  H26C 2068   3.701   0.401   8.407  0.1213  0.3873 -0.2134
   28CHL1   C27 2069   3.789   0.655   8.362  0.2801  0.1063  0.2103
   28CHL1  H27A 2070   3.840   0.739   8.413  0.4903 -0.5775  1.1696
   28CHL1  H27B 2071   3.776   0.674   8.253  1.2736 -1.6440 -0.2536
   28CHL1  H27C 2072   3.692   0.633   8.411 -0.4485  0.8643 -0.8503
   29CHL1    C3 2073   4.810   0.463   6.659 -0.2047  0.1322 -0.3735
   29CHL1    H3 2074   4.906   0.441   6.710 -0.5026  0.6883  0.4419
   29CHL1    O3 2075   4.827   0.465   6.522  0.0887 -0.0842  0.1167
   29CHL1   H3' 2076   4.922   0.476   6.511  0.2406 -0.2067  1.2037
   29CHL1    C4 2077   4.712   0.357   6.704  0.0124 -0.1614 -0.4720
   29CHL1   H4A 2078   4.613   0.373   6.657 -0.0468 -0.2849 -0.3895
   29CHL1   H4B 2079   4.747   0.259   6.666  1.0405  0.4407 -1.1305
   29CHL1    C5 2080   4.695   0.362   6.857 -0.4309 -0.5178  0.2326
   29CHL1    C6 2081   4.720   0.253   6.929 -0.4787  0.0775  0.7631
   29CHL1    H6 2082   4.743   0.157   6.881 -1.4112  0.0535  0.3526
   29CHL1    C7 2083   4.705   0.243   7.074  0.4591 -0.5909  0.1787
   29CHL1   H7A 2084   4.650   0.148   7.094  0.3105 -0.5714 -0.1314
   29CHL1   H7B 2085   4.806   0.240   7.121  0.7141 -1.2722 -0.4000
   29CHL1    C8 2086   4.634   0.365   7.140  0.1689 -0.3479  0.5096
   29CHL1    H8 2087   4.524   0.359   7.121  0.5005 -0.5397 -1.5429
   29CHL1   C14 2088   4.658   0.372   7.291 -0.6945  0.2765 -0.4674
   29CHL1   H14 2089   4.767   0.379   7.309 -0.7614 -1.4436  0.8246
   29CHL1   C15 2090   4.627   0.245   7.373  0.4944  0.4938  0.5101
   29CHL1  H15A 2091   4.524   0.208   7.358  0.5461  0.8246 -0.7210
   29CHL1  H15B 2092   4.707   0.168   7.363 -0.8863 -0.7465 -2.0121
   29CHL1   C16 2093   4.621   0.291   7.516 -0.5445  0.1712 -0.7275
   29CHL1  H16A 2094   4.521   0.267   7.557 -0.6556 -0.0955 -1.1456
   29CHL1  H16B 2095   4.693   0.226   7.571 -0.5352 -1.1179 -2.1891
   29CHL1   C17 2096   4.653   0.440   7.515  0.5299  0.2772 -0.7585
   29CHL1   H17 2097   4.763   0.454   7.509  0.5231  1.0836  0.5428
   29CHL1   C13 2098   4.609   0.489   7.368  0.3564 -0.0923  0.1040
   29CHL1   C18 2099   4.449   0.498   7.365 -0.3761 -0.2285  0.6331
   29CHL1  H18A 2100   4.413   0.581   7.429  1.4451 -1.6797  3.7591
   29CHL1  H18B 2101   4.407   0.508   7.262 -1.2449  0.2870  1.0247
   29CHL1  H18C 2102   4.416   0.401   7.407  1.2972 -1.1851 -0.1634
   29CHL1   C12 2103   4.675   0.610   7.303 -0.2133 -0.0298  0.0030
   29CHL1  H12A 2104   4.643   0.701   7.359  0.9050 -0.5538  1.5693
   29CHL1  H12B 2105   4.785   0.605   7.314 -0.2295 -2.0520 -0.4539
   29CHL1   C11 2106   4.637   0.622   7.151 -0.7995  0.2015  0.5102
   29CHL1  H11A 2107   4.527   0.636   7.145 -0.6098  1.2580 -0.9883
   29CHL1  H11B 2108   4.693   0.709   7.112 -0.6810 -0.4733 -0.8967
   29CHL1    C9 2109   4.680   0.496   7.074  0.2147 -0.3755  0.4946
   29CHL1    H9 2110   4.790   0.488   7.091  0.0170 -0.7587  1.6445
   29CHL1   C10 2111   4.657   0.498   6.915  0.3296  0.7043  0.2582
   29CHL1   C19 2112   4.509   0.529   6.888 -0.5438  0.6427 -0.4353
   29CHL1  H19A 2113   4.489   0.625   6.941 -0.7148  0.3636  0.0126
   29CHL1  H19B 2114   4.496   0.533   6.778  1.4568 -0.0933 -0.7421
   29CHL1  H19C 2115   4.436   0.459   6.933 -0.7619  0.0255 -1.7081
   29CHL1    C1 2116   4.751   0.607   6.857  0.0147 -0.2021 -0.3851
   29CHL1   H1A 2117   4.709   0.708   6.876 -1.4944 -0.8509 -0.1122
   29CHL1   H1B 2118   4.844   0.606   6.917  2.1602 -1.8139 -3.4805
   29CHL1    C2 2119   4.774   0.601   6.705 -0.3840 -0.2430 -0.0602
   29CHL1   H2A 2120   4.845   0.676   6.663 -1.6206 -1.1026 -4.1127
   29CHL1   H2B 2121   4.681   0.629   6.652  0.0772  0.0154 -0.7630
   29CHL1   C20 2122   4.588   0.513   7.639  0.2272  0.3402  0.4859
   29CHL1   H20 2123   4.480   0.486   7.641  0.9909 -3.3518  3.1407
   29CHL1   C21 2124   4.587   0.667   7.630 -0.1879  0.0835 -0.0767
   29CHL1  H21A 2125   4.535   0.708   7.541  1.5148  2.8044  0.0778
   29CHL1  H21B 2126   4.685   0.719   7.641 -1.4886  2.6400  0.2839
   29CHL1  H21C 2127   4.528   0.694   7.720  0.2202 -1.4958  0.6897
   29CHL1   C22 2128   4.634   0.453   7.777 -0.0070  0.1614 -0.0169
   29CHL1  H22A 2129   4.639   0.342   7.767  1.9546  0.2441 -0.3490
   29CHL1  H22B 2130   4.742   0.478   7.788 -0.3512  1.4741  0.4749
   29CHL1   C23 2131   4.554   0.498   7.902 -0.1012  0.4028  0.1720
   29CHL1  H23A 2132   4.594   0.437   7.985 -1.2937 -1.1235 -0.3220
   29CHL1  H23B 2133   4.581   0.602   7.932  0.2191  1.4447 -3.2745
   29CHL1   C24 2134   4.407   0.456   7.890 -0.2078  0.1734  0.5311
   29CHL1  H24A 2135   4.354   0.520   7.816 -0.1051 -1.8785 -1.4251
   29CHL1  H24B 2136   4.407   0.352   7.851 -1.0331  0.5318 -0.4987
   29CHL1   C25 2137   4.309   0.470   8.015  0.5709  0.3200 -0.1637
   29CHL1   H25 2138   4.362   0.465   8.112  0.0055 -1.1194  0.0864
   29CHL1   C26 2139   4.232   0.613   8.005 -0.0317 -0.4041 -0.4567
   29CHL1  H26A 2140   4.319   0.682   7.991 -0.0074 -0.3709 -0.1417
   29CHL1  H26B 2141   4.169   0.606   7.914 -0.0135 -1.3800 -0.4015
   29CHL1  H26C 2142   4.172   0.644   8.093 -2.1861  0.2507 -2.0999
   29CHL1   C27 2143   4.213   0.351   8.014  0.1838 -0.0254 -0.0194
   29CHL1  H27A 2144   4.257   0.276   8.083  1.1270  0.8289  0.3173
   29CHL1  H27B 2145   4.109   0.373   8.047  1.2989  1.2288  2.9614
   29CHL1  H27C 2146   4.212   0.299   7.916  0.8103  0.0738 -0.0793
   30CHL1    C3 2147   2.176   5.471   6.951  0.0091  0.3614 -0.5094
   30CHL1    H3 2148   2.155   5.362   6.944  2.9691 -0.1941 -2.3739
   30CHL1    O3 2149   2.136   5.530   6.831 -0.1195  0.4060  0.1090
   30CHL1   H3' 2150   2.206   5.594   6.816  0.4838 -0.1981  0.2840
   30CHL1    C4 2151   2.097   5.538   7.057 -0.1892  0.1701  0.1846
   30CHL1   H4A 2152   2.118   5.647   7.045  1.3942 -0.1376 -0.0975
   30CHL1   H4B 2153   1.989   5.520   7.040 -0.1535  1.3896 -1.7775
   30CHL1    C5 2154   2.143   5.497   7.196  0.0559  0.5152  0.7283
   30CHL1    C6 2155   2.052   5.462   7.288  0.3555  0.4185 -0.1278
   30CHL1    H6 2156   1.948   5.449   7.255  0.1080 -2.8477  1.5748
   30CHL1    C7 2157   2.080   5.428   7.430 -0.2705  0.3433 -0.0256
   30CHL1   H7A 2158   1.995   5.466   7.492  1.3253  0.0416  2.5020
   30CHL1   H7B 2159   2.064   5.320   7.452  0.4225 -0.2093 -2.0864
   30CHL1    C8 2160   2.221   5.477   7.476 -0.2910  0.7658  0.5116
   30CHL1    H8 2161   2.219   5.585   7.502  0.9908  0.4126  2.2230
   30CHL1   C14 2162   2.256   5.408   7.611 -0.3347  0.5106  0.7912
   30CHL1   H14 2163   2.255   5.299   7.593  0.3699  0.3743  1.5079
   30CHL1   C15 2164   2.157   5.428   7.727  0.9937 -0.4820  0.1683
   30CHL1  H15A 2165   2.134   5.536   7.728  0.7746 -0.5247 -0.0924
   30CHL1  H15B 2166   2.076   5.352   7.716  0.8999 -0.3115 -0.3731
   30CHL1   C16 2167   2.242   5.379   7.848 -0.1962 -0.5586  0.1070
   30CHL1  H16A 2168   2.235   5.446   7.936 -1.5649  1.9842 -1.8002
   30CHL1  H16B 2169   2.197   5.281   7.874 -1.1582  0.0668  0.8724
   30CHL1   C17 2170   2.391   5.351   7.794  0.1044 -0.4033 -0.3966
   30CHL1   H17 2171   2.396   5.244   7.765 -0.2856 -0.5550  0.0846
   30CHL1   C13 2172   2.397   5.435   7.663 -0.4020  0.0757 -0.9400
   30CHL1   C18 2173   2.408   5.584   7.694 -0.7181  0.0315 -0.3004
   30CHL1  H18A 2174   2.503   5.618   7.741 -1.2475  2.0450 -0.5904
   30CHL1  H18B 2175   2.393   5.642   7.601  0.2036 -1.0552 -1.1585
   30CHL1  H18C 2176   2.337   5.608   7.776 -0.2424  0.7035 -0.0685
   30CHL1   C12 2177   2.490   5.382   7.550 -0.3332 -0.1846  0.3242
   30CHL1  H12A 2178   2.597   5.389   7.577 -0.1889 -1.2194  0.0839
   30CHL1  H12B 2179   2.472   5.273   7.534 -2.7153 -0.2095  2.4845
   30CHL1   C11 2180   2.471   5.461   7.416  0.4211  0.5428  0.0076
   30CHL1  H11A 2181   2.494   5.569   7.420 -0.5025  0.7763 -0.6013
   30CHL1  H11B 2182   2.533   5.410   7.339  1.1517 -0.4981  1.2328
   30CHL1    C9 2183   2.323   5.439   7.365 -0.7955 -0.5426 -0.5870
   30CHL1    H9 2184   2.316   5.330   7.348  0.8512 -1.2958  2.7309
   30CHL1   C10 2185   2.293   5.509   7.231 -0.3953  0.7398  0.9681
   30CHL1   C19 2186   2.327   5.660   7.242  0.1855 -0.2190  0.6394
   30CHL1  H19A 2187   2.437   5.676   7.250  0.2687  0.6363 -1.4927
   30CHL1  H19B 2188   2.288   5.710   7.150  1.3836  1.2033  0.8546
   30CHL1  H19C 2189   2.279   5.714   7.326 -0.2957 -2.2158  1.6854
   30CHL1    C1 2190   2.372   5.441   7.114  0.3985 -0.9713  0.5383
   30CHL1   H1A 2191   2.480   5.469   7.119  0.0611  0.4504  0.2212
   30CHL1   H1B 2192   2.363   5.330   7.113 -0.1194 -1.0366  3.5310
   30CHL1    C2 2193   2.324   5.489   6.977  0.4345 -0.0208 -0.0172
   30CHL1   H2A 2194   2.384   5.439   6.898  0.7514  3.1369 -1.9995
   30CHL1   H2B 2195   2.352   5.597   6.975 -1.4982  0.5585  1.2428
   30CHL1   C20 2196   2.492   5.383   7.912  0.5845  0.3254  0.4995
   30CHL1   H20 2197   2.480   5.486   7.952  1.7543  0.2237  1.1614
   30CHL1   C21 2198   2.636   5.374   7.858  0.4567  0.4158 -0.0828
   30CHL1  H21A 2199   2.667   5.446   7.779 -2.2411  0.3404 -1.3156
   30CHL1  H21B 2200   2.651   5.271   7.818 -3.0150  0.7105 -2.6312
   30CHL1  H21C 2201   2.716   5.386   7.933 -0.8151 -2.8713  2.0257
   30CHL1   C22 2202   2.467   5.288   8.031  0.2281  0.0864 -0.6703
   30CHL1  H22A 2203   2.361   5.290   8.064  0.6721 -1.2778  1.0365
   30CHL1  H22B 2204   2.498   5.186   7.998  3.0326  0.3945  0.7169
   30CHL1   C23 2205   2.543   5.334   8.155  0.3815  0.4133 -0.6008
   30CHL1  H23A 2206   2.648   5.350   8.123  0.8338  2.1066  1.4724
   30CHL1  H23B 2207   2.493   5.430   8.179 -1.6291 -0.3617 -1.4444
   30CHL1   C24 2208   2.541   5.241   8.271  0.1349  0.5827 -0.2609
   30CHL1  H24A 2209   2.441   5.229   8.320  0.2413  2.8716  0.6256
   30CHL1  H24B 2210   2.565   5.144   8.222  0.5818 -0.8549  2.5593
   30CHL1   C25 2211   2.641   5.260   8.390 -0.0672  0.6661  0.1675
   30CHL1   H25 2212   2.600   5.337   8.458  1.0167  0.4483  1.0948
   30CHL1   C26 2213   2.649   5.134   8.474  0.0708  0.3238 -0.3621
   30CHL1  H26A 2214   2.687   5.052   8.409 -2.4748 -0.6652 -0.7076
   30CHL1  H26B 2215   2.707   5.145   8.568 -1.0390 -0.6194  0.4603
   30CHL1  H26C 2216   2.546   5.101   8.496  0.1222 -1.1081 -1.9983
   30CHL1   C27 2217   2.780   5.318   8.345 -0.1544 -0.5526  0.1915
   30CHL1  H27A 2218   2.774   5.413   8.287  0.3406 -0.3177  0.5208
   30CHL1  H27B 2219   2.841   5.344   8.433 -0.9569 -0.3732  0.7086
   30CHL1  H27C 2220   2.833   5.242   8.284  2.5630 -0.2364  2.0156
   31CHL1    C3 2221   2.964   0.426   6.544  0.4247 -0.5684 -0.2165
   31CHL1    H3 2222   2.955   0.533   6.572  3.7588 -1.0051  3.3150
   31CHL1    O3 2223   2.976   0.408   6.404 -0.4492 -0.3754 -0.3304
   31CHL1   H3' 2224   2.983   0.314   6.386  0.6541 -0.1741 -1.0342
   31CHL1    C4 2225   3.081   0.365   6.619  0.3607  0.2348 -0.2096
   31CHL1   H4A 2226   3.090   0.255   6.601  2.3101  0.3172  0.0555
   31CHL1   H4B 2227   3.171   0.415   6.578  0.4782  0.8928  0.8137
   31CHL1    C5 2228   3.073   0.375   6.769 -0.0294  0.4993  0.5201
   31CHL1    C6 2229   3.166   0.437   6.842  0.1299 -0.7511  0.1867
   31CHL1    H6 2230   3.262   0.475   6.806  0.0563 -1.2724 -0.5915
   31CHL1    C7 2231   3.158   0.445   6.990  0.1776  0.1686  0.1759
   31CHL1   H7A 2232   3.259   0.416   7.028  0.2207  0.3536  0.2015
   31CHL1   H7B 2233   3.132   0.551   7.007 -0.4971 -0.0366  0.4344
   31CHL1    C8 2234   3.048   0.350   7.051  0.4688 -0.6192  0.5429
   31CHL1    H8 2235   3.084   0.244   7.048  0.1747 -0.7550  1.5765
   31CHL1   C14 2236   3.024   0.383   7.202  0.3114  0.2779 -0.0954
   31CHL1   H14 2237   2.999   0.492   7.204 -0.0073  0.2152  2.0603
   31CHL1   C15 2238   3.136   0.379   7.299  0.3190  0.0852 -0.8000
   31CHL1  H15A 2239   3.193   0.284   7.292  1.2574  0.6934 -1.7518
   31CHL1  H15B 2240   3.215   0.456   7.288  2.1243 -1.0802  2.4956
   31CHL1   C16 2241   3.066   0.403   7.436 -0.1705  0.1142 -0.5850
   31CHL1  H16A 2242   3.097   0.327   7.512 -1.4188 -0.2236 -0.3910
   31CHL1  H16B 2243   3.088   0.510   7.458 -0.6623  0.5928 -2.2754
   31CHL1   C17 2244   2.909   0.387   7.406  0.0417 -0.1839  0.3885
   31CHL1   H17 2245   2.872   0.491   7.388 -0.5561 -0.3373  0.7205
   31CHL1   C13 2246   2.904   0.320   7.261  0.3298 -0.1369  0.9257
   31CHL1   C18 2247   2.935   0.170   7.265  0.0231  0.4746 -0.9046
   31CHL1  H18A 2248   2.845   0.119   7.306 -1.8384  1.2830 -3.6957
   31CHL1  H18B 2249   2.943   0.122   7.166 -0.8665 -1.3550 -0.1423
   31CHL1  H18C 2250   3.014   0.142   7.338  1.0876  4.6112 -0.2070
   31CHL1   C12 2251   2.774   0.363   7.181 -0.1810 -0.4085 -0.1935
   31CHL1  H12A 2252   2.687   0.310   7.223 -1.1548  2.4769  1.6847
   31CHL1  H12B 2253   2.748   0.468   7.205  1.3388 -0.2758  1.0314
   31CHL1   C11 2254   2.797   0.318   7.039 -0.4171 -0.7149 -0.2318
   31CHL1  H11A 2255   2.778   0.209   7.038 -3.1606 -0.3505  1.6853
   31CHL1  H11B 2256   2.705   0.346   6.983 -0.0937 -1.5549 -1.2194
   31CHL1    C9 2257   2.920   0.368   6.971  0.6097 -0.1372  0.0927
   31CHL1    H9 2258   2.899   0.477   6.971 -1.9205 -0.5368  2.3654
   31CHL1   C10 2259   2.941   0.323   6.822 -0.0875 -0.7912 -0.5387
   31CHL1   C19 2260   2.938   0.172   6.827 -0.0525  0.7118 -0.1546
   31CHL1  H19A 2261   2.834   0.145   6.854  0.1753 -1.4197 -1.1510
   31CHL1  H19B 2262   2.955   0.133   6.725  1.7017  0.2666  0.2637
   31CHL1  H19C 2263   3.009   0.130   6.903  0.2184 -1.8196 -1.6923
   31CHL1    C1 2264   2.818   0.375   6.741  0.4674 -0.2902 -0.0377
   31CHL1   H1A 2265   2.730   0.315   6.774  2.7749 -3.2363  1.1908
   31CHL1   H1B 2266   2.791   0.479   6.768  1.8121  0.2615 -0.7515
   31CHL1    C2 2267   2.836   0.360   6.594 -0.3773  0.3509  0.1744
   31CHL1   H2A 2268   2.744   0.394   6.542 -1.0264  0.6163  1.4563
   31CHL1   H2B 2269   2.840   0.252   6.571 -1.2339 -0.0751  1.9303
   31CHL1   C20 2270   2.827   0.325   7.514 -0.3226 -0.1413  0.4532
   31CHL1   H20 2271   2.845   0.216   7.516  0.9020 -0.1385 -3.3584
   31CHL1   C21 2272   2.679   0.365   7.499 -0.1864 -0.3288  0.1863
   31CHL1  H21A 2273   2.629   0.295   7.429 -0.2168  0.2929 -0.4271
   31CHL1  H21B 2274   2.670   0.472   7.470  2.1700  0.7184  2.8785
   31CHL1  H21C 2275   2.625   0.359   7.596 -0.1626 -0.5006  0.1891
   31CHL1   C22 2276   2.864   0.371   7.656 -0.1002 -0.0993 -0.4166
   31CHL1  H22A 2277   2.973   0.390   7.663  0.0930 -1.0549 -0.7401
   31CHL1  H22B 2278   2.803   0.460   7.684 -1.5250 -1.2591  0.2831
   31CHL1   C23 2279   2.825   0.275   7.776  0.2766 -0.2500 -0.8590
   31CHL1  H23A 2280   2.722   0.237   7.767  0.2230 -1.2325  2.4993
   31CHL1  H23B 2281   2.885   0.182   7.783 -1.8695 -1.5652  1.9786
   31CHL1   C24 2282   2.824   0.350   7.914  0.5040  0.3734  0.8253
   31CHL1  H24A 2283   2.733   0.414   7.923 -0.9550 -1.7629  2.3968
   31CHL1  H24B 2284   2.804   0.289   8.005 -0.7941 -0.1148  0.2387
   31CHL1   C25 2285   2.950   0.423   7.948 -0.2285 -0.0733  0.3791
   31CHL1   H25 2286   2.973   0.497   7.869  1.5620 -1.7460 -0.7652
   31CHL1   C26 2287   2.926   0.503   8.076  0.7228 -0.7363 -0.0471
   31CHL1  H26A 2288   2.829   0.554   8.060  1.0372 -0.2323 -0.4066
   31CHL1  H26B 2289   2.939   0.452   8.174 -1.0000  0.4902  0.8735
   31CHL1  H26C 2290   2.992   0.593   8.081  1.8476 -1.5337 -0.2724
   31CHL1   C27 2291   3.068   0.330   7.968 -0.0536  0.5557 -0.3575
   31CHL1  H27A 2292   3.060   0.283   8.069  0.2954  1.8044  0.2651
   31CHL1  H27B 2293   3.160   0.392   7.979 -0.4972  0.9653  1.4711
   31CHL1  H27C 2294   3.075   0.242   7.901  1.8465  0.2849  0.1283
   32CHL1    C3 2295   4.221   6.134   6.625  0.7467 -0.0740  0.2074
   32CHL1    H3 2296   4.123   6.161   6.580  1.6599  0.4223 -1.5843
   32CHL1    O3 2297   4.286   6.057   6.523  0.0357 -0.7691 -0.5349
   32CHL1   H3' 2298   4.248   5.970   6.532 -0.1877 -0.8624 -2.1415
   32CHL1    C4 2299   4.306   6.254   6.664  0.5646 -0.1595  0.2943
   32CHL1   H4A 2300   4.402   6.212   6.700 -0.0659 -0.6704  1.4561
   32CHL1   H4B 2301   4.320   6.310   6.569 -0.8987 -0.0635  0.1082
   32CHL1    C5 2302   4.232   6.331   6.772 -0.0396  0.6786 -0.0330
   32CHL1    C6 2303   4.205   6.461   6.770 -0.0289  0.4585 -0.1461
   32CHL1    H6 2304   4.233   6.511   6.677 -1.6765 -1.1507 -1.5798
   32CHL1    C7 2305   4.146   6.549   6.863  0.1807 -0.3373 -0.2635
   32CHL1   H7A 2306   4.217   6.629   6.895  2.4444 -3.2799  2.7195
   32CHL1   H7B 2307   4.048   6.588   6.826 -0.5583 -0.8975  1.0308
   32CHL1    C8 2308   4.127   6.484   6.997 -0.4383  0.3818 -0.7646
   32CHL1    H8 2309   4.224   6.493   7.051  0.4590  0.9281 -2.3738
   32CHL1   C14 2310   4.018   6.557   7.075  0.1780  0.2494 -0.1489
   32CHL1   H14 2311   3.924   6.526   7.026  0.2185 -0.3065  0.1218
   32CHL1   C15 2312   4.029   6.713   7.086  0.6540 -0.2296 -0.8936
   32CHL1  H15A 2313   4.122   6.758   7.125 -0.7187  0.1718  2.1792
   32CHL1  H15B 2314   3.994   6.751   6.987 -1.9292 -2.3450 -0.9175
   32CHL1   C16 2315   3.924   6.743   7.193 -0.5504 -0.5061 -0.3303
   32CHL1  H16A 2316   3.980   6.822   7.248 -0.1442 -1.1559  0.2238
   32CHL1  H16B 2317   3.832   6.788   7.150 -1.6471 -0.7582  1.6183
   32CHL1   C17 2318   3.890   6.618   7.273 -0.4157  0.3451 -0.1152
   32CHL1   H17 2319   3.791   6.584   7.238  0.6010 -0.0474 -2.8338
   32CHL1   C13 2320   3.994   6.509   7.223  0.1416  0.0863 -0.2715
   32CHL1   C18 2321   4.129   6.513   7.301 -0.2226 -0.4373  0.2840
   32CHL1  H18A 2322   4.193   6.432   7.261 -1.0647 -1.2385  0.5091
   32CHL1  H18B 2323   4.185   6.606   7.278  1.2222 -1.2212  0.5513
   32CHL1  H18C 2324   4.118   6.505   7.412  2.0396  1.5713  0.7181
   32CHL1   C12 2325   3.953   6.358   7.214  0.4808 -0.5754 -0.4024
   32CHL1  H12A 2326   3.949   6.310   7.314  0.5424 -1.5321 -0.8389
   32CHL1  H12B 2327   3.851   6.356   7.172  0.9754  0.7427 -1.7654
   32CHL1   C11 2328   4.052   6.269   7.133  0.4234  0.1038 -0.3355
   32CHL1  H11A 2329   4.150   6.253   7.183  0.5918  1.0894 -0.3356
   32CHL1  H11B 2330   4.014   6.168   7.107 -0.7757  0.5480 -0.3571
   32CHL1    C9 2331   4.094   6.330   6.992  0.2439 -0.5463 -0.9783
   32CHL1    H9 2332   4.002   6.331   6.930  1.2214 -0.4785 -2.4884
   32CHL1   C10 2333   4.189   6.244   6.900  0.1664 -0.5711  1.4017
   32CHL1   C19 2334   4.329   6.238   6.972 -0.1094  0.6508 -0.2577
   32CHL1  H19A 2335   4.415   6.195   6.916  0.7382  0.5683  1.0538
   32CHL1  H19B 2336   4.348   6.342   7.009 -0.3906  0.8502 -0.6672
   32CHL1  H19C 2337   4.317   6.179   7.066 -2.9895 -0.1454 -1.0172
   32CHL1    C1 2338   4.125   6.110   6.861 -0.2282  0.2541 -0.4892
   32CHL1   H1A 2339   4.131   6.046   6.951  1.7231  1.0008 -0.0231
   32CHL1   H1B 2340   4.022   6.119   6.821 -0.2463 -2.2982 -1.2217
   32CHL1    C2 2341   4.199   6.033   6.744  0.2320  0.0183  0.1265
   32CHL1   H2A 2342   4.145   5.940   6.716 -0.3083  0.2046  0.5320
   32CHL1   H2B 2343   4.294   5.993   6.784  0.5220 -0.8354 -1.3372
   32CHL1   C20 2344   3.888   6.640   7.429  0.8603 -0.5248 -0.1446
   32CHL1   H20 2345   3.985   6.615   7.477  2.2376 -0.7916 -2.8751
   32CHL1   C21 2346   3.797   6.521   7.482 -0.0256  0.9098  0.2706
   32CHL1  H21A 2347   3.696   6.518   7.435 -0.6582 -2.8685  1.5147
   32CHL1  H21B 2348   3.764   6.524   7.588 -2.0366  1.2030 -0.3224
   32CHL1  H21C 2349   3.846   6.422   7.472  0.8177  1.3015  0.4388
   32CHL1   C22 2350   3.816   6.769   7.480 -0.2941 -0.7851  0.4103
   32CHL1  H22A 2351   3.873   6.859   7.449 -0.7849 -1.1708 -1.7955
   32CHL1  H22B 2352   3.715   6.773   7.434 -0.2605 -0.0668  0.3910
   32CHL1   C23 2353   3.808   6.775   7.637  0.5163 -0.4673  0.7995
   32CHL1  H23A 2354   3.766   6.874   7.664 -1.5808 -0.4441 -2.1302
   32CHL1  H23B 2355   3.728   6.709   7.676 -1.8256  1.8248  0.1442
   32CHL1   C24 2356   3.940   6.763   7.709  0.0376  0.5706  0.0051
   32CHL1  H24A 2357   3.993   6.667   7.688 -0.7196  0.3523 -0.9458
   32CHL1  H24B 2358   4.017   6.835   7.674  0.9263 -1.4940 -2.6752
   32CHL1   C25 2359   3.936   6.795   7.858  0.2664 -0.4942  0.0248
   32CHL1   H25 2360   4.018   6.732   7.899  0.8284  1.0530  1.3858
   32CHL1   C26 2361   3.969   6.942   7.890  0.1577 -0.1554  0.3572
   32CHL1  H26A 2362   4.057   6.987   7.837 -1.2562  2.6138  0.2060
   32CHL1  H26B 2363   3.884   7.009   7.868  0.2900 -0.0234  0.2418
   32CHL1  H26C 2364   3.982   6.947   8.000  0.4838 -2.1599  0.4566
   32CHL1   C27 2365   3.811   6.743   7.930  0.3685  0.1078  0.1222
   32CHL1  H27A 2366   3.723   6.810   7.913  0.1928  0.3775  1.9506
   32CHL1  H27B 2367   3.770   6.647   7.893 -0.7787  0.9634 -0.9307
   32CHL1  H27C 2368   3.827   6.743   8.040  0.9592  4.4407  0.2357
   33CHL1    C3 2369   3.430   6.711   6.630  0.5986  0.5554  0.5023
   33CHL1    H3 2370   3.476   6.807   6.662  0.0139  1.7767 -2.0546
   33CHL1    O3 2371   3.472   6.692   6.495  0.3018  0.1571  0.5297
   33CHL1   H3' 2372   3.470   6.597   6.482 -0.6161  0.2770 -0.3311
   33CHL1    C4 2373   3.478   6.590   6.713  1.1941 -1.2258 -1.0538
   33CHL1   H4A 2374   3.442   6.492   6.677  1.4601 -1.7619  0.0987
   33CHL1   H4B 2375   3.587   6.592   6.693  1.5065  1.6650  0.3090
   33CHL1    C5 2376   3.445   6.616   6.858 -0.2753  0.3431 -0.1427
   33CHL1    C6 2377   3.544   6.612   6.947  0.3275 -0.6393 -0.3556
   33CHL1    H6 2378   3.649   6.596   6.919  0.0720 -0.0879 -1.7049
   33CHL1    C7 2379   3.521   6.630   7.094  0.6957  0.5044  0.1589
   33CHL1   H7A 2380   3.582   6.556   7.149  0.6015  0.1033 -0.2719
   33CHL1   H7B 2381   3.552   6.728   7.135 -1.3886  1.0066  0.6598
   33CHL1    C8 2382   3.375   6.610   7.131 -0.2719 -0.0535  0.2193
   33CHL1    H8 2383   3.355   6.500   7.126 -1.6824  0.2071 -0.8766
   33CHL1   C14 2384   3.346   6.659   7.273 -0.4851 -0.0389  0.4761
   33CHL1   H14 2385   3.352   6.770   7.272 -1.1952  0.0314 -1.8041
   33CHL1   C15 2386   3.442   6.613   7.387  0.1585  0.0014  1.0645
   33CHL1  H15A 2387   3.466   6.505   7.375 -2.1536 -0.4894  0.4861
   33CHL1  H15B 2388   3.541   6.661   7.375  1.3319 -2.6712 -0.9355
   33CHL1   C16 2389   3.362   6.642   7.512 -0.8245 -0.0769 -0.3185
   33CHL1  H16A 2390   3.352   6.552   7.576  0.6137  0.3746  0.6070
   33CHL1  H16B 2391   3.401   6.721   7.579  1.1956 -2.2575  1.2559
   33CHL1   C17 2392   3.220   6.685   7.467 -0.1355 -0.0705  0.2633
   33CHL1   H17 2393   3.224   6.796   7.467  1.0398 -0.0806  1.7926
   33CHL1   C13 2394   3.205   6.629   7.322 -0.0147 -0.0393  0.3818
   33CHL1   C18 2395   3.171   6.478   7.323  0.3763  0.2570 -0.0005
   33CHL1  H18A 2396   3.251   6.415   7.369  0.1249 -1.4304 -1.7445
   33CHL1  H18B 2397   3.070   6.468   7.367 -0.4803  1.2850 -1.6338
   33CHL1  H18C 2398   3.162   6.434   7.221 -1.4086  0.0636  0.2122
   33CHL1   C12 2399   3.123   6.722   7.228  0.1350  0.1987 -0.3170
   33CHL1  H12A 2400   3.014   6.706   7.246  0.1314  0.4931 -0.0754
   33CHL1  H12B 2401   3.138   6.832   7.241 -2.0189  0.6627 -1.2450
   33CHL1   C11 2402   3.135   6.679   7.086 -0.0570  0.4536  0.2423
   33CHL1  H11A 2403   3.094   6.578   7.065 -0.3869  0.6926 -0.2652
   33CHL1  H11B 2404   3.074   6.748   7.024 -0.6713 -0.6266 -0.3819
   33CHL1    C9 2405   3.282   6.679   7.034  0.5735  0.2170 -0.6058
   33CHL1    H9 2406   3.314   6.785   7.029 -2.6964  1.3191 -0.4425
   33CHL1   C10 2407   3.295   6.632   6.888  0.6938  0.6215  0.0079
   33CHL1   C19 2408   3.233   6.493   6.863  0.2197 -0.3786 -0.2668
   33CHL1  H19A 2409   3.255   6.454   6.762  1.2335  0.0266 -0.2143
   33CHL1  H19B 2410   3.270   6.413   6.930  0.5525 -2.5886 -2.9381
   33CHL1  H19C 2411   3.122   6.495   6.872  0.2824  2.6317  1.1882
   33CHL1    C1 2412   3.229   6.737   6.786  0.3691 -0.5706 -0.1824
   33CHL1   H1A 2413   3.118   6.734   6.783  0.2667  1.5314  0.4546
   33CHL1   H1B 2414   3.258   6.836   6.826  0.9984 -0.6521 -0.4332
   33CHL1    C2 2415   3.277   6.714   6.641  0.4947 -0.1969  0.1996
   33CHL1   H2A 2416   3.235   6.791   6.572 -0.5989 -0.7619  0.2106
   33CHL1   H2B 2417   3.246   6.621   6.588  1.5129  0.1400 -1.0300
   33CHL1   C20 2418   3.116   6.637   7.565  0.0499 -0.2119  1.3586
   33CHL1   H20 2419   3.118   6.526   7.566 -0.6217 -0.2774 -0.6147
   33CHL1   C21 2420   2.975   6.693   7.529 -0.3675  0.2755  0.0954
   33CHL1  H21A 2421   2.938   6.649   7.433 -1.4723  0.0673  0.6015
   33CHL1  H21B 2422   2.980   6.804   7.527 -1.7867  0.3894 -2.2634
   33CHL1  H21C 2423   2.897   6.662   7.602 -0.2435 -2.3482 -0.7442
   33CHL1   C22 2424   3.152   6.691   7.709 -0.0168  0.0841 -0.0273
   33CHL1  H22A 2425   3.232   6.626   7.750  0.6031  1.8345  1.6960
   33CHL1  H22B 2426   3.187   6.797   7.704 -0.1226  0.1856  1.2165
   33CHL1   C23 2427   3.047   6.701   7.820 -0.3434  0.4584  0.0232
   33CHL1  H23A 2428   2.979   6.787   7.801 -0.6144  0.0462 -0.9378
   33CHL1  H23B 2429   2.993   6.605   7.834  1.1348 -0.3127  0.7057
   33CHL1   C24 2430   3.106   6.735   7.959  0.2262 -0.4476  0.3451
   33CHL1  H24A 2431   3.199   6.675   7.975  0.3188 -0.1759  0.8532
   33CHL1  H24B 2432   3.135   6.842   7.956  3.3379 -1.1425  1.5566
   33CHL1   C25 2433   3.022   6.707   8.078 -0.1114 -0.2214 -0.5320
   33CHL1   H25 2434   2.974   6.608   8.066 -0.0231 -0.2762 -0.4306
   33CHL1   C26 2435   3.091   6.707   8.209 -0.6140  0.2231 -0.4827
   33CHL1  H26A 2436   3.188   6.653   8.211 -1.8297 -2.0990  1.7012
   33CHL1  H26B 2437   3.108   6.807   8.255  0.5090 -0.7084  1.2771
   33CHL1  H26C 2438   3.030   6.661   8.290  0.7366  1.0044  1.0405
   33CHL1   C27 2439   2.899   6.801   8.091 -0.2709  0.2743 -0.0771
   33CHL1  H27A 2440   2.928   6.908   8.101  0.8796 -0.1748  1.8770
   33CHL1  H27B 2441   2.834   6.790   8.002  1.0698  1.6934 -1.2957
   33CHL1  H27C 2442   2.833   6.779   8.178 -0.1734  1.3270  0.2803
   34CHL1    C3 2443   6.193   4.093   7.271  0.5388 -0.2320 -0.6030
   34CHL1    H3 2444   6.256   4.173   7.227  0.2050 -0.5726 -1.7460
   34CHL1    O3 2445   6.139   4.042   7.154 -0.6365  0.1990  0.1331
   34CHL1   H3' 2446   6.210   3.988   7.118 -0.9963 -2.7404  3.2547
   34CHL1    C4 2447   6.279   3.991   7.349 -0.1944 -0.7168 -0.8533
   34CHL1   H4A 2448   6.214   3.901   7.362 -0.1387 -0.6634 -0.1930
   34CHL1   H4B 2449   6.374   3.972   7.294  2.2578  1.9703  2.0849
   34CHL1    C5 2450   6.325   4.034   7.486  0.5404  0.3727  0.2440
   34CHL1    C6 2451   6.453   4.040   7.530 -1.0227  0.3307 -0.0947
   34CHL1    H6 2452   6.530   4.006   7.459  1.1145  1.3311  1.6129
   34CHL1    C7 2453   6.503   4.069   7.679  0.7469 -1.0766 -0.3352
   34CHL1   H7A 2454   6.573   3.985   7.700 -3.4507 -4.1540  2.8925
   34CHL1   H7B 2455   6.544   4.172   7.686 -0.2721 -0.5263 -1.9555
   34CHL1    C8 2456   6.384   4.049   7.773 -0.1094  0.0195 -0.4217
   34CHL1    H8 2457   6.361   3.941   7.783  0.1063  0.0642  0.8572
   34CHL1   C14 2458   6.418   4.112   7.912 -0.3123  0.4043  0.3639
   34CHL1   H14 2459   6.435   4.220   7.894  0.1295  0.1903 -0.5447
   34CHL1   C15 2460   6.543   4.047   7.984 -0.0260 -0.5128 -0.4083
   34CHL1  H15A 2461   6.564   3.939   7.976  0.8961 -0.3845  0.0659
   34CHL1  H15B 2462   6.631   4.105   7.949  0.3996 -0.5813  0.5151
   34CHL1   C16 2463   6.520   4.079   8.134 -0.1611 -0.5612  1.2368
   34CHL1  H16A 2464   6.518   3.990   8.200 -0.1449 -0.6542  1.1118
   34CHL1  H16B 2465   6.597   4.145   8.179  0.0035  0.2660 -0.2060
   34CHL1   C17 2466   6.380   4.150   8.137  0.1600 -0.0997  0.6039
   34CHL1   H17 2467   6.396   4.257   8.110  3.4748 -0.7683 -0.5360
   34CHL1   C13 2468   6.313   4.094   8.009  0.0879 -0.7030 -0.1121
   34CHL1   C18 2469   6.277   3.947   8.033 -0.2593 -0.7656  0.1448
   34CHL1  H18A 2470   6.242   3.895   7.942 -0.0019 -2.4484  0.9676
   34CHL1  H18B 2471   6.365   3.884   8.062  1.1259  0.1234 -1.9169
   34CHL1  H18C 2472   6.193   3.941   8.105 -0.3986  0.5968  0.1253
   34CHL1   C12 2473   6.190   4.173   7.960  0.6995 -0.0641 -0.4766
   34CHL1  H12A 2474   6.105   4.159   8.030  1.2103  2.6091  0.8283
   34CHL1  H12B 2475   6.220   4.280   7.958 -0.7162  0.3251 -1.7479
   34CHL1   C11 2476   6.143   4.133   7.823  0.3608 -0.5597 -0.4577
   34CHL1  H11A 2477   6.092   4.037   7.846  1.6919 -1.0853  0.4421
   34CHL1  H11B 2478   6.068   4.206   7.787  2.0069  1.0366 -0.7948
   34CHL1    C9 2479   6.260   4.117   7.718  0.8662 -0.1859 -0.5189
   34CHL1    H9 2480   6.295   4.222   7.704  4.0501 -0.9213  0.8861
   34CHL1   C10 2481   6.210   4.066   7.577  0.7100  0.5112 -0.2927
   34CHL1   C19 2482   6.116   3.945   7.606 -0.0379  0.2742 -1.0069
   34CHL1  H19A 2483   6.095   3.890   7.512 -1.4427  0.7927 -1.0345
   34CHL1  H19B 2484   6.175   3.877   7.670  0.7095  1.1818 -0.7099
   34CHL1  H19C 2485   6.017   3.970   7.651 -0.1934  1.9367 -2.1801
   34CHL1    C1 2486   6.131   4.180   7.503  0.4106  1.0947  0.0323
   34CHL1   H1A 2487   6.049   4.204   7.573  2.7646  2.9493  2.3559
   34CHL1   H1B 2488   6.190   4.272   7.482 -0.0886  0.9948 -2.0274
   34CHL1    C2 2489   6.080   4.136   7.360  0.2332 -0.9121  0.1977
   34CHL1   H2A 2490   6.013   4.214   7.318 -0.0990 -2.5011 -2.4635
   34CHL1   H2B 2491   6.013   4.048   7.368 -0.6034 -0.6035 -2.4419
   34CHL1   C20 2492   6.311   4.143   8.271  0.4253  0.1001  0.2314
   34CHL1   H20 2493   6.202   4.156   8.255  0.3354  0.1183  0.8435
   34CHL1   C21 2494   6.361   4.269   8.346  0.4783  0.2372 -0.3648
   34CHL1  H21A 2495   6.338   4.354   8.279  1.2772  1.4252  0.8053
   34CHL1  H21B 2496   6.471   4.274   8.365  0.3979 -1.7468  0.9266
   34CHL1  H21C 2497   6.311   4.284   8.444 -0.8466  0.8611 -1.1147
   34CHL1   C22 2498   6.328   4.018   8.351 -0.1627 -0.3379 -0.4956
   34CHL1  H22A 2499   6.294   3.940   8.280 -0.7695 -0.0988 -0.4698
   34CHL1  H22B 2500   6.432   4.000   8.385 -0.2932 -0.7263 -0.2966
   34CHL1   C23 2501   6.231   4.006   8.465 -0.2297 -0.1796  0.4482
   34CHL1  H23A 2502   6.266   4.069   8.550 -2.0789  0.4858  0.7557
   34CHL1  H23B 2503   6.125   4.032   8.445 -0.6945 -1.1477  1.4755
   34CHL1   C24 2504   6.217   3.857   8.513  0.2607 -0.2339 -1.1366
   34CHL1  H24A 2505   6.168   3.801   8.431  0.0529  1.5270 -2.2754
   34CHL1  H24B 2506   6.319   3.822   8.539 -0.1348 -0.6859 -0.1267
   34CHL1   C25 2507   6.122   3.868   8.640 -0.1761  0.0174  0.5467
   34CHL1   H25 2508   6.140   3.969   8.684 -1.9639  0.3999  0.4434
   34CHL1   C26 2509   5.976   3.864   8.613 -0.1908 -0.1091  0.1984
   34CHL1  H26A 2510   5.950   3.902   8.512  1.6901  2.0375  0.4298
   34CHL1  H26B 2511   5.932   3.762   8.617 -1.7489  0.4556 -1.2894
   34CHL1  H26C 2512   5.924   3.925   8.689 -0.2274  1.5573 -1.1092
   34CHL1   C27 2513   6.161   3.762   8.744 -0.5081  0.3539  0.4203
   34CHL1  H27A 2514   6.151   3.653   8.722  2.0864  0.2894 -0.7904
   34CHL1  H27B 2515   6.265   3.783   8.779 -0.5742 -1.0644  1.5649
   34CHL1  H27C 2516   6.095   3.772   8.833 -1.6371 -1.1853 -0.2120
   35CHL1    C3 2517   2.106   3.800   7.208  0.0322  0.0451  0.0049
   35CHL1    H3 2518   2.116   3.901   7.254 -3.2188 -0.4024  1.9707
   35CHL1    O3 2519   2.104   3.810   7.068 -0.3336  0.2205  0.0816
   35CHL1   H3' 2520   2.108   3.718   7.040  1.0525  0.6139 -1.1090
   35CHL1    C4 2521   2.221   3.715   7.261  0.4761 -0.6232  0.8657
   35CHL1   H4A 2522   2.217   3.618   7.208 -0.9212 -0.3890  0.4975
   35CHL1   H4B 2523   2.311   3.763   7.218 -1.1085  1.0959 -0.7435
   35CHL1    C5 2524   2.221   3.695   7.411 -0.1440 -0.1231 -0.8466
   35CHL1    C6 2525   2.330   3.727   7.482 -0.5495 -0.9421 -0.6009
   35CHL1    H6 2526   2.420   3.765   7.431 -1.4272  1.7680 -0.2987
   35CHL1    C7 2527   2.342   3.693   7.624  0.5300  0.5579  0.9652
   35CHL1   H7A 2528   2.441   3.649   7.652  0.4579 -0.3207 -0.0888
   35CHL1   H7B 2529   2.351   3.788   7.680 -0.8098  0.9546  0.5323
   35CHL1    C8 2530   2.224   3.601   7.680  0.7737 -0.2483 -0.0293
   35CHL1    H8 2531   2.245   3.498   7.643  0.9002 -0.4615  0.6244
   35CHL1   C14 2532   2.224   3.605   7.833 -0.5894 -0.1778 -0.1643
   35CHL1   H14 2533   2.226   3.713   7.859  0.9801 -0.2039 -0.1147
   35CHL1   C15 2534   2.354   3.565   7.902  0.0707 -0.1183  0.0055
   35CHL1  H15A 2535   2.396   3.475   7.851 -0.1480 -0.1002 -0.2077
   35CHL1  H15B 2536   2.418   3.655   7.909 -1.4601  0.9982  0.2646
   35CHL1   C16 2537   2.300   3.537   8.044  0.2564 -0.3064 -0.8314
   35CHL1  H16A 2538   2.329   3.434   8.073  1.9019  0.3209 -0.1235
   35CHL1  H16B 2539   2.353   3.610   8.108  1.2468 -1.0701 -0.7649
   35CHL1   C17 2540   2.149   3.557   8.045  0.4233  1.2809  0.2591
   35CHL1   H17 2541   2.116   3.660   8.073  2.2400  1.1486  3.3540
   35CHL1   C13 2542   2.103   3.536   7.895  0.3985 -0.4429  0.2493
   35CHL1   C18 2543   2.102   3.390   7.859 -0.5489  0.1878 -0.0675
   35CHL1  H18A 2544   2.109   3.368   7.750 -0.4923  1.7341 -0.4045
   35CHL1  H18B 2545   2.185   3.340   7.913 -0.3925 -0.2487 -0.6990
   35CHL1  H18C 2546   2.011   3.349   7.908 -0.7675  1.2938  0.4780
   35CHL1   C12 2547   1.973   3.606   7.846  0.3203 -0.9410  0.4256
   35CHL1  H12A 2548   1.877   3.556   7.873 -0.9829 -2.2669 -5.2936
   35CHL1  H12B 2549   1.963   3.714   7.867 -0.5564 -0.8446 -0.4057
   35CHL1   C11 2550   1.965   3.597   7.691  0.1550 -0.1631 -0.0053
   35CHL1  H11A 2551   1.941   3.496   7.653  1.1306 -0.0178 -1.0722
   35CHL1  H11B 2552   1.880   3.663   7.662  0.3529 -0.1583 -0.5919
   35CHL1    C9 2553   2.092   3.651   7.620  0.1744 -0.3516 -0.4365
   35CHL1    H9 2554   2.081   3.760   7.633  0.1249 -0.5224  1.2061
   35CHL1   C10 2555   2.092   3.639   7.466  0.3312  0.1725  0.0005
   35CHL1   C19 2556   2.075   3.491   7.416  0.7685 -0.1103 -0.0977
   35CHL1  H19A 2557   2.153   3.425   7.459 -1.0341 -1.5220  1.1890
   35CHL1  H19B 2558   1.979   3.445   7.447  2.4103 -3.9609 -0.1390
   35CHL1  H19C 2559   2.098   3.494   7.307  0.7184  1.2435 -0.0862
   35CHL1    C1 2560   1.977   3.724   7.408  0.3788  0.1528 -0.0928
   35CHL1   H1A 2561   1.887   3.674   7.449 -0.3528  1.9712  0.5913
   35CHL1   H1B 2562   1.983   3.827   7.449 -0.9822  0.4289 -0.5573
   35CHL1    C2 2563   1.972   3.744   7.253  0.1142  0.3700 -0.1124
   35CHL1   H2A 2564   1.891   3.815   7.225  0.6546  0.8268 -0.5302
   35CHL1   H2B 2565   1.951   3.643   7.211  1.0520 -0.4315  1.2915
   35CHL1   C20 2566   2.077   3.481   8.159 -0.3436  0.2973 -0.5604
   35CHL1   H20 2567   2.094   3.373   8.140 -0.9283  0.3362 -1.3323
   35CHL1   C21 2568   1.928   3.494   8.155  1.0127 -0.1347  0.4413
   35CHL1  H21A 2569   1.900   3.602   8.159 -1.3398 -0.7191  1.2558
   35CHL1  H21B 2570   1.871   3.434   8.229 -0.4933 -3.1520 -2.8982
   35CHL1  H21C 2571   1.891   3.441   8.065  3.3591 -0.2312 -0.5614
   35CHL1   C22 2572   2.131   3.515   8.301  0.0988  0.0018  0.4849
   35CHL1  H22A 2573   2.242   3.516   8.294  0.0349 -0.8096 -0.9358
   35CHL1  H22B 2574   2.096   3.615   8.335  1.9584  0.5226  1.0217
   35CHL1   C23 2575   2.086   3.423   8.413 -0.8094  0.7156  0.0329
   35CHL1  H23A 2576   2.086   3.478   8.509 -0.5039 -2.4409  1.9955
   35CHL1  H23B 2577   1.981   3.389   8.406 -0.4789 -0.2741 -0.2727
   35CHL1   C24 2578   2.186   3.311   8.427  0.2498  0.0873  0.5919
   35CHL1  H24A 2579   2.221   3.279   8.326  0.1684  1.6210  0.0478
   35CHL1  H24B 2580   2.271   3.347   8.488 -1.8256  0.9065  3.1881
   35CHL1   C25 2581   2.119   3.192   8.503 -0.3894  0.4555  0.4481
   35CHL1   H25 2582   2.047   3.223   8.581 -2.5407 -0.2294 -1.1682
   35CHL1   C26 2583   2.039   3.106   8.407 -0.3287 -0.6260  0.5848
   35CHL1  H26A 2584   2.013   3.014   8.462  2.9953 -0.7145  2.2890
   35CHL1  H26B 2585   1.959   3.156   8.349 -0.8315 -2.6475 -0.5694
   35CHL1  H26C 2586   2.104   3.066   8.326  1.2318 -1.0517  1.9848
   35CHL1   C27 2587   2.226   3.108   8.569 -0.9924 -0.2425 -0.4543
   35CHL1  H27A 2588   2.186   3.011   8.607  0.1440 -0.5472  0.0003
   35CHL1  H27B 2589   2.264   3.163   8.657 -2.9922 -0.4698  0.6136
   35CHL1  H27C 2590   2.311   3.084   8.501 -0.3092 -2.8716  1.1655
   36CHL1    C3 2591   5.696   5.023   6.996 -0.0594  0.3813  0.0436
   36CHL1    H3 2592   5.620   5.101   7.019 -0.2828  0.1234  0.1892
   36CHL1    O3 2593   5.701   5.001   6.861  0.2338 -0.1128 -0.0947
   36CHL1   H3' 2594   5.629   4.941   6.841  0.5885  0.0480 -2.1279
   36CHL1    C4 2595   5.829   5.077   7.048 -0.8464  0.4825 -0.3355
   36CHL1   H4A 2596   5.915   5.011   7.022 -0.4760  1.1039 -0.7219
   36CHL1   H4B 2597   5.848   5.171   6.991 -0.6441  0.0075 -1.0701
   36CHL1    C5 2598   5.835   5.091   7.201  0.0226  0.0431 -0.1024
   36CHL1    C6 2599   5.868   5.212   7.260 -0.2445  0.5006  0.0896
   36CHL1    H6 2600   5.900   5.294   7.193 -1.3732  2.5743  1.9503
   36CHL1    C7 2601   5.879   5.230   7.408 -0.1445  0.3175 -0.2259
   36CHL1   H7A 2602   5.961   5.296   7.444 -0.3607 -0.7353  2.4346
   36CHL1   H7B 2603   5.787   5.289   7.431 -0.4290  0.5265 -1.8093
   36CHL1    C8 2604   5.876   5.090   7.479  0.5657 -0.3260 -0.1882
   36CHL1    H8 2605   5.979   5.052   7.468  0.5675  0.0900 -1.7808
   36CHL1   C14 2606   5.847   5.117   7.625  0.2813 -0.1900  0.7967
   36CHL1   H14 2607   5.739   5.138   7.638  0.6661  0.9906  2.3506
   36CHL1   C15 2608   5.921   5.229   7.703  0.3138  0.7529 -0.3540
   36CHL1  H15A 2609   6.022   5.226   7.656  1.3085  0.0437  1.7361
   36CHL1  H15B 2610   5.871   5.327   7.688  2.5383  1.9528 -0.3531
   36CHL1   C16 2611   5.942   5.173   7.845  0.2099  0.7573 -0.2459
   36CHL1  H16A 2612   6.045   5.145   7.875 -0.1947 -0.4792  0.0292
   36CHL1  H16B 2613   5.905   5.249   7.917  0.8200  1.5697 -0.7744
   36CHL1   C17 2614   5.857   5.045   7.847 -0.2244  0.6250 -0.4724
   36CHL1   H17 2615   5.752   5.076   7.868  0.1360  0.4417  1.8335
   36CHL1   C13 2616   5.854   4.988   7.708 -0.0542 -0.1931  0.1868
   36CHL1   C18 2617   5.983   4.908   7.683  0.3114  0.0087 -0.0077
   36CHL1  H18A 2618   5.996   4.809   7.730  2.9699 -0.5359 -1.6831
   36CHL1  H18B 2619   6.001   4.888   7.575  3.3657  0.6567  0.2770
   36CHL1  H18C 2620   6.069   4.967   7.723 -0.4159  1.0181  0.1156
   36CHL1   C12 2621   5.750   4.896   7.666  0.5598 -0.4032 -0.8186
   36CHL1  H12A 2622   5.767   4.802   7.723  2.4495  1.4778  1.9846
   36CHL1  H12B 2623   5.646   4.928   7.684  1.5037  0.9843  3.2797
   36CHL1   C11 2624   5.750   4.862   7.519  0.0750 -0.4887  0.1451
   36CHL1  H11A 2625   5.825   4.786   7.487  0.2878 -0.1269 -0.2375
   36CHL1  H11B 2626   5.655   4.810   7.495 -1.1127  2.0884 -1.1687
   36CHL1    C9 2627   5.771   4.990   7.426  0.1491  0.3191 -0.0422
   36CHL1    H9 2628   5.677   5.048   7.433 -0.5563 -0.8470  0.5085
   36CHL1   C10 2629   5.786   4.963   7.274 -0.4228  0.0403 -0.1935
   36CHL1   C19 2630   5.889   4.848   7.246 -0.6137  0.0971 -0.1090
   36CHL1  H19A 2631   5.975   4.856   7.316 -0.9668  0.7337  0.2711
   36CHL1  H19B 2632   5.840   4.750   7.263  1.9445 -1.1038  0.8502
   36CHL1  H19C 2633   5.926   4.849   7.141 -0.3053 -0.6942 -0.0148
   36CHL1    C1 2634   5.647   4.914   7.220  0.1117 -0.5332  0.2652
   36CHL1   H1A 2635   5.612   4.823   7.274 -2.6098  0.2393 -0.0964
   36CHL1   H1B 2636   5.580   5.001   7.234  1.8807  1.2291 -1.4478
   36CHL1    C2 2637   5.657   4.894   7.071 -0.9529  0.1350  0.1437
   36CHL1   H2A 2638   5.571   4.841   7.025 -2.1551  0.4467  1.9150
   36CHL1   H2B 2639   5.741   4.828   7.040 -2.4096 -0.9120 -1.7436
   36CHL1   C20 2640   5.896   4.950   7.962 -1.3838 -0.2996  0.8073
   36CHL1   H20 2641   5.996   4.906   7.938 -0.0191  2.3301  1.3355
   36CHL1   C21 2642   5.805   4.827   7.986  0.1801 -0.2972 -0.1539
   36CHL1  H21A 2643   5.817   4.786   8.088  1.2396  0.7385  0.1628
   36CHL1  H21B 2644   5.830   4.745   7.916  2.7099  1.6702 -1.7442
   36CHL1  H21C 2645   5.701   4.851   7.955  0.0581 -2.5280 -1.6923
   36CHL1   C22 2646   5.914   5.022   8.096 -0.1619 -0.5286 -0.9400
   36CHL1  H22A 2647   5.954   4.960   8.179 -1.2323  2.6008  2.1625
   36CHL1  H22B 2648   5.994   5.097   8.081 -0.2279 -0.0470  0.9317
   36CHL1   C23 2649   5.789   5.089   8.141 -0.6529  0.4118 -0.3845
   36CHL1  H23A 2650   5.747   5.160   8.066 -2.3056 -0.6114 -0.4685
   36CHL1  H23B 2651   5.713   5.010   8.156  0.4431 -0.5334  0.3200
   36CHL1   C24 2652   5.825   5.179   8.269  0.0668 -0.2026  0.0372
   36CHL1  H24A 2653   5.869   5.118   8.351  0.4019 -1.8324 -1.2979
   36CHL1  H24B 2654   5.895   5.257   8.233 -0.7855 -1.0486 -3.8927
   36CHL1   C25 2655   5.697   5.240   8.326 -0.9856 -0.3992  0.2575
   36CHL1   H25 2656   5.660   5.310   8.248  1.3041 -1.6690 -2.1498
   36CHL1   C26 2657   5.597   5.129   8.358  0.0150  0.3442 -0.4225
   36CHL1  H26A 2658   5.523   5.170   8.430 -1.8070 -2.8757 -0.2558
   36CHL1  H26B 2659   5.550   5.088   8.266  0.4626 -2.1669  0.3900
   36CHL1  H26C 2660   5.648   5.039   8.399 -1.2440 -0.3210 -0.2553
   36CHL1   C27 2661   5.734   5.326   8.448 -0.1238  0.2773  0.4290
   36CHL1  H27A 2662   5.650   5.390   8.480 -0.9840 -0.2567 -0.6684
   36CHL1  H27B 2663   5.776   5.262   8.528  0.4183 -0.3264 -0.3142
   36CHL1  H27C 2664   5.822   5.390   8.426 -0.2928  1.1695  2.2105
   37CHL1    C3 2665   6.586   0.984   6.920 -0.5205 -0.7702  0.3336
   37CHL1    H3 2666   6.636   1.074   6.961 -1.6238 -1.0761  2.4742
   37CHL1    O3 2667   6.553   1.006   6.781  0.3659  0.2306  0.4930
   37CHL1   H3' 2668   6.517   0.924   6.747  1.1601  0.8786 -2.1365
   37CHL1    C4 2669   6.663   0.858   6.930 -1.1261  0.3602 -0.5228
   37CHL1   H4A 2670   6.610   0.768   6.892  2.1071 -1.1907 -1.7020
   37CHL1   H4B 2671   6.759   0.863   6.874 -1.7048 -1.7379 -1.8279
   37CHL1    C5 2672   6.699   0.836   7.075 -0.6076  0.3243 -0.4290
   37CHL1    C6 2673   6.827   0.834   7.115 -0.5694 -0.3259  0.0178
   37CHL1    H6 2674   6.911   0.834   7.045  0.0668 -0.2070  0.7610
   37CHL1    C7 2675   6.868   0.802   7.253  0.3967  0.7325 -0.2027
   37CHL1   H7A 2676   6.948   0.725   7.243  1.3547  1.9838 -3.3993
   37CHL1   H7B 2677   6.932   0.881   7.298  1.1084  0.7667 -1.2215
   37CHL1    C8 2678   6.750   0.755   7.341 -0.1159  0.6340 -1.1175
   37CHL1    H8 2679   6.741   0.647   7.313 -0.6219  0.9496 -2.2426
   37CHL1   C14 2680   6.785   0.766   7.490  0.3198  0.0740  0.3139
   37CHL1   H14 2681   6.788   0.875   7.512 -1.4280  0.5348 -1.3841
   37CHL1   C15 2682   6.920   0.710   7.529 -0.3089  0.1454 -0.4481
   37CHL1  H15A 2683   6.946   0.616   7.476 -2.0128  0.8009 -2.5844
   37CHL1  H15B 2684   7.001   0.781   7.501 -2.1063  2.2684 -0.4879
   37CHL1   C16 2685   6.906   0.672   7.681 -0.6499 -0.2894 -0.0623
   37CHL1  H16A 2686   6.911   0.561   7.682  0.0916 -0.2784 -0.8775
   37CHL1  H16B 2687   6.986   0.721   7.741  0.7752 -1.7117 -0.7089
   37CHL1   C17 2688   6.758   0.720   7.713  0.5659 -0.5579 -0.1689
   37CHL1   H17 2689   6.771   0.829   7.728  1.1891 -0.6749  0.1928
   37CHL1   C13 2690   6.676   0.721   7.581 -0.1380  0.0565 -0.2738
   37CHL1   C18 2691   6.629   0.566   7.562 -0.7349  0.4592 -0.1702
   37CHL1  H18A 2692   6.717   0.499   7.562 -0.4936  0.7622  0.5805
   37CHL1  H18B 2693   6.571   0.537   7.652  2.3705 -0.8796  1.5249
   37CHL1  H18C 2694   6.568   0.563   7.469 -0.0265 -0.6108 -0.6165
   37CHL1   C12 2695   6.560   0.817   7.573  0.2608 -0.1322 -0.0276
   37CHL1  H12A 2696   6.473   0.799   7.639  0.7516  0.6706  0.8631
   37CHL1  H12B 2697   6.592   0.922   7.592 -0.3802  0.1560 -0.4804
   37CHL1   C11 2698   6.511   0.819   7.427  0.0526  0.3372  0.2634
   37CHL1  H11A 2699   6.466   0.719   7.406  1.9971 -0.4994 -0.1722
   37CHL1  H11B 2700   6.426   0.889   7.416  1.3065  1.6030 -2.2823
   37CHL1    C9 2701   6.624   0.838   7.318 -0.1118 -0.3303 -0.6530
   37CHL1    H9 2702   6.672   0.938   7.329  2.3505 -0.9352 -4.1897
   37CHL1   C10 2703   6.582   0.825   7.171  0.2587  0.3933  0.2419
   37CHL1   C19 2704   6.520   0.682   7.153 -0.2184 -0.1821 -0.9469
   37CHL1  H19A 2705   6.480   0.666   7.051 -0.6676 -2.8677 -0.4353
   37CHL1  H19B 2706   6.588   0.595   7.166  0.6599  0.6834  0.5170
   37CHL1  H19C 2707   6.430   0.661   7.216  0.7352  0.0988  0.5781
   37CHL1    C1 2708   6.477   0.945   7.144  0.6132  0.1600  0.8561
   37CHL1   H1A 2709   6.383   0.912   7.191  0.2494  0.2578  0.2105
   37CHL1   H1B 2710   6.524   1.034   7.192  2.0394  2.0863 -3.5355
   37CHL1    C2 2711   6.454   0.976   6.997 -0.4381  0.3270 -0.5515
   37CHL1   H2A 2712   6.387   1.061   6.976 -0.0080  0.8639  0.1944
   37CHL1   H2B 2713   6.406   0.885   6.955  0.5549 -0.2418 -0.4779
   37CHL1   C20 2714   6.703   0.654   7.842 -0.0824  0.4193  0.5976
   37CHL1   H20 2715   6.689   0.546   7.822  0.0029  0.3560  0.8646
   37CHL1   C21 2716   6.559   0.713   7.878 -0.5184 -0.1111 -0.1703
   37CHL1  H21A 2717   6.477   0.667   7.818 -2.3435  0.2044  1.9599
   37CHL1  H21B 2718   6.552   0.823   7.866  0.6574  0.0297  0.3242
   37CHL1  H21C 2719   6.538   0.698   7.986 -1.9463 -0.7599 -0.5154
   37CHL1   C22 2720   6.792   0.667   7.963 -0.2725  0.5710 -0.1218
   37CHL1  H22A 2721   6.894   0.645   7.925 -0.8867  0.4647 -1.7918
   37CHL1  H22B 2722   6.785   0.775   7.987 -1.6047  0.5782 -0.5104
   37CHL1   C23 2723   6.769   0.564   8.071 -0.4368 -0.1525 -0.1692
   37CHL1  H23A 2724   6.662   0.560   8.102 -0.0035 -3.9244  1.3221
   37CHL1  H23B 2725   6.796   0.466   8.028 -0.8081 -0.8273  1.0751
   37CHL1   C24 2726   6.859   0.585   8.191 -0.1627  0.4295 -0.3601
   37CHL1  H24A 2727   6.966   0.596   8.163  0.0500 -3.2315 -1.5735
   37CHL1  H24B 2728   6.823   0.679   8.239  1.0829  1.6925 -1.7999
   37CHL1   C25 2729   6.839   0.478   8.296 -0.3748  0.9045 -0.4243
   37CHL1   H25 2730   6.875   0.383   8.251  2.0915  1.5385  0.0450
   37CHL1   C26 2731   6.932   0.511   8.426  0.2165  0.0219 -0.7562
   37CHL1  H26A 2732   6.940   0.423   8.494 -0.8891  1.0776  0.8205
   37CHL1  H26B 2733   7.035   0.536   8.395  0.4588  3.4148  2.1550
   37CHL1  H26C 2734   6.894   0.603   8.475  0.5777  0.4479 -1.2572
   37CHL1   C27 2735   6.694   0.471   8.347 -0.1681 -0.0862 -0.0032
   37CHL1  H27A 2736   6.628   0.443   8.262 -0.0065 -1.9338  0.4354
   37CHL1  H27B 2737   6.688   0.417   8.444  1.5016  0.9028  0.7072
   37CHL1  H27C 2738   6.667   0.574   8.379  0.2120 -0.4519  1.6066
   38CHL1    C3 2739   2.293   0.455   6.554  0.2490 -0.1261 -0.1644
   38CHL1    H3 2740   2.260   0.351   6.575  0.0431 -0.4984 -2.1763
   38CHL1    O3 2741   2.308   0.462   6.414  0.4417 -0.2889  0.2647
   38CHL1   H3' 2742   2.357   0.544   6.400 -2.3478  1.3097 -1.1577
   38CHL1    C4 2743   2.187   0.562   6.599  0.4739 -0.1395  0.5316
   38CHL1   H4A 2744   2.222   0.665   6.577  1.9779 -0.7316 -0.0500
   38CHL1   H4B 2745   2.095   0.554   6.538 -0.4809 -0.0075  1.9113
   38CHL1    C5 2746   2.164   0.555   6.751 -0.1641  0.3664 -0.3678
   38CHL1    C6 2747   2.040   0.535   6.804 -0.2200  0.2029 -0.1751
   38CHL1    H6 2748   1.957   0.540   6.732  0.4332  0.9217 -0.9035
   38CHL1    C7 2749   2.015   0.556   6.949  0.8612  0.2869 -0.0736
   38CHL1   H7A 2750   1.924   0.615   6.971 -0.3924 -1.5741  0.0213
   38CHL1   H7B 2751   1.998   0.447   6.966  0.7001 -0.1385 -2.5053
   38CHL1    C8 2752   2.140   0.606   7.037 -0.3686  0.2360  0.0612
   38CHL1    H8 2753   2.134   0.715   7.015 -2.2448 -0.2621 -2.2186
   38CHL1   C14 2754   2.126   0.576   7.184 -0.4334  0.7847  0.1547
   38CHL1   H14 2755   2.115   0.465   7.181  0.6712  0.6816 -0.4153
   38CHL1   C15 2756   1.999   0.627   7.257 -0.5607 -0.9793 -0.1623
   38CHL1  H15A 2757   1.970   0.728   7.222  1.0614 -0.4190  0.0378
   38CHL1  H15B 2758   1.907   0.564   7.248 -2.8594  1.4835  3.4704
   38CHL1   C16 2759   2.035   0.628   7.402 -0.2522  0.3513 -0.4159
   38CHL1  H16A 2760   2.000   0.722   7.448  0.4368 -0.3971  1.7737
   38CHL1  H16B 2761   1.996   0.544   7.464 -2.0396 -0.2819 -2.3158
   38CHL1   C17 2762   2.187   0.600   7.410 -0.1186  0.0352  0.2221
   38CHL1   H17 2763   2.208   0.493   7.430  2.0348  0.3377 -0.2287
   38CHL1   C13 2764   2.242   0.634   7.266 -0.0035  0.6170  0.2335
   38CHL1   C18 2765   2.263   0.784   7.257  0.1516 -0.1715 -0.3854
   38CHL1  H18A 2766   2.187   0.861   7.283  0.5343  0.1716 -0.2757
   38CHL1  H18B 2767   2.351   0.813   7.318 -0.0875 -1.5074  0.6363
   38CHL1  H18C 2768   2.293   0.810   7.153 -0.9272  1.9976 -0.2036
   38CHL1   C12 2769   2.373   0.562   7.220 -0.1582 -0.0887  0.0929
   38CHL1  H12A 2770   2.468   0.587   7.273  0.2107 -0.4075 -0.4082
   38CHL1  H12B 2771   2.363   0.455   7.248 -1.6090  0.1101  0.4231
   38CHL1   C11 2772   2.396   0.586   7.065  0.0928  0.7908  0.7056
   38CHL1  H11A 2773   2.430   0.691   7.050 -0.7418  0.9639 -0.1492
   38CHL1  H11B 2774   2.489   0.535   7.032 -0.8964 -0.1423 -0.7835
   38CHL1    C9 2775   2.271   0.552   6.973 -0.5631  0.2762 -0.5444
   38CHL1    H9 2776   2.249   0.444   6.980 -0.1091  0.0904 -1.7874
   38CHL1   C10 2777   2.296   0.576   6.829 -0.1607  0.6466 -0.3647
   38CHL1   C19 2778   2.328   0.731   6.807 -0.2127  0.5048 -0.4185
   38CHL1  H19A 2779   2.255   0.788   6.869 -0.3938 -1.9875  1.8432
   38CHL1  H19B 2780   2.433   0.752   6.834  1.0517 -2.3803 -2.6415
   38CHL1  H19C 2781   2.333   0.770   6.703  1.0357 -0.3043 -0.6738
   38CHL1    C1 2782   2.404   0.473   6.777 -0.1771  0.1290 -0.3377
   38CHL1   H1A 2783   2.502   0.497   6.823 -0.0231  1.4866 -1.3123
   38CHL1   H1B 2784   2.376   0.375   6.822  1.2710 -0.2607 -0.2525
   38CHL1    C2 2785   2.424   0.466   6.626  0.8533  0.5545  0.2709
   38CHL1   H2A 2786   2.492   0.390   6.582 -0.1630  1.6029 -3.4475
   38CHL1   H2B 2787   2.480   0.549   6.577 -0.6642 -0.1808 -2.9567
   38CHL1   C20 2788   2.247   0.677   7.529 -0.6115 -0.0120  1.1197
   38CHL1   H20 2789   2.234   0.785   7.508  0.4502 -0.3448 -1.7886
   38CHL1   C21 2790   2.397   0.649   7.542 -0.0819  0.5798  0.0728
   38CHL1  H21A 2791   2.405   0.539   7.558 -0.3197  0.5508 -0.0074
   38CHL1  H21B 2792   2.432   0.685   7.641 -0.5638 -0.0221  0.4686
   38CHL1  H21C 2793   2.461   0.698   7.466 -0.1124  0.8190  0.2006
   38CHL1   C22 2794   2.180   0.644   7.668  0.3602 -0.1103 -0.4953
   38CHL1  H22A 2795   2.251   0.691   7.739  2.1071 -0.8325 -1.7000
   38CHL1  H22B 2796   2.079   0.686   7.690  0.3746  0.8142 -2.0192
   38CHL1   C23 2797   2.184   0.497   7.704  0.5630  0.1146  0.6056
   38CHL1  H23A 2798   2.122   0.446   7.628 -0.7820  2.1078  0.2737
   38CHL1  H23B 2799   2.284   0.455   7.683  0.1264  0.4887 -2.8156
   38CHL1   C24 2800   2.143   0.468   7.851 -0.6076 -0.8843  0.2948
   38CHL1  H24A 2801   2.225   0.512   7.910 -1.1451 -1.1218  1.2476
   38CHL1  H24B 2802   2.048   0.524   7.866  0.2077  0.0816  2.0749
   38CHL1   C25 2803   2.126   0.317   7.868 -0.1690 -0.8393 -0.4536
   38CHL1   H25 2804   2.054   0.276   7.795 -1.3231  0.0959  0.1278
   38CHL1   C26 2805   2.257   0.241   7.874  0.0579 -0.8902  0.5456
   38CHL1  H26A 2806   2.246   0.141   7.922  0.9692 -0.2437  2.1782
   38CHL1  H26B 2807   2.285   0.229   7.767 -2.2245 -0.8135 -0.0996
   38CHL1  H26C 2808   2.341   0.285   7.932  1.0141 -0.5068 -1.0736
   38CHL1   C27 2809   2.071   0.303   8.017 -0.3061  0.2742  0.4093
   38CHL1  H27A 2810   2.066   0.194   8.035  2.4094 -0.0883 -0.4467
   38CHL1  H27B 2811   2.133   0.344   8.100  0.0578 -0.2923  0.4239
   38CHL1  H27C 2812   1.976   0.359   8.025  0.6433  1.8616  1.1702
   39CHL1    C3 2813   0.730   6.683   7.029 -0.0215  0.2254  0.3226
   39CHL1    H3 2814   0.667   6.597   7.060  1.5876 -0.4313  2.0111
   39CHL1    O3 2815   0.732   6.693   6.887 -0.3028  0.0835  0.2010
   39CHL1   H3' 2816   0.676   6.769   6.869 -0.6280 -0.7508 -3.0312
   39CHL1    C4 2817   0.663   6.809   7.084  0.1574 -0.1803 -0.2777
   39CHL1   H4A 2818   0.729   6.895   7.059 -3.0680  2.7414  0.4187
   39CHL1   H4B 2819   0.568   6.831   7.031  0.5524  1.1110 -0.4858
   39CHL1    C5 2820   0.658   6.819   7.238 -0.3448  0.7646  0.0109
   39CHL1    C6 2821   0.536   6.818   7.293 -0.1095  0.1492  0.3314
   39CHL1    H6 2822   0.451   6.837   7.225 -0.0227  0.5044  0.3219
   39CHL1    C7 2823   0.503   6.825   7.440 -0.1933 -0.2361  0.1519
   39CHL1   H7A 2824   0.432   6.909   7.460 -1.0109 -0.9848  0.4349
   39CHL1   H7B 2825   0.457   6.732   7.479  1.4463 -0.3173  2.0405
   39CHL1    C8 2826   0.640   6.856   7.511  0.2226 -0.0377  0.5519
   39CHL1    H8 2827   0.660   6.965   7.507  0.0939  0.1637  3.1873
   39CHL1   C14 2828   0.609   6.820   7.658  0.1890  0.0109 -0.0772
   39CHL1   H14 2829   0.587   6.711   7.669 -1.2970  0.2374 -0.5366
   39CHL1   C15 2830   0.489   6.901   7.725  0.2329  0.2834  0.0113
   39CHL1  H15A 2831   0.510   7.009   7.707 -1.1167  0.5008 -0.3241
   39CHL1  H15B 2832   0.388   6.877   7.686  0.5343 -2.5719  0.7548
   39CHL1   C16 2833   0.498   6.864   7.873 -0.2298 -0.5176 -0.1720
   39CHL1  H16A 2834   0.477   6.957   7.930  0.2067 -0.7814  0.4281
   39CHL1  H16B 2835   0.433   6.781   7.910  0.8801 -1.8500 -1.1091
   39CHL1   C17 2836   0.645   6.806   7.896 -0.1756 -0.2233 -0.5430
   39CHL1   H17 2837   0.629   6.697   7.906 -2.0083  0.0660 -0.0090
   39CHL1   C13 2838   0.724   6.836   7.762 -0.0323 -0.6070  0.1900
   39CHL1   C18 2839   0.768   6.983   7.774  0.4073 -0.2852  1.0351
   39CHL1  H18A 2840   0.859   7.000   7.834  0.4032 -3.0311  1.9180
   39CHL1  H18B 2841   0.794   7.010   7.669 -1.7459 -1.4263  0.1402
   39CHL1  H18C 2842   0.693   7.058   7.809 -0.6991 -0.6144 -0.4899
   39CHL1   C12 2843   0.839   6.745   7.706  0.5800 -0.1322 -0.1059
   39CHL1  H12A 2844   0.933   6.734   7.765  2.9600 -0.0771 -3.5974
   39CHL1  H12B 2845   0.804   6.639   7.704 -0.0837  0.0768  0.2063
   39CHL1   C11 2846   0.871   6.769   7.560  0.3495 -0.0574 -0.0366
   39CHL1  H11A 2847   0.929   6.863   7.553  2.4948 -1.0100  2.9792
   39CHL1  H11B 2848   0.931   6.678   7.537 -2.0550 -2.5962  2.8053
   39CHL1    C9 2849   0.754   6.772   7.461  0.3278 -0.3351  0.1724
   39CHL1    H9 2850   0.714   6.668   7.458  0.0547 -0.2544  0.8145
   39CHL1   C10 2851   0.790   6.804   7.311 -0.5573 -0.0765  0.3893
   39CHL1   C19 2852   0.873   6.934   7.290  0.2326 -0.3821 -0.3824
   39CHL1  H19A 2853   0.829   7.027   7.332  1.3280  1.9655 -3.9760
   39CHL1  H19B 2854   0.974   6.922   7.336 -0.7705 -1.2452  1.7146
   39CHL1  H19C 2855   0.885   6.945   7.180  1.3776 -0.6341 -0.3051
   39CHL1    C1 2856   0.871   6.680   7.249 -0.2130  0.2089 -0.7461
   39CHL1   H1A 2857   0.975   6.686   7.289 -0.7874 -0.1600  0.8594
   39CHL1   H1B 2858   0.824   6.587   7.284 -3.5402  1.5437 -1.3366
   39CHL1    C2 2859   0.868   6.676   7.089  0.1935  0.3083 -0.0699
   39CHL1   H2A 2860   0.931   6.589   7.060 -0.1206 -0.9276  2.6273
   39CHL1   H2B 2861   0.913   6.769   7.049  0.2791  0.1353 -0.3787
   39CHL1   C20 2862   0.704   6.844   8.031  0.3629 -0.4796  0.1466
   39CHL1   H20 2863   0.703   6.954   8.045  3.2283 -0.5379  1.4308
   39CHL1   C21 2864   0.856   6.803   8.038  0.3391 -0.8031  0.3941
   39CHL1  H21A 2865   0.865   6.695   8.062  1.4919 -0.8754 -0.2810
   39CHL1  H21B 2866   0.909   6.850   8.123 -0.2909  1.0377 -0.1617
   39CHL1  H21C 2867   0.903   6.847   7.947 -3.4936  0.9025 -0.9663
   39CHL1   C22 2868   0.616   6.774   8.144  0.5334 -0.4576 -0.9972
   39CHL1  H22A 2869   0.509   6.804   8.146  0.3328 -1.1998 -0.1528
   39CHL1  H22B 2870   0.613   6.664   8.131  0.8139 -0.6960  0.7245
   39CHL1   C23 2871   0.675   6.804   8.288 -0.3003  0.1376 -0.0509
   39CHL1  H23A 2872   0.767   6.746   8.311 -1.4204 -0.4889  3.3993
   39CHL1  H23B 2873   0.700   6.912   8.299  2.3961 -0.4669  0.6124
   39CHL1   C24 2874   0.563   6.778   8.377 -0.2107  0.4848  0.1286
   39CHL1  H24A 2875   0.471   6.829   8.344  1.2910  2.1452 -1.7725
   39CHL1  H24B 2876   0.539   6.670   8.369  1.9912 -0.0123 -0.6600
   39CHL1   C25 2877   0.598   6.794   8.524  0.0740 -0.0751 -0.0978
   39CHL1   H25 2878   0.680   6.728   8.559  0.1307  0.5529  1.0178
   39CHL1   C26 2879   0.654   6.932   8.560  0.7774 -0.0513  0.5149
   39CHL1  H26A 2880   0.595   7.015   8.514 -0.0872 -0.4411  0.8953
   39CHL1  H26B 2881   0.661   6.947   8.670  3.6158 -1.0134  0.5283
   39CHL1  H26C 2882   0.756   6.938   8.518  1.4741 -1.4295  1.9258
   39CHL1   C27 2883   0.482   6.754   8.618 -0.2232 -0.2024 -0.4130
   39CHL1  H27A 2884   0.466   6.644   8.625 -0.0453 -0.1300  1.7782
   39CHL1  H27B 2885   0.512   6.779   8.722 -0.1972  0.8563 -0.6578
   39CHL1  H27C 2886   0.384   6.796   8.588 -0.7657 -1.9015 -1.1234
   40CHL1    C3 2887   0.005   5.619   6.680  0.0025 -0.1033 -0.2161
   40CHL1    H3 2888   0.061   5.712   6.705 -1.6702  1.1311 -0.8660
   40CHL1    O3 2889   0.005   5.586   6.541  0.1862 -0.2124  0.1728
   40CHL1   H3' 2890  -0.072   5.531   6.523 -1.9051  2.6799 -0.3626
   40CHL1    C4 2891   0.055   5.513   6.769 -0.2423  1.0683 -0.0347
   40CHL1   H4A 2892   0.004   5.419   6.738 -0.7991  1.0371  0.9236
   40CHL1   H4B 2893   0.159   5.491   6.738 -0.8195  1.2703 -2.3734
   40CHL1    C5 2894   0.041   5.532   6.920  0.2093 -0.5255  0.2596
   40CHL1    C6 2895   0.139   5.528   7.012 -0.5932 -0.3472  0.4149
   40CHL1    H6 2896   0.242   5.505   6.982  0.4417  0.2611  3.1932
   40CHL1    C7 2897   0.117   5.556   7.156 -0.6250 -0.4495  0.0556
   40CHL1   H7A 2898   0.186   5.485   7.206 -0.0662 -1.5992 -2.1898
   40CHL1   H7B 2899   0.137   5.663   7.177 -4.1159  0.6343 -1.4406
   40CHL1    C8 2900  -0.022   5.532   7.203 -0.5872 -0.1286  0.0241
   40CHL1    H8 2901  -0.048   5.424   7.204 -3.2177  0.4468  0.4209
   40CHL1   C14 2902  -0.042   5.596   7.344  0.0102  0.3604  0.2821
   40CHL1   H14 2903  -0.002   5.699   7.336  0.3845  0.1408 -0.8504
   40CHL1   C15 2904   0.046   5.543   7.462  0.4446  0.0487 -0.0889
   40CHL1  H15A 2905   0.032   5.432   7.462 -1.1297  0.2222 -0.1323
   40CHL1  H15B 2906   0.153   5.571   7.449  0.8372  0.2568  2.8479
   40CHL1   C16 2907  -0.013   5.610   7.587  0.0722 -0.9455 -0.6204
   40CHL1  H16A 2908  -0.027   5.534   7.667  3.3034 -0.6289  0.3958
   40CHL1  H16B 2909   0.055   5.690   7.623 -1.9888 -0.0997  1.6736
   40CHL1   C17 2910  -0.147   5.672   7.544 -0.3478 -0.0230 -0.7254
   40CHL1   H17 2911  -0.120   5.777   7.520 -2.6297  1.3775  2.2271
   40CHL1   C13 2912  -0.187   5.603   7.407 -0.4432  0.1331  0.3716
   40CHL1   C18 2913  -0.240   5.463   7.437 -0.0760 -0.3444  0.2386
   40CHL1  H18A 2914  -0.317   5.475   7.515  0.3180 -1.9460  0.9132
   40CHL1  H18B 2915  -0.280   5.409   7.349 -1.5828  1.8206 -0.4720
   40CHL1  H18C 2916  -0.165   5.392   7.477 -2.4172 -1.9093  2.0623
   40CHL1   C12 2917  -0.284   5.673   7.309  0.2750 -0.1570 -0.0141
   40CHL1  H12A 2918  -0.390   5.657   7.339 -0.2101  3.2076  0.3996
   40CHL1  H12B 2919  -0.271   5.783   7.314 -0.6676 -0.0073 -0.5674
   40CHL1   C11 2920  -0.269   5.615   7.168  0.0289 -0.4106  0.1888
   40CHL1  H11A 2921  -0.320   5.517   7.177 -2.4720  0.4724 -2.5794
   40CHL1  H11B 2922  -0.338   5.678   7.107  1.5216  2.0680  0.8963
   40CHL1    C9 2923  -0.120   5.607   7.112 -0.2243 -0.2078  0.0756
   40CHL1    H9 2924  -0.092   5.714   7.124 -0.4352 -0.0341 -0.9028
   40CHL1   C10 2925  -0.109   5.570   6.961  0.2845  0.9992  0.1720
   40CHL1   C19 2926  -0.198   5.442   6.941  0.0350  0.2055  0.3589
   40CHL1  H19A 2927  -0.157   5.373   7.017 -0.6425 -0.4787  0.1188
   40CHL1  H19B 2928  -0.306   5.465   6.952  0.0336  0.5987 -0.3758
   40CHL1  H19C 2929  -0.187   5.407   6.836 -1.2556  1.5753 -0.2756
   40CHL1    C1 2930  -0.167   5.681   6.868  0.0862 -0.1393  0.1186
   40CHL1   H1A 2931  -0.276   5.700   6.873  0.2963  0.9346  1.3948
   40CHL1   H1B 2932  -0.125   5.782   6.888  0.0006 -0.2021  0.6335
   40CHL1    C2 2933  -0.136   5.661   6.715  0.1089 -0.1326 -0.0379
   40CHL1   H2A 2934  -0.168   5.753   6.661  2.8276  1.4247  0.8107
   40CHL1   H2B 2935  -0.202   5.577   6.684  1.7014 -0.5338 -2.6081
   40CHL1   C20 2936  -0.234   5.695   7.668 -0.0896 -0.2759 -0.0672
   40CHL1   H20 2937  -0.266   5.600   7.716 -2.5105  0.1838 -0.6135
   40CHL1   C21 2938  -0.355   5.771   7.625 -0.9946  0.5496  0.8971
   40CHL1  H21A 2939  -0.433   5.705   7.582 -1.6116 -0.2380  3.0752
   40CHL1  H21B 2940  -0.336   5.854   7.554  1.3290 -0.4565  0.2566
   40CHL1  H21C 2941  -0.407   5.815   7.713 -0.0431 -0.7289  2.1465
   40CHL1   C22 2942  -0.177   5.788   7.781  0.0758 -0.3934 -0.2899
   40CHL1  H22A 2943  -0.066   5.786   7.787  0.2768  2.8451 -1.1958
   40CHL1  H22B 2944  -0.203   5.893   7.754  1.4199 -0.3709 -1.6853
   40CHL1   C23 2945  -0.246   5.767   7.911  0.0564  0.3164 -0.8540
   40CHL1  H23A 2946  -0.356   5.784   7.908 -0.6104 -2.5588  1.6246
   40CHL1  H23B 2947  -0.231   5.660   7.936 -1.2889  0.3411  0.1288
   40CHL1   C24 2948  -0.182   5.853   8.014  0.4838  0.3571 -0.4476
   40CHL1  H24A 2949  -0.080   5.811   8.030  0.3906  0.4156  0.3757
   40CHL1  H24B 2950  -0.176   5.958   7.980  3.7649  1.0619  1.7674
   40CHL1   C25 2951  -0.258   5.854   8.150  0.1950 -0.3081  0.3916
   40CHL1   H25 2952  -0.365   5.883   8.143 -0.5802 -3.1055 -1.0080
   40CHL1   C26 2953  -0.257   5.717   8.214 -0.8134  0.0016  0.1783
   40CHL1  H26A 2954  -0.155   5.692   8.252 -1.5380 -2.1809  0.8441
   40CHL1  H26B 2955  -0.318   5.733   8.305 -0.2141  0.6294  0.4795
   40CHL1  H26C 2956  -0.292   5.635   8.148 -0.1486  0.5513 -0.8869
   40CHL1   C27 2957  -0.186   5.960   8.240 -0.1160  0.0204 -0.3672
   40CHL1  H27A 2958  -0.193   6.064   8.204  2.4854  0.0648 -0.9092
   40CHL1  H27B 2959  -0.229   5.965   8.343  2.8629  1.1051  0.9221
   40CHL1  H27C 2960  -0.079   5.935   8.257  0.1655  0.2268 -1.7668
   41CHL1    C3 2961   6.644   4.727   6.811 -0.3965 -0.4362 -0.4424
   41CHL1    H3 2962   6.649   4.837   6.829  1.4293 -0.1164 -2.5248
   41CHL1    O3 2963   6.635   4.703   6.676  0.1995  0.0853 -0.1136
   41CHL1   H3' 2964   6.541   4.708   6.657  0.0709  0.2981  0.5600
   41CHL1    C4 2965   6.773   4.664   6.865  0.3322 -0.1776 -0.3264
   41CHL1   H4A 2966   6.793   4.559   6.832  1.8383 -0.6048  1.6864
   41CHL1   H4B 2967   6.851   4.728   6.819 -0.1164  0.8833  0.3556
   41CHL1    C5 2968   6.786   4.668   7.018 -1.0073  0.8759  0.3026
   41CHL1    C6 2969   6.896   4.722   7.073 -0.5390  0.0926  0.3188
   41CHL1    H6 2970   6.976   4.765   7.012  0.1380 -1.3996  0.1184
   41CHL1    C7 2971   6.921   4.726   7.228  0.3132 -0.4037  0.0846
   41CHL1   H7A 2972   7.022   4.708   7.270 -1.1354 -3.3788  2.6991
   41CHL1   H7B 2973   6.891   4.827   7.265  1.2257 -0.0478 -0.1220
   41CHL1    C8 2974   6.827   4.615   7.302  0.2893 -0.2155 -0.7792
   41CHL1    H8 2975   6.874   4.522   7.262  0.8621 -0.3881  0.2479
   41CHL1   C14 2976   6.827   4.625   7.454  0.5529  0.1320 -0.3444
   41CHL1   H14 2977   6.791   4.726   7.483 -1.4511 -0.6084 -0.0274
   41CHL1   C15 2978   6.961   4.620   7.531 -0.1792 -0.1417 -1.0464
   41CHL1  H15A 2979   7.024   4.551   7.472 -0.1334 -2.7891  1.8633
   41CHL1  H15B 2980   7.020   4.713   7.547  3.1667 -2.1801 -0.6673
   41CHL1   C16 2981   6.937   4.561   7.667  0.0763 -0.6102  0.0128
   41CHL1  H16A 2982   6.982   4.459   7.665  0.9002 -0.2668 -2.5243
   41CHL1  H16B 2983   6.988   4.619   7.746  0.4604 -1.3773  0.3462
   41CHL1   C17 2984   6.786   4.564   7.687  0.9065  0.7332 -0.4735
   41CHL1   H17 2985   6.749   4.665   7.713  1.6563  0.7955  0.4061
   41CHL1   C13 2986   6.726   4.536   7.540 -0.0905 -0.3121 -0.3791
   41CHL1   C18 2987   6.757   4.387   7.508 -0.0103 -0.1654 -0.3286
   41CHL1  H18A 2988   6.793   4.364   7.406 -1.5835  1.8841 -1.4175
   41CHL1  H18B 2989   6.832   4.347   7.579 -0.1541  2.3350  1.3730
   41CHL1  H18C 2990   6.663   4.327   7.514  0.4432 -0.9467 -0.8600
   41CHL1   C12 2991   6.587   4.575   7.496 -0.6837 -0.0258  0.5918
   41CHL1  H12A 2992   6.507   4.513   7.543  0.4584 -1.4900  0.6938
   41CHL1  H12B 2993   6.565   4.679   7.528 -3.6141 -0.4850  0.3434
   41CHL1   C11 2994   6.569   4.557   7.341  0.0182  0.2162 -0.0503
   41CHL1  H11A 2995   6.581   4.448   7.322  0.2042 -0.3240  2.7315
   41CHL1  H11B 2996   6.468   4.591   7.309 -0.1755 -1.1577 -0.9945
   41CHL1    C9 2997   6.680   4.633   7.256 -0.9964 -0.0184  0.0019
   41CHL1    H9 2998   6.655   4.738   7.279  1.0623  0.4455  0.2933
   41CHL1   C10 2999   6.665   4.608   7.101 -1.0229 -0.0869  0.0899
   41CHL1   C19 3000   6.644   4.458   7.082 -0.0201 -0.0795  1.0285
   41CHL1  H19A 3001   6.652   4.438   6.973  0.3332  0.2196  0.9982
   41CHL1  H19B 3002   6.713   4.403   7.150 -0.2583 -0.2591  1.1258
   41CHL1  H19C 3003   6.537   4.436   7.100 -0.1406 -0.8354 -0.4840
   41CHL1    C1 3004   6.551   4.689   7.046  0.3276  0.8207  0.5798
   41CHL1   H1A 3005   6.457   4.648   7.088 -0.4359  1.7978 -0.1291
   41CHL1   H1B 3006   6.557   4.795   7.078  2.4442  0.3449  2.0296
   41CHL1    C2 3007   6.519   4.677   6.893  0.6420  0.5929  0.5300
   41CHL1   H2A 3008   6.432   4.738   6.860 -0.3072 -1.9863 -2.1435
   41CHL1   H2B 3009   6.494   4.573   6.866 -2.1243  1.0645  0.9897
   41CHL1   C20 3010   6.745   4.478   7.808 -0.3712 -0.4336  0.7744
   41CHL1   H20 3011   6.743   4.368   7.788 -0.1107 -0.4691  0.9475
   41CHL1   C21 3012   6.590   4.497   7.844  0.2739 -0.0150  0.0957
   41CHL1  H21A 3013   6.583   4.587   7.907 -1.0304  0.0893 -0.1614
   41CHL1  H21B 3014   6.557   4.411   7.906  0.1620  0.8848  1.3027
   41CHL1  H21C 3015   6.530   4.504   7.750  1.0431  2.1056 -0.2980
   41CHL1   C22 3016   6.836   4.496   7.940  0.0803 -0.3513 -0.0922
   41CHL1  H22A 3017   6.945   4.505   7.918  0.3794  0.9230  1.6768
   41CHL1  H22B 3018   6.808   4.597   7.976 -1.9644 -0.8968 -0.0264
   41CHL1   C23 3019   6.811   4.380   8.041  0.2504 -0.1131 -0.3614
   41CHL1  H23A 3020   6.703   4.373   8.065  0.4113 -1.3890  0.0703
   41CHL1  H23B 3021   6.846   4.283   8.000 -2.2573 -1.8528  1.3428
   41CHL1   C24 3022   6.893   4.399   8.172  0.3605 -0.4759  0.1972
   41CHL1  H24A 3023   6.910   4.303   8.225  0.1623 -0.0686  1.0257
   41CHL1  H24B 3024   6.992   4.441   8.146 -0.5836  2.5003  0.9600
   41CHL1   C25 3025   6.819   4.505   8.258 -0.2997 -0.3388 -0.0119
   41CHL1   H25 3026   6.787   4.593   8.198 -4.1205 -2.2013 -1.0418
   41CHL1   C26 3027   6.686   4.460   8.318 -0.0575 -0.4076  0.6790
   41CHL1  H26A 3028   6.600   4.453   8.249  0.4445  3.1206 -0.5095
   41CHL1  H26B 3029   6.698   4.365   8.375 -2.4473 -0.7391  0.7164
   41CHL1  H26C 3030   6.661   4.543   8.387 -0.7922 -0.3864  0.3859
   41CHL1   C27 3031   6.902   4.548   8.375  0.1967  0.3968 -0.2940
   41CHL1  H27A 3032   6.911   4.463   8.447  2.3012  1.2953  0.6115
   41CHL1  H27B 3033   7.005   4.573   8.340  0.2496  0.0426 -0.3951
   41CHL1  H27C 3034   6.863   4.640   8.425  1.5903  0.7727  0.1601
   42CHL1    C3 3035   0.871   2.536   6.636  0.2995  0.6860 -0.3617
   42CHL1    H3 3036   0.812   2.628   6.615  0.4877  1.1463  1.0806
   42CHL1    O3 3037   0.913   2.466   6.518 -0.1879 -0.1976 -0.1073
   42CHL1   H3' 3038   0.981   2.521   6.477  1.9425 -0.4774  2.8092
   42CHL1    C4 3039   1.000   2.575   6.721  0.8324 -0.8537  0.4536
   42CHL1   H4A 3040   1.083   2.501   6.722  2.2696  0.7000  1.3551
   42CHL1   H4B 3041   1.040   2.652   6.652 -1.5415  1.0432  1.0775
   42CHL1    C5 3042   0.964   2.626   6.861  0.8241  1.0160  0.2549
   42CHL1    C6 3043   1.010   2.737   6.914 -0.7214  0.4415 -0.0539
   42CHL1    H6 3044   1.068   2.807   6.852  0.5553  1.1915  1.8773
   42CHL1    C7 3045   0.980   2.772   7.057  0.8753  0.5804 -0.2125
   42CHL1   H7A 3046   1.072   2.803   7.111  0.9929 -2.1512  1.2889
   42CHL1   H7B 3047   0.905   2.853   7.066  0.1121  0.0936 -1.9248
   42CHL1    C8 3048   0.929   2.649   7.140  0.5646 -0.4362 -0.6514
   42CHL1    H8 3049   1.018   2.586   7.160  0.4900  0.1906  1.9867
   42CHL1   C14 3050   0.860   2.694   7.278  0.6944 -0.3428  0.9398
   42CHL1   H14 3051   0.769   2.744   7.239 -0.6616 -3.0941  0.2995
   42CHL1   C15 3052   0.933   2.787   7.372  0.1162  0.1375 -0.8598
   42CHL1  H15A 3053   1.036   2.749   7.388 -0.0428  0.5207  1.3164
   42CHL1  H15B 3054   0.942   2.890   7.332 -2.3247  0.7449 -0.0246
   42CHL1   C16 3055   0.857   2.775   7.510  0.7677 -0.0847  0.3847
   42CHL1  H16A 3056   0.940   2.756   7.582  1.2595  0.7536  0.0608
   42CHL1  H16B 3057   0.810   2.873   7.532  2.2749  0.4946  1.2060
   42CHL1   C17 3058   0.749   2.659   7.488  0.2651 -0.4029 -0.8859
   42CHL1   H17 3059   0.661   2.719   7.458  0.5432  0.0737 -0.7522
   42CHL1   C13 3060   0.807   2.581   7.368 -0.1023 -0.4550  0.6586
   42CHL1   C18 3061   0.924   2.501   7.426 -0.3373 -0.1986  0.4059
   42CHL1  H18A 3062   1.013   2.561   7.456 -0.3229  0.3366 -0.6557
   42CHL1  H18B 3063   0.895   2.431   7.507 -0.2160 -0.2061  0.4434
   42CHL1  H18C 3064   0.972   2.440   7.346  1.2026  0.0489  1.1104
   42CHL1   C12 3065   0.710   2.496   7.286 -0.2856 -0.5221 -0.9853
   42CHL1  H12A 3066   0.682   2.405   7.342 -2.3433  0.6158 -0.0424
   42CHL1  H12B 3067   0.623   2.560   7.258  1.1634  2.7416  1.3346
   42CHL1   C11 3068   0.767   2.448   7.156 -0.2067 -0.0436  0.4354
   42CHL1  H11A 3069   0.835   2.363   7.178  1.0329  0.5186 -1.0553
   42CHL1  H11B 3070   0.680   2.406   7.102  0.7431 -0.9813 -0.4178
   42CHL1    C9 3071   0.829   2.556   7.073  0.1501 -0.1076  0.2528
   42CHL1    H9 3072   0.746   2.629   7.057  0.7832  0.6699  0.4570
   42CHL1   C10 3073   0.882   2.515   6.936 -0.1373  0.8308 -0.2333
   42CHL1   C19 3074   0.981   2.398   6.944 -0.2026  0.0441 -0.0365
   42CHL1  H19A 3075   0.987   2.348   6.846 -2.2983  0.7608 -0.6000
   42CHL1  H19B 3076   1.073   2.434   6.996 -1.5136  2.5001  0.7719
   42CHL1  H19C 3077   0.920   2.325   7.001 -2.0717  1.1078 -0.5852
   42CHL1    C1 3078   0.757   2.474   6.849 -0.3632 -0.4069 -0.9519
   42CHL1   H1A 3079   0.698   2.391   6.894 -0.5706 -0.3619 -1.1350
   42CHL1   H1B 3080   0.687   2.560   6.844 -0.1414 -0.1388  0.2001
   42CHL1    C2 3081   0.789   2.436   6.707  0.2693 -0.1490  0.0278
   42CHL1   H2A 3082   0.690   2.434   6.656  0.5569 -2.5748 -0.5417
   42CHL1   H2B 3083   0.833   2.334   6.701 -0.3919 -0.5031  0.9968
   42CHL1   C20 3084   0.691   2.583   7.619 -0.0069 -0.4858  0.1204
   42CHL1   H20 3085   0.776   2.520   7.651 -0.0592  0.2212  1.7133
   42CHL1   C21 3086   0.570   2.499   7.582  0.2139  0.2526 -0.0857
   42CHL1  H21A 3087   0.596   2.417   7.512 -3.2614 -0.4921 -0.6675
   42CHL1  H21B 3088   0.493   2.557   7.527 -0.9614 -0.8476  0.3418
   42CHL1  H21C 3089   0.528   2.454   7.675 -0.7404  0.1283 -0.5636
   42CHL1   C22 3090   0.648   2.678   7.731  0.4217  0.4303  0.2945
   42CHL1  H22A 3091   0.717   2.764   7.747 -0.2092  0.8572  0.7717
   42CHL1  H22B 3092   0.547   2.722   7.716 -0.2255 -0.0986  2.6855
   42CHL1   C23 3093   0.648   2.609   7.874  0.1849  0.8749 -0.3592
   42CHL1  H23A 3094   0.575   2.525   7.872  0.0740  0.9805 -1.1964
   42CHL1  H23B 3095   0.752   2.572   7.887  0.2268  0.6051 -1.3165
   42CHL1   C24 3096   0.601   2.706   7.978 -0.5215 -0.2080 -0.5831
   42CHL1  H24A 3097   0.674   2.789   7.975  0.6235 -1.1940 -0.7776
   42CHL1  H24B 3098   0.501   2.748   7.953  0.0111  0.5869 -1.4513
   42CHL1   C25 3099   0.608   2.665   8.127  0.8452 -0.6700 -0.2792
   42CHL1   H25 3100   0.707   2.621   8.150  1.6013  1.1779  0.2074
   42CHL1   C26 3101   0.596   2.793   8.211  0.3389  0.0180  0.5993
   42CHL1  H26A 3102   0.574   2.765   8.317 -1.5875  0.6086  0.3741
   42CHL1  H26B 3103   0.688   2.854   8.200 -1.4345  2.3777 -2.4814
   42CHL1  H26C 3104   0.507   2.853   8.184  0.7362  0.0999 -0.5845
   42CHL1   C27 3105   0.501   2.558   8.165  0.1671 -0.3987  0.5264
   42CHL1  H27A 3106   0.393   2.576   8.146 -0.8696 -4.5380  1.5537
   42CHL1  H27B 3107   0.512   2.543   8.275  1.4360  0.5153  0.5463
   42CHL1  H27C 3108   0.521   2.463   8.111 -1.8226 -0.3687 -0.3632
   43CHL1    C3 3109   6.563   6.029   6.756  0.8255  0.4176  0.1909
   43CHL1    H3 3110   6.532   5.930   6.796  0.6544  0.4099  0.0385
   43CHL1    O3 3111   6.591   6.021   6.618 -0.3460  0.6425 -0.1944
   43CHL1   H3' 3112   6.513   6.010   6.564 -0.9006 -0.0636  0.7112
   43CHL1    C4 3113   6.442   6.122   6.792  0.2438 -0.2080 -0.4120
   43CHL1   H4A 3114   6.451   6.223   6.745  1.9487 -0.2070 -0.1483
   43CHL1   H4B 3115   6.349   6.074   6.753 -0.2840 -0.1084  0.6892
   43CHL1    C5 3116   6.419   6.130   6.942  0.0990 -0.1064  0.1581
   43CHL1    C6 3117   6.306   6.090   6.995  0.2595  0.2110 -0.5880
   43CHL1    H6 3118   6.222   6.061   6.931 -0.6240 -0.5745  0.8815
   43CHL1    C7 3119   6.280   6.097   7.139 -0.2462  0.1219 -0.3175
   43CHL1   H7A 3120   6.179   6.142   7.149  0.1067  0.9361 -0.3419
   43CHL1   H7B 3121   6.268   5.996   7.184  0.5928  0.5996  1.0302
   43CHL1    C8 3122   6.379   6.185   7.224 -0.1998 -0.6209  0.2075
   43CHL1    H8 3123   6.355   6.290   7.198  0.3089 -1.0280 -2.1953
   43CHL1   C14 3124   6.357   6.161   7.371  0.5642 -0.4697 -0.1354
   43CHL1   H14 3125   6.381   6.053   7.376 -1.6824 -1.0869 -1.3524
   43CHL1   C15 3126   6.214   6.172   7.428 -0.3172  0.2330  1.1451
   43CHL1  H15A 3127   6.174   6.274   7.409  1.4476  0.5728 -1.2850
   43CHL1  H15B 3128   6.140   6.098   7.391 -1.1752  2.3464 -1.7279
   43CHL1   C16 3129   6.238   6.145   7.577  0.3421  0.2720  0.4971
   43CHL1  H16A 3130   6.185   6.225   7.633 -0.9459  0.0983 -0.4267
   43CHL1  H16B 3131   6.193   6.050   7.611 -2.0379  1.6811  1.4975
   43CHL1   C17 3132   6.391   6.156   7.594  0.1415 -0.2724 -0.3696
   43CHL1   H17 3133   6.447   6.061   7.606  1.8372  0.7266 -0.1026
   43CHL1   C13 3134   6.457   6.217   7.470 -0.1006 -0.6650 -0.5631
   43CHL1   C18 3135   6.448   6.370   7.471  0.3547 -0.2516 -0.9433
   43CHL1  H18A 3136   6.349   6.405   7.507  0.8348  0.3136 -0.1481
   43CHL1  H18B 3137   6.523   6.419   7.537 -1.1825  1.2163 -0.2000
   43CHL1  H18C 3138   6.470   6.406   7.368  1.5326  0.6194 -0.4114
   43CHL1   C12 3139   6.603   6.173   7.422  0.0682  0.3853  0.3328
   43CHL1  H12A 3140   6.690   6.203   7.485 -0.6397 -0.2840  1.6616
   43CHL1  H12B 3141   6.601   6.062   7.417 -0.9940  0.4409 -0.7892
   43CHL1   C11 3142   6.629   6.212   7.275 -0.1832 -0.4338  0.6371
   43CHL1  H11A 3143   6.621   6.322   7.266  2.5084 -0.1585  0.9126
   43CHL1  H11B 3144   6.728   6.169   7.249 -0.5716 -1.5684  0.9477
   43CHL1    C9 3145   6.524   6.150   7.179  0.0071  0.1293 -0.1927
   43CHL1    H9 3146   6.543   6.041   7.191 -2.8158 -0.2670  1.5946
   43CHL1   C10 3147   6.540   6.168   7.029 -0.5303 -0.8462  0.4895
   43CHL1   C19 3148   6.577   6.315   6.995 -0.0637  0.1735 -0.1832
   43CHL1  H19A 3149   6.682   6.334   7.025 -0.5549  0.5510  1.3399
   43CHL1  H19B 3150   6.556   6.337   6.888 -0.6166 -0.5192 -0.2245
   43CHL1  H19C 3151   6.524   6.393   7.053 -1.6780 -0.1609 -1.1525
   43CHL1    C1 3152   6.663   6.076   6.990 -0.4437  0.1810  0.3164
   43CHL1   H1A 3153   6.756   6.113   7.038  0.4672  0.7532 -1.7891
   43CHL1   H1B 3154   6.639   5.970   7.016 -1.6557  0.7324  1.5443
   43CHL1    C2 3155   6.686   6.068   6.837 -0.2875 -0.0090  0.5034
   43CHL1   H2A 3156   6.770   6.001   6.808  2.0251  3.2925 -1.1632
   43CHL1   H2B 3157   6.717   6.171   6.809 -2.1354  1.1406  2.4041
   43CHL1   C20 3158   6.425   6.221   7.733  0.4156 -0.6635 -0.0223
   43CHL1   H20 3159   6.403   6.329   7.727 -1.1746 -1.0429 -2.7435
   43CHL1   C21 3160   6.579   6.212   7.761  0.4473 -0.0363 -0.2606
   43CHL1  H21A 3161   6.606   6.104   7.766 -2.0762 -0.8291 -1.7475
   43CHL1  H21B 3162   6.612   6.248   7.861 -1.0916 -4.2742  2.0318
   43CHL1  H21C 3163   6.635   6.261   7.679  0.4512 -0.5230 -0.5561
   43CHL1   C22 3164   6.353   6.151   7.853 -0.0503  0.1581  0.2166
   43CHL1  H22A 3165   6.244   6.133   7.839  0.2771 -0.5609 -1.8293
   43CHL1  H22B 3166   6.397   6.050   7.868 -1.6284 -0.4967  0.6777
   43CHL1   C23 3167   6.379   6.221   7.985 -0.5522  0.6218 -0.0249
   43CHL1  H23A 3168   6.482   6.242   8.021 -0.2588  0.0020 -0.4836
   43CHL1  H23B 3169   6.325   6.318   7.984 -1.5877  0.0485 -0.6374
   43CHL1   C24 3170   6.305   6.154   8.100  0.1358  0.7504  0.4214
   43CHL1  H24A 3171   6.195   6.139   8.090  0.0427  1.3098  0.5550
   43CHL1  H24B 3172   6.339   6.049   8.112  0.1048  0.6476 -0.3093
   43CHL1   C25 3173   6.322   6.216   8.236 -0.0509 -0.6630 -0.2999
   43CHL1   H25 3174   6.429   6.217   8.262  0.5077  3.2624 -2.0240
   43CHL1   C26 3175   6.310   6.371   8.229 -0.5822  0.0393 -0.2840
   43CHL1  H26A 3176   6.336   6.412   8.329 -1.4461  0.6921 -0.3133
   43CHL1  H26B 3177   6.382   6.412   8.156 -0.5143  0.7542  0.1696
   43CHL1  H26C 3178   6.211   6.405   8.191 -0.9694  0.2150  0.8362
   43CHL1   C27 3179   6.236   6.157   8.348  0.0262 -0.4578  0.0362
   43CHL1  H27A 3180   6.283   6.063   8.385 -0.1441 -0.3768  0.4740
   43CHL1  H27B 3181   6.217   6.234   8.426  2.0439 -1.2557  1.4093
   43CHL1  H27C 3182   6.133   6.139   8.311  0.3524  1.1988 -1.7689
   44CHL1    C3 3183   6.292   5.241   6.798 -0.0921 -0.6326 -0.2349
   44CHL1    H3 3184   6.370   5.317   6.821 -1.3755  0.3299  1.0839
   44CHL1    O3 3185   6.255   5.236   6.657  0.0676 -0.3440 -0.4839
   44CHL1   H3' 3186   6.211   5.151   6.656 -1.2639  0.2506 -3.5513
   44CHL1    C4 3187   6.356   5.108   6.832 -0.1043  0.3367  0.2230
   44CHL1   H4A 3188   6.285   5.026   6.808  1.2004 -0.5100 -0.8688
   44CHL1   H4B 3189   6.441   5.091   6.762  1.4894  1.3779  1.8100
   44CHL1    C5 3190   6.407   5.106   6.974 -0.1561 -0.4749  0.4240
   44CHL1    C6 3191   6.534   5.083   7.014 -0.3106 -0.3641  0.1446
   44CHL1    H6 3192   6.607   5.061   6.935  0.5992 -0.1095  0.8931
   44CHL1    C7 3193   6.579   5.073   7.154 -0.1000 -0.3580  0.2580
   44CHL1   H7A 3194   6.652   4.991   7.172  0.8792  0.0186 -1.6838
   44CHL1   H7B 3195   6.647   5.155   7.185  1.7746 -2.2475  1.4807
   44CHL1    C8 3196   6.465   5.054   7.256 -0.2736  0.2755  0.1656
   44CHL1    H8 3197   6.419   4.954   7.241  2.0423 -0.6594 -1.3854
   44CHL1   C14 3198   6.520   5.064   7.396  0.7208  0.1838  0.1832
   44CHL1   H14 3199   6.576   5.159   7.401  0.7720  0.1229  0.9037
   44CHL1   C15 3200   6.632   4.962   7.442  0.1876  0.4365 -0.3471
   44CHL1  H15A 3201   6.593   4.859   7.425  1.7283 -0.3716  0.8168
   44CHL1  H15B 3202   6.732   4.973   7.396  0.3520  1.2745  0.1786
   44CHL1   C16 3203   6.640   4.990   7.593 -0.3907  0.4704 -0.0337
   44CHL1  H16A 3204   6.660   4.892   7.642  0.3482  0.7246  0.1828
   44CHL1  H16B 3205   6.726   5.051   7.629 -0.6796  0.1533  1.2594
   44CHL1   C17 3206   6.503   5.066   7.624 -0.7729  0.3697  0.1245
   44CHL1   H17 3207   6.544   5.169   7.634  0.2733 -0.0446  0.2802
   44CHL1   C13 3208   6.414   5.063   7.502  0.5004  0.6224  0.1045
   44CHL1   C18 3209   6.330   4.933   7.491  0.4775  0.6850 -0.0364
   44CHL1  H18A 3210   6.393   4.842   7.496  1.6369  1.4808  0.3420
   44CHL1  H18B 3211   6.252   4.932   7.571  0.9647  3.1804  0.5582
   44CHL1  H18C 3212   6.273   4.924   7.396  1.1930  0.6146 -0.4647
   44CHL1   C12 3213   6.324   5.186   7.478 -0.3284 -0.4320  0.3517
   44CHL1  H12A 3214   6.250   5.210   7.556  1.1258 -0.1016  1.6734
   44CHL1  H12B 3215   6.382   5.280   7.484 -1.7827  0.4399  1.3185
   44CHL1   C11 3216   6.254   5.173   7.339  0.5052  0.4623  0.3726
   44CHL1  H11A 3217   6.178   5.091   7.342 -0.1210  0.8945 -1.9095
   44CHL1  H11B 3218   6.200   5.270   7.329  1.2039  1.0630  2.0630
   44CHL1    C9 3219   6.355   5.157   7.224 -0.6024  0.2550 -0.4650
   44CHL1    H9 3220   6.407   5.255   7.226 -1.5284  0.7775  2.1375
   44CHL1   C10 3221   6.299   5.136   7.082 -0.2080 -0.8079 -0.1674
   44CHL1   C19 3222   6.201   5.018   7.097  0.1878 -0.5907  0.0091
   44CHL1  H19A 3223   6.117   5.054   7.160 -0.5764  1.2364 -1.9262
   44CHL1  H19B 3224   6.159   5.010   6.994 -0.5134 -0.2628  0.2624
   44CHL1  H19C 3225   6.239   4.923   7.141  0.3346  0.1252  1.4882
   44CHL1    C1 3226   6.212   5.263   7.044 -0.6435  0.7203  0.3276
   44CHL1   H1A 3227   6.112   5.267   7.092 -1.3579  0.6749 -1.1192
   44CHL1   H1B 3228   6.272   5.354   7.065  1.4287 -0.5369  0.1540
   44CHL1    C2 3229   6.171   5.271   6.891  0.0359  0.2643 -0.1954
   44CHL1   H2A 3230   6.124   5.368   6.868  0.3746  0.5754  0.4003
   44CHL1   H2B 3231   6.094   5.192   6.879  0.3024  0.0664 -0.6164
   44CHL1   C20 3232   6.447   5.026   7.761 -0.0252 -0.4982 -0.5071
   44CHL1   H20 3233   6.423   4.919   7.742 -0.5029  0.0406 -3.4614
   44CHL1   C21 3234   6.319   5.118   7.803  0.0882 -0.2320 -0.3688
   44CHL1  H21A 3235   6.358   5.222   7.809  1.1697 -0.5783 -1.0306
   44CHL1  H21B 3236   6.282   5.087   7.903  0.4489 -0.2866 -0.2486
   44CHL1  H21C 3237   6.239   5.105   7.727  0.7525  1.5947 -1.4484
   44CHL1   C22 3238   6.545   5.038   7.877  0.1511 -0.3195 -0.6329
   44CHL1  H22A 3239   6.481   5.044   7.968 -0.4301  0.3718 -1.0792
   44CHL1  H22B 3240   6.621   4.958   7.873  0.0360 -0.5526  1.0961
   44CHL1   C23 3241   6.616   5.184   7.884 -0.2343  0.0119 -0.0532
   44CHL1  H23A 3242   6.686   5.191   7.798 -2.3371  0.5304 -1.8061
   44CHL1  H23B 3243   6.543   5.267   7.879 -1.6715 -1.2210 -0.4664
   44CHL1   C24 3244   6.697   5.189   8.013 -0.1081 -0.0706  0.1695
   44CHL1  H24A 3245   6.631   5.204   8.101  1.0929 -0.0822  1.1005
   44CHL1  H24B 3246   6.752   5.093   8.026 -0.0752  0.2614  3.2669
   44CHL1   C25 3247   6.800   5.308   8.015 -0.6718  0.1780 -0.0896
   44CHL1   H25 3248   6.853   5.300   7.918 -0.6385 -1.0029  0.0112
   44CHL1   C26 3249   6.735   5.445   8.011 -0.5508  0.7027  0.1540
   44CHL1  H26A 3250   6.674   5.440   7.918  1.7891 -1.2238 -1.3949
   44CHL1  H26B 3251   6.666   5.454   8.098 -3.0082 -3.0465 -1.1699
   44CHL1  H26C 3252   6.814   5.521   7.995  0.4004 -0.7235 -2.4416
   44CHL1   C27 3253   6.898   5.273   8.129  0.0692 -0.5893  0.2580
   44CHL1  H27A 3254   6.949   5.361   8.173 -0.8855 -0.3792  0.9798
   44CHL1  H27B 3255   6.853   5.218   8.215 -3.4039 -2.5080 -2.4710
   44CHL1  H27C 3256   6.979   5.209   8.087  3.2071  2.2407  1.6311
   45CHL1    C3 3257   3.286   4.192   6.759 -0.4125 -0.4488  0.0263
   45CHL1    H3 3258   3.245   4.089   6.764  0.3024 -0.7162  0.6233
   45CHL1    O3 3259   3.265   4.234   6.629 -0.0833  0.2697  0.3675
   45CHL1   H3' 3260   3.292   4.326   6.623  0.5357  0.0068 -2.1079
   45CHL1    C4 3261   3.205   4.281   6.858  0.4626  0.6848 -0.8277
   45CHL1   H4A 3262   3.241   4.385   6.843  0.1035  1.2044  1.4248
   45CHL1   H4B 3263   3.097   4.279   6.831 -0.0799  0.5277  1.1516
   45CHL1    C5 3264   3.237   4.244   7.002 -0.0055  0.9313 -0.1034
   45CHL1    C6 3265   3.141   4.207   7.088  0.0504  0.0629  0.6881
   45CHL1    H6 3266   3.038   4.200   7.052  1.0725 -0.7928 -2.4025
   45CHL1    C7 3267   3.165   4.165   7.232  0.5166 -0.5294  0.2820
   45CHL1   H7A 3268   3.094   4.223   7.295 -0.5227  0.5669 -1.8015
   45CHL1   H7B 3269   3.146   4.056   7.240 -0.6259 -0.6477 -2.7322
   45CHL1    C8 3270   3.303   4.210   7.287  0.2548 -0.2649  0.1161
   45CHL1    H8 3271   3.302   4.321   7.301 -0.3569 -0.3847  1.1215
   45CHL1   C14 3272   3.332   4.146   7.417 -0.4742  0.1366 -0.0331
   45CHL1   H14 3273   3.341   4.039   7.386 -3.7621 -0.3626  0.3981
   45CHL1   C15 3274   3.229   4.145   7.530 -0.2502 -0.1034  0.8677
   45CHL1  H15A 3275   3.195   4.249   7.548 -2.5834 -0.2770 -1.6910
   45CHL1  H15B 3276   3.141   4.081   7.505  0.5100 -0.0120 -2.4941
   45CHL1   C16 3277   3.305   4.090   7.646  0.0076  0.6463  0.0274
   45CHL1  H16A 3278   3.289   4.164   7.728 -0.1644  0.5685  0.0648
   45CHL1  H16B 3279   3.260   3.995   7.682 -1.3162  0.7389 -1.2994
   45CHL1   C17 3280   3.460   4.090   7.616  0.8242  0.0052  0.6226
   45CHL1   H17 3281   3.496   3.987   7.593  1.2206  0.2790 -0.0122
   45CHL1   C13 3282   3.471   4.172   7.479 -0.3732 -0.8499 -0.0269
   45CHL1   C18 3283   3.475   4.325   7.516 -0.8360 -0.0269 -0.1551
   45CHL1  H18A 3284   3.471   4.398   7.432 -1.3344 -0.9406 -0.9444
   45CHL1  H18B 3285   3.393   4.357   7.584  0.3944  4.6103 -0.5219
   45CHL1  H18C 3286   3.573   4.343   7.564 -0.9531 -0.4179  0.2395
   45CHL1   C12 3287   3.576   4.124   7.376  0.7054 -0.2930 -0.1922
   45CHL1  H12A 3288   3.681   4.150   7.402 -0.6399  2.1505  3.5130
   45CHL1  H12B 3289   3.570   4.015   7.355  1.2045 -0.1075 -1.3847
   45CHL1   C11 3290   3.555   4.184   7.240 -0.5232  0.2326 -0.6215
   45CHL1  H11A 3291   3.575   4.293   7.243 -1.5514  0.4784 -1.8257
   45CHL1  H11B 3292   3.620   4.130   7.168  1.5786  1.1087  0.5122
   45CHL1    C9 3293   3.411   4.177   7.182 -0.0351 -0.3840 -0.2262
   45CHL1    H9 3294   3.383   4.071   7.167  0.7315 -0.5047 -0.8893
   45CHL1   C10 3295   3.390   4.239   7.037 -0.5992  0.2605 -0.1149
   45CHL1   C19 3296   3.430   4.387   7.040  0.1175 -0.6532  0.0699
   45CHL1  H19A 3297   3.375   4.441   7.119 -1.4388 -3.7423  1.2544
   45CHL1  H19B 3298   3.539   4.401   7.059  0.2419 -0.0642 -0.9805
   45CHL1  H19C 3299   3.409   4.432   6.940  1.4812  1.4888  0.6806
   45CHL1    C1 3300   3.471   4.150   6.940 -0.4764  0.6371 -0.1625
   45CHL1   H1A 3301   3.577   4.145   6.973 -0.3318 -0.9945 -0.7942
   45CHL1   H1B 3302   3.440   4.044   6.953 -1.0109  0.8794  0.6582
   45CHL1    C2 3303   3.441   4.192   6.798 -0.4424 -0.1019 -0.4395
   45CHL1   H2A 3304   3.491   4.126   6.723 -0.7310  0.1511 -0.8619
   45CHL1   H2B 3305   3.498   4.287   6.788  0.9785 -0.9137 -0.2343
   45CHL1   C20 3306   3.549   4.111   7.742 -0.3930 -0.5727 -0.0702
   45CHL1   H20 3307   3.554   4.219   7.766 -1.5602 -0.8325  1.4470
   45CHL1   C21 3308   3.700   4.067   7.715  0.8807  0.0935  1.3168
   45CHL1  H21A 3309   3.760   4.124   7.789  1.7362 -0.4958  1.0852
   45CHL1  H21B 3310   3.725   4.096   7.611 -1.0366  1.9977  1.3070
   45CHL1  H21C 3311   3.709   3.957   7.720 -0.9393 -0.0682  2.0051
   45CHL1   C22 3312   3.486   4.030   7.859 -0.0287  0.0427 -0.8064
   45CHL1  H22A 3313   3.389   4.075   7.890  0.9430  0.1642  2.4159
   45CHL1  H22B 3314   3.458   3.925   7.833  0.9466 -0.4026 -0.0880
   45CHL1   C23 3315   3.575   4.019   7.983 -0.3460 -0.3706  0.1594
   45CHL1  H23A 3316   3.643   3.934   7.960  0.7707 -0.0618  2.1292
   45CHL1  H23B 3317   3.624   4.118   7.994 -1.6103  0.0348  2.7945
   45CHL1   C24 3318   3.505   3.989   8.114  0.8341 -0.0067 -0.4211
   45CHL1  H24A 3319   3.440   4.076   8.140 -0.3677 -0.4756 -1.7433
   45CHL1  H24B 3320   3.448   3.896   8.092  0.5797 -0.7599  2.8841
   45CHL1   C25 3321   3.599   3.954   8.229 -0.0209  0.1479  0.3715
   45CHL1   H25 3322   3.653   3.871   8.179 -0.1931  0.8540 -1.0720
   45CHL1   C26 3323   3.703   4.077   8.251 -0.0358 -0.1746  0.0769
   45CHL1  H26A 3324   3.772   4.040   8.331  0.2890 -0.5800 -0.3817
   45CHL1  H26B 3325   3.768   4.098   8.163  0.6212  0.1580  0.6310
   45CHL1  H26C 3326   3.659   4.173   8.285  1.1676  0.6636 -0.6712
   45CHL1   C27 3327   3.527   3.911   8.358  0.0246 -0.2994  0.3462
   45CHL1  H27A 3328   3.454   3.833   8.327  2.3286 -2.1220 -0.7534
   45CHL1  H27B 3329   3.604   3.879   8.432  0.0827  0.4274  0.6174
   45CHL1  H27C 3330   3.471   3.997   8.401  1.5545  0.5151  0.7757
   46CHL1    C3 3331   0.836   4.129   7.009 -0.1623  0.0983 -0.0886
   46CHL1    H3 3332   0.899   4.212   7.048 -1.9204  0.4098  2.3564
   46CHL1    O3 3333   0.870   4.100   6.875 -0.1570 -0.0919 -0.3385
   46CHL1   H3' 3334   0.834   4.013   6.858  0.0979 -0.6270  1.6489
   46CHL1    C4 3335   0.874   4.005   7.085 -0.0525  0.6868 -0.2844
   46CHL1   H4A 3336   0.827   3.917   7.036 -1.2180  0.6632  0.8267
   46CHL1   H4B 3337   0.983   3.988   7.073  0.2812  1.7737  0.9684
   46CHL1    C5 3338   0.842   3.998   7.235 -1.0596 -0.0246  0.5158
   46CHL1    C6 3339   0.920   3.959   7.334  0.3323 -0.2356  0.7132
   46CHL1    H6 3340   1.023   3.926   7.314  0.0303 -0.5757 -0.3085
   46CHL1    C7 3341   0.872   3.944   7.477 -0.0425  0.0654 -0.0164
   46CHL1   H7A 3342   0.901   3.845   7.518 -1.6195 -0.5108 -0.1982
   46CHL1   H7B 3343   0.920   4.025   7.537 -3.9859  1.7157  1.2716
   46CHL1    C8 3344   0.720   3.962   7.503 -0.1495 -0.2494  0.6339
   46CHL1    H8 3345   0.670   3.864   7.487  0.0899 -0.6383  2.1162
   46CHL1   C14 3346   0.703   4.004   7.649 -0.2331 -0.0361  0.0324
   46CHL1   H14 3347   0.766   4.095   7.663 -1.6401  0.6140  2.9143
   46CHL1   C15 3348   0.757   3.902   7.758 -0.3097 -0.2443  0.9518
   46CHL1  H15A 3349   0.722   3.800   7.734 -2.5362  0.9466 -1.3072
   46CHL1  H15B 3350   0.868   3.910   7.763 -0.2093  3.7669 -2.2410
   46CHL1   C16 3351   0.677   3.949   7.885 -0.8135 -0.2277 -0.1304
   46CHL1  H16A 3352   0.623   3.866   7.935 -0.2112 -0.4136  0.2339
   46CHL1  H16B 3353   0.740   3.977   7.972 -1.4418 -2.6330  1.1694
   46CHL1   C17 3354   0.576   4.057   7.843 -0.5647  0.1627 -0.2189
   46CHL1   H17 3355   0.630   4.152   7.860 -0.6483 -0.0383  1.3307
   46CHL1   C13 3356   0.555   4.028   7.692 -0.2759  0.7244  0.3484
   46CHL1   C18 3357   0.461   3.905   7.678 -0.3017 -0.1589 -0.4051
   46CHL1  H18A 3358   0.360   3.938   7.709  0.0543  1.4635 -0.9089
   46CHL1  H18B 3359   0.461   3.867   7.574 -0.8265 -1.3815  0.0166
   46CHL1  H18C 3360   0.493   3.815   7.736 -0.0987 -0.9387 -1.6933
   46CHL1   C12 3361   0.497   4.138   7.596  0.8688 -0.5159  0.3754
   46CHL1  H12A 3362   0.389   4.153   7.616  1.1234  1.2236  0.6051
   46CHL1  H12B 3363   0.542   4.238   7.613 -2.4446  1.4948 -1.8256
   46CHL1   C11 3364   0.509   4.094   7.446 -0.4998  0.2922  0.1452
   46CHL1  H11A 3365   0.453   4.002   7.422  0.1355 -0.5506  1.6941
   46CHL1  H11B 3366   0.471   4.170   7.375 -0.3685 -2.0855 -2.6145
   46CHL1    C9 3367   0.659   4.072   7.407 -0.1622  0.1997  0.6078
   46CHL1    H9 3368   0.710   4.170   7.423 -1.1489  0.8102  0.1353
   46CHL1   C10 3369   0.693   4.041   7.258 -0.4806  0.7434 -0.4371
   46CHL1   C19 3370   0.599   3.920   7.210 -0.7950 -0.5434 -0.1022
   46CHL1  H19A 3371   0.492   3.953   7.211 -0.1146  1.8606  0.4635
   46CHL1  H19B 3372   0.627   3.884   7.109 -1.9285 -0.7650 -0.3606
   46CHL1  H19C 3373   0.613   3.839   7.284  1.6991 -0.3855 -0.3435
   46CHL1    C1 3374   0.661   4.161   7.168  0.0530  0.0564 -0.1488
   46CHL1   H1A 3375   0.554   4.180   7.194  0.6946  1.3516  1.8036
   46CHL1   H1B 3376   0.718   4.248   7.206  1.5007 -0.3296 -1.3695
   46CHL1    C2 3377   0.693   4.154   7.020  0.4829 -0.5003 -0.3981
   46CHL1   H2A 3378   0.678   4.249   6.964  0.2972  0.8131  1.7547
   46CHL1   H2B 3379   0.640   4.069   6.973 -0.1956 -0.7182  0.7201
   46CHL1   C20 3380   0.459   4.064   7.946 -0.2276 -0.2494  0.4562
   46CHL1   H20 3381   0.408   3.966   7.949 -0.5680 -0.1045 -0.3757
   46CHL1   C21 3382   0.370   4.196   7.916 -0.1240 -0.5543 -0.1573
   46CHL1  H21A 3383   0.275   4.189   7.974  0.2073 -1.5030  0.2990
   46CHL1  H21B 3384   0.339   4.191   7.809  0.0045 -0.9090 -0.1783
   46CHL1  H21C 3385   0.424   4.290   7.937  1.6970 -1.4082 -0.7613
   46CHL1   C22 3386   0.508   4.075   8.096  0.4069  1.0866  0.5141
   46CHL1  H22A 3387   0.564   3.983   8.123 -1.5108 -0.3042 -0.1098
   46CHL1  H22B 3388   0.573   4.165   8.103  1.7248  0.4444 -2.1353
   46CHL1   C23 3389   0.387   4.069   8.185  0.7015  0.2295 -0.7728
   46CHL1  H23A 3390   0.337   4.167   8.179  0.6564  0.2563 -0.0610
   46CHL1  H23B 3391   0.307   3.995   8.163  0.0954  0.7495 -0.3297
   46CHL1   C24 3392   0.420   4.028   8.333  0.1212  0.4253 -0.3112
   46CHL1  H24A 3393   0.455   3.923   8.343  0.7499  0.6057 -0.5763
   46CHL1  H24B 3394   0.503   4.097   8.358 -1.0354  1.8121 -0.1385
   46CHL1   C25 3395   0.302   4.057   8.438 -0.5315 -0.5298  0.6479
   46CHL1   H25 3396   0.343   4.042   8.540  0.5094 -0.6781  0.2124
   46CHL1   C26 3397   0.264   4.211   8.447  0.0519  0.3106 -0.0542
   46CHL1  H26A 3398   0.177   4.234   8.513 -0.5268  0.7611 -0.9502
   46CHL1  H26B 3399   0.354   4.255   8.495  1.2758 -1.9160 -0.1783
   46CHL1  H26C 3400   0.261   4.248   8.342 -1.3570  0.0920 -0.1127
   46CHL1   C27 3401   0.185   3.974   8.404  0.0194 -0.2863  1.0309
   46CHL1  H27A 3402   0.150   4.004   8.303  0.3343 -1.6562  0.4894
   46CHL1  H27B 3403   0.210   3.866   8.409  1.1044 -0.1798 -0.9691
   46CHL1  H27C 3404   0.102   3.991   8.474 -1.0675 -0.5904 -0.1405
   47CHL1    C3 3405   1.537   2.468   6.739  0.0876 -0.2209  0.0434
   47CHL1    H3 3406   1.514   2.575   6.717 -1.6350 -0.5059  0.3081
   47CHL1    O3 3407   1.565   2.403   6.617  0.2306  0.1447 -0.5816
   47CHL1   H3' 3408   1.633   2.451   6.570 -0.0581  1.0409 -0.1055
   47CHL1    C4 3409   1.661   2.461   6.825  0.1469  0.2681 -0.1220
   47CHL1   H4A 3410   1.690   2.354   6.836  0.6379  0.5885  2.0976
   47CHL1   H4B 3411   1.744   2.504   6.766 -0.2418 -2.1785 -2.6813
   47CHL1    C5 3412   1.642   2.525   6.955  0.3494 -0.4817 -0.2276
   47CHL1    C6 3413   1.704   2.635   6.995 -0.0523 -0.2814 -0.9675
   47CHL1    H6 3414   1.780   2.677   6.927  0.2062 -2.1267 -1.8869
   47CHL1    C7 3415   1.669   2.704   7.126  0.1727  0.5296 -0.3607
   47CHL1   H7A 3416   1.756   2.755   7.170  2.0286 -2.3928 -0.3614
   47CHL1   H7B 3417   1.600   2.787   7.098  0.4198  1.0274  0.4860
   47CHL1    C8 3418   1.594   2.616   7.225 -0.3890  0.7017 -0.2884
   47CHL1    H8 3419   1.669   2.540   7.258 -0.9457  0.5205  0.6031
   47CHL1   C14 3420   1.533   2.696   7.344  0.5114 -0.0143 -0.1150
   47CHL1   H14 3421   1.467   2.772   7.295 -0.7623 -1.1629 -0.2469
   47CHL1   C15 3422   1.618   2.793   7.425 -0.2320 -0.0531  0.5923
   47CHL1  H15A 3423   1.714   2.746   7.457  1.4156  3.4679  1.2031
   47CHL1  H15B 3424   1.651   2.878   7.362  2.8027 -2.4261 -1.2912
   47CHL1   C16 3425   1.528   2.835   7.544 -0.1281 -0.1414 -0.8508
   47CHL1  H16A 3426   1.592   2.814   7.632 -0.3992 -1.1389 -0.8880
   47CHL1  H16B 3427   1.492   2.940   7.537  0.0508  0.0790  1.0600
   47CHL1   C17 3428   1.414   2.732   7.539 -0.4742  0.2273 -0.3704
   47CHL1   H17 3429   1.337   2.791   7.484 -0.4081  1.4825  0.8225
   47CHL1   C13 3430   1.459   2.613   7.447 -0.0180  0.1189 -0.2350
   47CHL1   C18 3431   1.546   2.513   7.516 -0.5131  0.6590  0.4311
   47CHL1  H18A 3432   1.596   2.453   7.437 -1.2729 -0.4421  0.7569
   47CHL1  H18B 3433   1.627   2.553   7.580  0.6523 -0.8819 -0.0007
   47CHL1  H18C 3434   1.482   2.444   7.576  0.9337 -2.2037 -1.0854
   47CHL1   C12 3435   1.342   2.553   7.369  0.0016 -0.3232 -0.5413
   47CHL1  H12A 3436   1.276   2.501   7.442 -0.3587 -0.6475 -1.0910
   47CHL1  H12B 3437   1.281   2.639   7.333 -0.8917 -0.1939  1.1618
   47CHL1   C11 3438   1.386   2.461   7.252 -0.2740 -1.1950  0.0492
   47CHL1  H11A 3439   1.457   2.386   7.292  1.2090 -0.6627 -1.4636
   47CHL1  H11B 3440   1.298   2.420   7.198 -0.0300 -0.3070 -1.0683
   47CHL1    C9 3441   1.479   2.545   7.155 -0.5994  0.7262 -0.1334
   47CHL1    H9 3442   1.423   2.634   7.118 -0.0618  1.3072  0.4427
   47CHL1   C10 3443   1.523   2.460   7.033 -0.2009  0.6475 -0.4459
   47CHL1   C19 3444   1.553   2.311   7.077 -0.2641 -0.6158  0.0046
   47CHL1  H19A 3445   1.596   2.247   6.997  1.3642 -1.0679  1.1886
   47CHL1  H19B 3446   1.630   2.310   7.157  1.0975  1.0770 -1.2007
   47CHL1  H19C 3447   1.460   2.259   7.111 -1.5861  0.5972 -1.5933
   47CHL1    C1 3448   1.397   2.448   6.940 -0.3954  0.2839 -0.2941
   47CHL1   H1A 3449   1.327   2.374   6.984  1.0995 -2.9123 -2.8894
   47CHL1   H1B 3450   1.364   2.554   6.949  1.7311  1.0809 -1.0799
   47CHL1    C2 3451   1.419   2.391   6.797  0.1650 -0.0886 -0.3298
   47CHL1   H2A 3452   1.328   2.408   6.735  1.7038  2.0086 -2.2095
   47CHL1   H2B 3453   1.442   2.283   6.804 -0.8116 -0.3001 -0.1527
   47CHL1   C20 3454   1.357   2.704   7.683  1.1834 -0.0520 -0.6645
   47CHL1   H20 3455   1.435   2.636   7.723 -0.5278 -2.4295 -1.1593
   47CHL1   C21 3456   1.219   2.639   7.677 -0.6619  0.1149  0.1769
   47CHL1  H21A 3457   1.220   2.550   7.611  0.5357  1.9176 -2.4080
   47CHL1  H21B 3458   1.150   2.716   7.633  0.0751  0.9781  0.5106
   47CHL1  H21C 3459   1.175   2.620   7.777  0.9801 -0.7345  0.7596
   47CHL1   C22 3460   1.340   2.827   7.781 -0.3959  0.2565  0.3082
   47CHL1  H22A 3461   1.399   2.917   7.753  0.3058 -0.8289 -2.0283
   47CHL1  H22B 3462   1.237   2.866   7.766 -0.6985 -0.6132  0.0146
   47CHL1   C23 3463   1.358   2.778   7.926  0.5839  0.0215  0.6521
   47CHL1  H23A 3464   1.278   2.702   7.939  1.0873 -0.8436 -1.0769
   47CHL1  H23B 3465   1.460   2.734   7.932  1.0596  0.8613 -0.8177
   47CHL1   C24 3466   1.349   2.882   8.038  0.2890  0.2649 -0.1490
   47CHL1  H24A 3467   1.442   2.942   8.034  1.0431 -0.8495  0.2309
   47CHL1  H24B 3468   1.268   2.955   8.013  2.5586  2.2789 -2.0850
   47CHL1   C25 3469   1.350   2.824   8.185 -0.0218 -0.5457 -0.4273
   47CHL1   H25 3470   1.440   2.759   8.196 -0.2769 -1.0959 -1.4755
   47CHL1   C26 3471   1.356   2.933   8.293  0.1554  0.1772  0.4150
   47CHL1  H26A 3472   1.444   2.998   8.270 -0.3269  0.5177 -0.5312
   47CHL1  H26B 3473   1.264   2.995   8.291  0.0207  0.0057  1.0707
   47CHL1  H26C 3474   1.360   2.896   8.397 -2.4757 -1.2798  0.0721
   47CHL1   C27 3475   1.230   2.737   8.205 -0.5914  1.0051  0.0242
   47CHL1  H27A 3476   1.139   2.798   8.183 -0.9594  0.4574  0.0021
   47CHL1  H27B 3477   1.238   2.653   8.134 -0.0105  1.3196 -0.2859
   47CHL1  H27C 3478   1.217   2.690   8.305 -1.1556 -0.9359 -0.9304
   48CHL1    C3 3479   4.265   1.984   6.207 -0.5449 -0.0054  0.0363
   48CHL1    H3 3480   4.276   2.094   6.216 -0.0680 -0.0774  0.3700
   48CHL1    O3 3481   4.271   1.938   6.069 -0.3147  0.3758  0.7092
   48CHL1   H3' 3482   4.223   1.856   6.081 -0.4916  0.7690  3.1752
   48CHL1    C4 3483   4.384   1.915   6.264 -0.3694 -0.1063 -0.2390
   48CHL1   H4A 3484   4.372   1.805   6.254 -1.8810 -0.0489  0.6521
   48CHL1   H4B 3485   4.477   1.946   6.210  1.4741 -2.6406  1.2485
   48CHL1    C5 3486   4.403   1.918   6.411  0.6809 -0.7063 -0.4399
   48CHL1    C6 3487   4.516   1.968   6.467  0.1953  0.0876  0.8100
   48CHL1    H6 3488   4.599   1.999   6.401 -1.1711  0.7268 -0.6597
   48CHL1    C7 3489   4.541   1.976   6.619  0.3897 -0.9530  0.3964
   48CHL1   H7A 3490   4.646   1.959   6.651  1.1585  0.2976 -1.2862
   48CHL1   H7B 3491   4.529   2.083   6.647  0.8523 -0.9677  0.6583
   48CHL1    C8 3492   4.432   1.909   6.710 -0.3324 -0.4220  0.9357
   48CHL1    H8 3493   4.445   1.799   6.709 -1.2914 -0.5438  0.0227
   48CHL1   C14 3494   4.441   1.959   6.847  1.1143  0.1723  0.7255
   48CHL1   H14 3495   4.427   2.069   6.849 -0.2744  0.0666 -1.0891
   48CHL1   C15 3496   4.576   1.926   6.921  0.3187 -0.6174  0.3601
   48CHL1  H15A 3497   4.593   1.820   6.892 -2.3218 -0.6306 -1.5457
   48CHL1  H15B 3498   4.657   1.997   6.895 -1.0090  0.7354 -0.2244
   48CHL1   C16 3499   4.537   1.938   7.063 -0.1567 -1.1243 -0.1532
   48CHL1  H16A 3500   4.563   1.847   7.120 -0.3243  0.3467  2.4304
   48CHL1  H16B 3501   4.584   2.022   7.118 -0.2739  0.0181 -1.7257
   48CHL1   C17 3502   4.381   1.958   7.076 -0.8599  0.3363 -0.1429
   48CHL1   H17 3503   4.361   2.067   7.066 -0.0613  0.3598 -1.8428
   48CHL1   C13 3504   4.333   1.909   6.941 -0.1646 -0.3362 -0.1062
   48CHL1   C18 3505   4.332   1.753   6.942  0.0188 -0.1420 -0.0509
   48CHL1  H18A 3506   4.328   1.701   6.844 -1.6022 -0.2166  0.0290
   48CHL1  H18B 3507   4.426   1.721   6.992  0.0446  1.4203  0.9977
   48CHL1  H18C 3508   4.251   1.716   7.009 -1.4641  2.3951 -0.3246
   48CHL1   C12 3509   4.197   1.962   6.890  0.9480 -0.0982  0.5209
   48CHL1  H12A 3510   4.115   1.913   6.946 -0.4752  2.2045  0.5988
   48CHL1  H12B 3511   4.187   2.072   6.878  0.1519 -0.1306  0.8315
   48CHL1   C11 3512   4.172   1.917   6.743  0.1629  0.0629  0.6365
   48CHL1  H11A 3513   4.137   1.812   6.736  0.1219  0.0993  0.2799
   48CHL1  H11B 3514   4.077   1.965   6.710 -0.4299 -1.1615  0.4818
   48CHL1    C9 3515   4.291   1.945   6.648 -0.0655 -0.4177  0.5317
   48CHL1    H9 3516   4.293   2.056   6.639  1.2510 -0.2721  2.2514
   48CHL1   C10 3517   4.278   1.884   6.503 -0.4548 -0.4244  0.7299
   48CHL1   C19 3518   4.254   1.728   6.512  0.2123  0.6519  0.2530
   48CHL1  H19A 3519   4.287   1.678   6.418  0.3130  1.8985 -0.3905
   48CHL1  H19B 3520   4.311   1.689   6.599 -1.6729 -1.4616  0.6214
   48CHL1  H19C 3521   4.147   1.712   6.538 -0.3039  1.0749 -1.4727
   48CHL1    C1 3522   4.157   1.948   6.429  0.6847  0.6002 -0.2421
   48CHL1   H1A 3523   4.061   1.921   6.478 -0.4545  2.3655 -1.3952
   48CHL1   H1B 3524   4.179   2.057   6.431  1.2935  0.6366 -3.4528
   48CHL1    C2 3525   4.137   1.939   6.280  0.3025 -0.6120  0.4241
   48CHL1   H2A 3526   4.059   2.008   6.241  1.4683 -0.1623 -1.1959
   48CHL1   H2B 3527   4.116   1.831   6.264  1.7357 -1.3692  3.1138
   48CHL1   C20 3528   4.319   1.903   7.209 -0.5235 -0.3277  0.2526
   48CHL1   H20 3529   4.340   1.794   7.198  0.0849 -0.2644  0.7307
   48CHL1   C21 3530   4.166   1.909   7.215 -0.1557 -0.0365  0.6075
   48CHL1  H21A 3531   4.130   1.874   7.313 -1.7447 -0.3740 -0.0716
   48CHL1  H21B 3532   4.121   1.845   7.136 -1.0242 -0.2358  1.2521
   48CHL1  H21C 3533   4.127   2.011   7.196 -1.1386 -0.4278  0.4960
   48CHL1   C22 3534   4.400   1.970   7.326  0.1319 -0.7945 -0.5834
   48CHL1  H22A 3535   4.342   1.937   7.416 -1.9263  1.9595 -0.7625
   48CHL1  H22B 3536   4.503   1.929   7.331  0.6920  0.6887  1.2693
   48CHL1   C23 3537   4.395   2.124   7.340 -0.0635  0.0124 -0.3078
   48CHL1  H23A 3538   4.440   2.176   7.252  0.4684  1.2389  0.6615
   48CHL1  H23B 3539   4.289   2.154   7.355  0.6113  3.0482 -0.8942
   48CHL1   C24 3540   4.485   2.161   7.451 -0.0671 -0.0789 -0.1661
   48CHL1  H24A 3541   4.442   2.122   7.546  1.4871  1.3391  1.1981
   48CHL1  H24B 3542   4.587   2.121   7.431 -0.2179 -1.0647  0.9108
   48CHL1   C25 3543   4.493   2.311   7.480  0.4531  0.1475  0.4802
   48CHL1   H25 3544   4.390   2.352   7.476 -0.3241 -1.3609  2.8786
   48CHL1   C26 3545   4.549   2.331   7.619  0.1909 -0.2701 -0.4132
   48CHL1  H26A 3546   4.622   2.252   7.649 -1.5131 -1.7167  0.1126
   48CHL1  H26B 3547   4.604   2.427   7.630 -1.2248  0.4604  0.6202
   48CHL1  H26C 3548   4.467   2.314   7.692 -0.6147  0.1045 -1.2184
   48CHL1   C27 3549   4.586   2.371   7.377 -0.6363 -0.1918  0.4401
   48CHL1  H27A 3550   4.547   2.360   7.273  1.1517  0.0171 -0.2919
   48CHL1  H27B 3551   4.605   2.480   7.389  1.6797 -0.4915 -0.0039
   48CHL1  H27C 3552   4.687   2.324   7.381 -1.3938 -2.1124 -1.3475
   49CHL1    C3 3553   3.858   3.213   6.758  0.1015  0.3802  0.4791
   49CHL1    H3 3554   3.909   3.117   6.735 -0.9211 -0.0681  0.0284
   49CHL1    O3 3555   3.782   3.248   6.641 -0.2558  0.3327 -0.2191
   49CHL1   H3' 3556   3.729   3.325   6.663  0.8441  1.2050 -0.5055
   49CHL1    C4 3557   3.760   3.190   6.877 -0.3165  0.1057  0.7386
   49CHL1   H4A 3558   3.677   3.263   6.888 -0.2945  0.0679  1.1665
   49CHL1   H4B 3559   3.708   3.094   6.855 -3.0220  0.7341  3.6362
   49CHL1    C5 3560   3.839   3.186   7.005 -0.0881  0.1714  0.2090
   49CHL1    C6 3561   3.819   3.070   7.075 -0.3236 -0.0122 -0.2506
   49CHL1    H6 3562   3.753   2.992   7.035 -1.0398  0.1760  0.5566
   49CHL1    C7 3563   3.879   3.059   7.213  0.1865  0.7430 -0.0972
   49CHL1   H7A 3564   3.809   3.020   7.290  0.4396 -1.1213 -0.7582
   49CHL1   H7B 3565   3.959   2.981   7.209  1.6294  2.1850 -0.2862
   49CHL1    C8 3566   3.947   3.182   7.277 -0.5637  0.0025 -0.4736
   49CHL1    H8 3567   3.876   3.256   7.320 -1.4366 -1.7158  1.2258
   49CHL1   C14 3568   4.038   3.132   7.389 -0.7259 -1.0526  0.5622
   49CHL1   H14 3569   4.117   3.065   7.346 -0.5549 -1.4130  1.4225
   49CHL1   C15 3570   3.969   3.054   7.503 -0.4437 -0.2020 -0.1233
   49CHL1  H15A 3571   3.889   3.121   7.539 -0.0778  0.6727 -0.9111
   49CHL1  H15B 3572   3.922   2.957   7.475 -1.2775  0.0018  0.5120
   49CHL1   C16 3573   4.077   3.052   7.615  0.3976  0.2901  0.2299
   49CHL1  H16A 3574   4.033   3.101   7.705 -0.5584  2.8144 -1.5186
   49CHL1  H16B 3575   4.103   2.946   7.637  1.2488  0.3118 -0.6079
   49CHL1   C17 3576   4.189   3.147   7.562 -0.1226 -0.0799 -0.5151
   49CHL1   H17 3577   4.267   3.092   7.505  0.3290  1.2433 -1.2111
   49CHL1   C13 3578   4.125   3.233   7.454  0.5510  0.0112  0.2066
   49CHL1   C18 3579   4.059   3.345   7.527  0.5749 -0.1711 -0.9171
   49CHL1  H18A 3580   3.996   3.404   7.457 -2.0487 -1.5617  0.1061
   49CHL1  H18B 3581   4.000   3.313   7.616 -1.5090  1.1466 -1.7509
   49CHL1  H18C 3582   4.137   3.415   7.562 -0.8884  1.1902 -0.2271
   49CHL1   C12 3583   4.210   3.297   7.339  0.3822 -0.0148 -0.2782
   49CHL1  H12A 3584   4.277   3.378   7.375  1.9715 -0.9067 -1.1144
   49CHL1  H12B 3585   4.276   3.216   7.302  0.1982  0.2360 -1.1926
   49CHL1   C11 3586   4.122   3.359   7.225 -0.0448 -0.0103  0.0374
   49CHL1  H11A 3587   4.067   3.449   7.260  0.4044 -0.1119  1.0569
   49CHL1  H11B 3588   4.189   3.390   7.142  0.2772 -3.3391 -1.0862
   49CHL1    C9 3589   4.030   3.253   7.171  0.6184 -0.1573 -0.5043
   49CHL1    H9 3590   4.099   3.173   7.135 -0.6087 -3.1053  3.1086
   49CHL1   C10 3591   3.942   3.293   7.048  0.1710 -0.0809  0.5714
   49CHL1   C19 3592   3.862   3.424   7.077 -0.4021  0.5342  0.1573
   49CHL1  H19A 3593   3.808   3.452   6.984  0.9760  0.1211 -0.7983
   49CHL1  H19B 3594   3.789   3.401   7.158  2.2062 -1.6287  2.0628
   49CHL1  H19C 3595   3.937   3.505   7.093  0.0199  0.3565 -0.8484
   49CHL1    C1 3596   4.029   3.319   6.914 -0.3944  0.1823 -0.2641
   49CHL1   H1A 3597   4.092   3.410   6.921  1.8254 -1.2663 -0.3813
   49CHL1   H1B 3598   4.106   3.240   6.918 -1.5051 -0.8868  1.3924
   49CHL1    C2 3599   3.956   3.328   6.781  0.1738 -0.3530  0.5476
   49CHL1   H2A 3600   4.033   3.335   6.701 -1.3152 -1.9506 -1.1081
   49CHL1   H2B 3601   3.904   3.426   6.789  1.9281  0.6075  0.8014
   49CHL1   C20 3602   4.271   3.208   7.677 -0.3061  0.5624  0.2478
   49CHL1   H20 3603   4.205   3.275   7.737 -0.5258  2.3432 -1.8481
   49CHL1   C21 3604   4.396   3.292   7.628  0.7025  0.0804  0.3215
   49CHL1  H21A 3605   4.370   3.355   7.539  3.0423  2.2477  1.0605
   49CHL1  H21B 3606   4.478   3.224   7.597  1.7814 -0.6551  4.2502
   49CHL1  H21C 3607   4.441   3.359   7.704 -0.6727  1.0555  0.3133
   49CHL1   C22 3608   4.318   3.096   7.771 -0.1794  0.5295 -0.0219
   49CHL1  H22A 3609   4.238   3.024   7.798 -0.2303 -0.3305 -2.2836
   49CHL1  H22B 3610   4.387   3.038   7.706 -0.8130 -0.7108  0.4003
   49CHL1   C23 3611   4.394   3.137   7.900 -0.7977  0.3276  0.1424
   49CHL1  H23A 3612   4.482   3.200   7.873  0.7547 -2.0171 -0.5652
   49CHL1  H23B 3613   4.320   3.197   7.956  1.4320  2.2734  1.1941
   49CHL1   C24 3614   4.440   3.015   7.978 -0.3676  0.9962  0.4261
   49CHL1  H24A 3615   4.351   2.964   8.020 -1.7923  0.2533 -3.2039
   49CHL1  H24B 3616   4.491   2.947   7.907 -2.0461  1.7487 -1.5778
   49CHL1   C25 3617   4.544   3.055   8.091 -0.4121 -0.0255  0.4410
   49CHL1   H25 3618   4.625   3.109   8.037  0.4243 -0.8482  0.8540
   49CHL1   C26 3619   4.475   3.153   8.196 -0.0551  1.0466  0.2353
   49CHL1  H26A 3620   4.449   3.248   8.145  2.0887  1.0963 -0.9143
   49CHL1  H26B 3621   4.380   3.105   8.227  0.9541 -1.1169  0.1972
   49CHL1  H26C 3622   4.544   3.172   8.282  0.9469 -0.5003 -0.1750
   49CHL1   C27 3623   4.603   2.940   8.168 -0.3465  0.6763  0.6699
   49CHL1  H27A 3624   4.535   2.878   8.231  0.1854  1.0986  1.6836
   49CHL1  H27B 3625   4.663   2.875   8.102  0.8648  2.4367 -0.0387
   49CHL1  H27C 3626   4.677   2.977   8.242  1.0539 -2.7199  1.1529
   50CHL1    C3 3627   3.201   5.274   6.895 -0.1442 -0.2582 -0.9800
   50CHL1    H3 3628   3.299   5.325   6.892 -0.1308 -0.3214 -2.1647
   50CHL1    O3 3629   3.127   5.327   6.786 -0.2561 -0.1888  0.1302
   50CHL1   H3' 3630   3.127   5.255   6.723  3.8922 -1.4535  1.2428
   50CHL1    C4 3631   3.221   5.127   6.874  0.6525 -0.1288  0.4584
   50CHL1   H4A 3632   3.126   5.078   6.843  0.8176  1.0076 -2.0593
   50CHL1   H4B 3633   3.294   5.119   6.790  0.4806 -1.7761  0.4179
   50CHL1    C5 3634   3.279   5.060   6.999 -0.2931 -0.7693  0.3060
   50CHL1    C6 3635   3.387   4.977   6.994 -0.0087 -0.1598 -0.1360
   50CHL1    H6 3636   3.445   4.957   6.902 -0.3313 -2.8276  0.1661
   50CHL1    C7 3637   3.452   4.930   7.117  0.0582  0.1842  0.0157
   50CHL1   H7A 3638   3.481   4.823   7.109  1.8296  0.3403  2.7714
   50CHL1   H7B 3639   3.550   4.981   7.132 -0.5858  1.4102  0.1974
   50CHL1    C8 3640   3.366   4.933   7.244 -0.5642 -0.1163 -0.0193
   50CHL1    H8 3641   3.289   4.854   7.229 -1.4616  0.4275  1.5193
   50CHL1   C14 3642   3.464   4.908   7.357  0.7315 -0.2111 -0.4591
   50CHL1   H14 3643   3.530   4.997   7.345  0.8621 -0.1290  0.7959
   50CHL1   C15 3644   3.559   4.786   7.359  0.9818 -0.1883 -0.3933
   50CHL1  H15A 3645   3.499   4.694   7.341 -1.3519  1.1649  0.1582
   50CHL1  H15B 3646   3.645   4.787   7.288  1.2342 -1.7460 -0.1517
   50CHL1   C16 3647   3.622   4.784   7.502 -0.3413 -0.0711  0.3750
   50CHL1  H16A 3648   3.616   4.685   7.550  1.4890 -1.5111 -2.1111
   50CHL1  H16B 3649   3.725   4.827   7.497 -0.5081  0.2400 -3.6478
   50CHL1   C17 3650   3.534   4.890   7.580  0.2657 -0.0955  0.0686
   50CHL1   H17 3651   3.599   4.980   7.581  2.4157 -1.5964  0.4989
   50CHL1   C13 3652   3.402   4.918   7.493 -0.4984 -0.1270 -0.4194
   50CHL1   C18 3653   3.312   4.799   7.518  0.7876  0.0770 -0.2178
   50CHL1  H18A 3654   3.268   4.796   7.620 -3.9484 -1.0465 -2.0201
   50CHL1  H18B 3655   3.220   4.787   7.457  0.8032 -2.9463  0.2195
   50CHL1  H18C 3656   3.369   4.704   7.513  0.5832 -0.1026  0.7273
   50CHL1   C12 3657   3.334   5.057   7.511 -0.5017  0.5787  0.0494
   50CHL1  H12A 3658   3.271   5.063   7.603  1.4718 -0.4653  1.5426
   50CHL1  H12B 3659   3.409   5.139   7.511  0.7261 -0.4730 -2.0595
   50CHL1   C11 3660   3.239   5.081   7.400  0.3645 -0.7704 -0.9328
   50CHL1  H11A 3661   3.155   5.010   7.418 -1.4588  1.1866 -1.2220
   50CHL1  H11B 3662   3.181   5.175   7.416  1.5321 -0.2639  0.5662
   50CHL1    C9 3663   3.300   5.067   7.257 -0.0276  0.0857  0.6235
   50CHL1    H9 3664   3.380   5.145   7.260 -1.6997  1.8417  2.0180
   50CHL1   C10 3665   3.211   5.100   7.140 -0.2089  0.6437  1.0199
   50CHL1   C19 3666   3.081   5.015   7.139  0.5001 -0.1909 -0.0224
   50CHL1  H19A 3667   3.099   4.907   7.120  0.5755 -0.4246  1.3025
   50CHL1  H19B 3668   3.029   5.025   7.236  2.9186 -1.2365  1.4866
   50CHL1  H19C 3669   3.016   5.039   7.052  2.1062 -0.3871 -1.3392
   50CHL1    C1 3670   3.177   5.253   7.152  0.0900 -0.0681  0.5446
   50CHL1   H1A 3671   3.099   5.270   7.230 -0.8013 -1.6173  0.0508
   50CHL1   H1B 3672   3.270   5.304   7.183  0.5647 -0.3174 -0.4119
   50CHL1    C2 3673   3.119   5.304   7.019  0.0295 -1.0732 -0.2636
   50CHL1   H2A 3674   3.124   5.415   7.020  0.0549 -1.0590 -1.0407
   50CHL1   H2B 3675   3.014   5.271   7.008  0.2384 -2.3287  1.2120
   50CHL1   C20 3676   3.524   4.844   7.726 -0.1316 -0.0013 -0.5950
   50CHL1   H20 3677   3.464   4.752   7.745 -1.1365  0.8929  0.7594
   50CHL1   C21 3678   3.454   4.958   7.806 -0.8681 -0.0224  0.1560
   50CHL1  H21A 3679   3.438   4.922   7.910 -0.2616  0.3339  0.3772
   50CHL1  H21B 3680   3.357   4.991   7.761 -2.6751 -4.1514  0.6227
   50CHL1  H21C 3681   3.530   5.039   7.801 -0.8087 -0.1423 -1.2408
   50CHL1   C22 3682   3.670   4.818   7.785 -0.1517  0.1293 -0.6354
   50CHL1  H22A 3683   3.696   4.725   7.729 -1.3624 -1.9959  2.0604
   50CHL1  H22B 3684   3.734   4.905   7.763 -1.2180  1.1610  0.2210
   50CHL1   C23 3685   3.668   4.795   7.941  0.1236  1.3890  0.0428
   50CHL1  H23A 3686   3.772   4.777   7.974 -0.6046  0.7967  2.1434
   50CHL1  H23B 3687   3.631   4.888   7.989  2.6601  2.1252  0.7058
   50CHL1   C24 3688   3.598   4.668   7.981  0.2286  0.2583  0.3755
   50CHL1  H24A 3689   3.489   4.668   7.958  0.3915  0.9549 -0.4660
   50CHL1  H24B 3690   3.645   4.597   7.909  2.4683  1.9542  0.0513
   50CHL1   C25 3691   3.642   4.611   8.116 -0.1953 -0.9439 -0.9776
   50CHL1   H25 3692   3.753   4.621   8.123 -0.3068 -0.1353 -0.1912
   50CHL1   C26 3693   3.555   4.680   8.231 -0.0016 -0.3150 -0.3320
   50CHL1  H26A 3694   3.449   4.649   8.219  0.0472 -1.8943  2.4257
   50CHL1  H26B 3695   3.585   4.635   8.329  1.5913 -0.4918 -0.8643
   50CHL1  H26C 3696   3.582   4.788   8.233  0.4814 -0.3738 -2.1786
   50CHL1   C27 3697   3.613   4.462   8.111  0.4469 -0.3852 -0.3109
   50CHL1  H27A 3698   3.507   4.456   8.078 -0.3481  1.5201  1.6955
   50CHL1  H27B 3699   3.669   4.406   8.033  1.7555  0.0656  0.2778
   50CHL1  H27C 3700   3.626   4.405   8.206 -1.2401 -2.2777 -1.1256
   51CHL1    C3 3701   3.063   0.783   6.674 -0.0190  0.1790  0.8771
   51CHL1    H3 3702   3.087   0.675   6.679  1.6678  0.5448  1.3008
   51CHL1    O3 3703   3.072   0.821   6.535  0.3366  0.5765 -0.4378
   51CHL1   H3' 3704   3.023   0.903   6.526 -0.7653 -0.1104 -0.9815
   51CHL1    C4 3705   2.920   0.819   6.720  0.0473 -1.0177 -0.8825
   51CHL1   H4A 3706   2.919   0.928   6.699 -0.9983 -0.9385 -0.4907
   51CHL1   H4B 3707   2.837   0.766   6.669 -0.2400 -0.3593 -1.1129
   51CHL1    C5 3708   2.905   0.814   6.868  0.6986  0.2065 -0.5475
   51CHL1    C6 3709   2.810   0.737   6.922 -1.1316  0.3919 -0.4417
   51CHL1    H6 3710   2.734   0.684   6.863  0.7627 -1.1542 -1.5832
   51CHL1    C7 3711   2.782   0.739   7.069  0.0142  0.0696  0.0235
   51CHL1   H7A 3712   2.675   0.767   7.082  0.2249  0.3755  1.1800
   51CHL1   H7B 3713   2.798   0.635   7.106  1.9078  0.2063 -0.3486
   51CHL1    C8 3714   2.875   0.837   7.156  0.6959  0.4174 -0.1175
   51CHL1    H8 3715   2.830   0.938   7.148  0.5367  0.3552 -0.0284
   51CHL1   C14 3716   2.873   0.788   7.297  0.9463 -0.0305 -0.0842
   51CHL1   H14 3717   2.912   0.685   7.303 -1.3363 -1.0798 -1.7782
   51CHL1   C15 3718   2.730   0.776   7.368 -0.0624 -0.0069  0.6364
   51CHL1  H15A 3719   2.667   0.857   7.324  1.1545 -0.3874 -1.9763
   51CHL1  H15B 3720   2.682   0.679   7.345  1.0962 -1.1261  2.6595
   51CHL1   C16 3721   2.761   0.772   7.517 -0.4037  0.1351 -0.0100
   51CHL1  H16A 3722   2.698   0.849   7.566  1.4819  1.9869 -0.3498
   51CHL1  H16B 3723   2.738   0.673   7.561  0.7395  0.4201  1.2995
   51CHL1   C17 3724   2.910   0.805   7.528 -0.2827  0.5221  0.2058
   51CHL1   H17 3725   2.963   0.707   7.523  0.6024  1.0132 -0.4152
   51CHL1   C13 3726   2.951   0.882   7.393  0.1162 -0.0768 -0.3133
   51CHL1   C18 3727   2.890   1.025   7.398 -0.1814 -0.0011 -0.0338
   51CHL1  H18A 3728   2.900   1.074   7.299 -2.3004 -0.7947 -0.6832
   51CHL1  H18B 3729   2.786   1.016   7.436  0.9286 -0.2686  3.3223
   51CHL1  H18C 3730   2.943   1.084   7.477 -0.6010  1.3632 -0.7359
   51CHL1   C12 3731   3.096   0.888   7.347  0.0821 -0.6840  0.4518
   51CHL1  H12A 3732   3.161   0.946   7.416  0.1651  0.4191 -0.5170
   51CHL1  H12B 3733   3.130   0.783   7.356 -0.1141 -0.8121 -0.2350
   51CHL1   C11 3734   3.108   0.924   7.190 -0.1699  0.5155 -0.1606
   51CHL1  H11A 3735   3.080   1.031   7.186  1.4233  1.0751  1.9933
   51CHL1  H11B 3736   3.216   0.911   7.168  0.7039  0.3653  3.5892
   51CHL1    C9 3737   3.014   0.846   7.100  0.2473 -0.4001  0.0770
   51CHL1    H9 3738   3.040   0.739   7.093 -1.6563 -0.9665  0.9181
   51CHL1   C10 3739   3.015   0.893   6.948 -0.2084  0.3332 -0.0856
   51CHL1   C19 3740   2.990   1.046   6.947  0.2533  0.3195 -0.5946
   51CHL1  H19A 3741   2.994   1.088   6.844 -2.2988  0.3385 -0.7705
   51CHL1  H19B 3742   2.890   1.084   6.979  0.0210 -1.5045  1.0306
   51CHL1  H19C 3743   3.067   1.097   7.008  0.2827 -0.3482 -0.0627
   51CHL1    C1 3744   3.161   0.869   6.897  0.2330  0.1582 -0.2114
   51CHL1   H1A 3745   3.235   0.933   6.950 -2.7690  2.7912  1.0678
   51CHL1   H1B 3746   3.183   0.766   6.934  0.9491  0.2445 -0.3715
   51CHL1    C2 3747   3.168   0.872   6.748  0.4684  0.9913  0.1542
   51CHL1   H2A 3748   3.272   0.849   6.714  0.1203 -0.2146 -0.1463
   51CHL1   H2B 3749   3.154   0.978   6.717  0.4378  0.5914 -1.2779
   51CHL1   C20 3750   2.945   0.869   7.657 -0.1217 -0.0936  0.1457
   51CHL1   H20 3751   2.955   0.980   7.654  0.8566 -0.1794 -0.0143
   51CHL1   C21 3752   3.092   0.821   7.686 -0.5959  0.2534  0.2770
   51CHL1  H21A 3753   3.102   0.713   7.710  1.4510  0.6213  1.3534
   51CHL1  H21B 3754   3.135   0.867   7.778 -3.1289  0.6366  1.3587
   51CHL1  H21C 3755   3.161   0.849   7.604  3.0710 -2.3898  2.1512
   51CHL1   C22 3756   2.849   0.836   7.778 -0.3109 -0.2203 -0.8585
   51CHL1  H22A 3757   2.753   0.887   7.760 -0.7840 -0.7904 -0.0295
   51CHL1  H22B 3758   2.825   0.728   7.769  0.3359 -0.5615  0.9102
   51CHL1   C23 3759   2.895   0.856   7.918  0.3795 -0.2451 -0.2717
   51CHL1  H23A 3760   2.823   0.806   7.986 -0.0838 -0.6259 -1.0334
   51CHL1  H23B 3761   2.986   0.793   7.935  0.6115  0.2042  0.1680
   51CHL1   C24 3762   2.933   1.002   7.965  0.0405 -0.4581 -0.1639
   51CHL1  H24A 3763   3.025   1.043   7.917 -1.0291  1.2595 -0.8640
   51CHL1  H24B 3764   2.851   1.075   7.946  0.0722 -0.3643  0.0635
   51CHL1   C25 3765   2.968   1.018   8.120  0.7102  0.2186  0.3098
   51CHL1   H25 3766   3.020   1.116   8.119  0.1768  0.5318 -2.1281
   51CHL1   C26 3767   2.846   1.016   8.218  0.1211 -0.4226  0.4273
   51CHL1  H26A 3768   2.790   0.920   8.230  0.2979 -0.7805 -1.3640
   51CHL1  H26B 3769   2.888   1.027   8.320  0.6004 -2.8714  0.5693
   51CHL1  H26C 3770   2.781   1.103   8.196  1.1093  0.4251  0.7890
   51CHL1   C27 3771   3.075   0.912   8.162  0.5514  0.1183 -0.0996
   51CHL1  H27A 3772   3.108   0.917   8.268  0.0507  1.8777 -0.0061
   51CHL1  H27B 3773   3.021   0.815   8.159 -3.6089  2.1836  0.2501
   51CHL1  H27C 3774   3.149   0.920   8.079  1.5571 -0.4468  0.7256
   52CHL1    C3 3775   6.462   1.516   6.948 -0.7338  0.4746 -0.4458
   52CHL1    H3 3776   6.376   1.445   6.949  0.8907 -1.6042 -0.4001
   52CHL1    O3 3777   6.488   1.567   6.809  0.3647 -0.2921  0.1630
   52CHL1   H3' 3778   6.533   1.650   6.828 -0.4476 -0.1212  1.4820
   52CHL1    C4 3779   6.427   1.641   7.036 -0.2899 -0.2164 -0.0770
   52CHL1   H4A 3780   6.513   1.711   7.038 -1.1552  0.9233 -0.9960
   52CHL1   H4B 3781   6.343   1.695   6.986  0.3941  0.8897 -0.0548
   52CHL1    C5 3782   6.395   1.589   7.180 -0.4525  0.0882  0.0215
   52CHL1    C6 3783   6.279   1.616   7.232 -0.5891 -0.3478  0.4832
   52CHL1    H6 3784   6.203   1.665   7.169 -0.1902 -1.7060 -1.1207
   52CHL1    C7 3785   6.241   1.581   7.370  0.2325 -0.1593  0.2655
   52CHL1   H7A 3786   6.209   1.667   7.433  1.3034  0.7971 -0.4416
   52CHL1   H7B 3787   6.160   1.506   7.363 -0.1862  0.2714  0.4339
   52CHL1    C8 3788   6.355   1.519   7.456  0.7446 -0.2763 -0.6208
   52CHL1    H8 3789   6.422   1.589   7.510  0.3463 -1.3709  1.4306
   52CHL1   C14 3790   6.297   1.441   7.573 -0.4111  1.1432 -0.3624
   52CHL1   H14 3791   6.253   1.347   7.533  1.4174 -0.1172  0.4826
   52CHL1   C15 3792   6.184   1.503   7.656 -0.5531  0.0264 -0.4551
   52CHL1  H15A 3793   6.216   1.606   7.681 -1.4426  0.2608 -0.2620
   52CHL1  H15B 3794   6.092   1.502   7.593 -1.2259  0.4027  0.5037
   52CHL1   C16 3795   6.179   1.407   7.776 -0.4887 -0.0418  0.4928
   52CHL1  H16A 3796   6.189   1.472   7.866  0.4692  0.1869  0.2337
   52CHL1  H16B 3797   6.085   1.347   7.772 -0.4137 -0.1302 -1.9203
   52CHL1   C17 3798   6.301   1.306   7.762  0.1354 -0.0479  0.2409
   52CHL1   H17 3799   6.274   1.211   7.709  1.6340 -1.7740  2.3797
   52CHL1   C13 3800   6.407   1.374   7.671  0.6636  0.1137  0.4008
   52CHL1   C18 3801   6.490   1.476   7.742  0.8910 -0.5663 -0.4805
   52CHL1  H18A 3802   6.420   1.549   7.788 -3.4699 -3.0987 -2.4483
   52CHL1  H18B 3803   6.563   1.440   7.818  0.4921  1.2424  0.8050
   52CHL1  H18C 3804   6.554   1.527   7.668  0.4265  0.4612 -0.1890
   52CHL1   C12 3805   6.491   1.281   7.580 -0.3598 -0.0957  0.1923
   52CHL1  H12A 3806   6.571   1.234   7.641  1.1445 -0.0473 -1.6562
   52CHL1  H12B 3807   6.424   1.198   7.549  1.5861 -1.0054 -1.8076
   52CHL1   C11 3808   6.555   1.353   7.458  0.4192 -0.4857  0.2359
   52CHL1  H11A 3809   6.636   1.417   7.498  0.1686  0.7174 -1.1166
   52CHL1  H11B 3810   6.607   1.283   7.389 -1.0721 -3.8329  2.2205
   52CHL1    C9 3811   6.448   1.432   7.366 -0.2953 -0.5721  0.5659
   52CHL1    H9 3812   6.386   1.350   7.324  1.8580 -1.5523 -0.8719
   52CHL1   C10 3813   6.510   1.500   7.238  0.2629  0.7949  0.0950
   52CHL1   C19 3814   6.630   1.591   7.278 -0.0386  0.4124 -0.1363
   52CHL1  H19A 3815   6.710   1.528   7.323 -0.7353 -0.2378  0.2234
   52CHL1  H19B 3816   6.670   1.647   7.192 -0.2467 -0.0325 -0.5284
   52CHL1  H19C 3817   6.597   1.665   7.354  0.0220  0.2352  0.0641
   52CHL1    C1 3818   6.571   1.393   7.146 -0.3152 -0.6788  1.1961
   52CHL1   H1A 3819   6.668   1.366   7.194 -0.6374 -1.4903  1.4153
   52CHL1   H1B 3820   6.511   1.300   7.156 -0.8187 -0.4443  0.4206
   52CHL1    C2 3821   6.583   1.440   6.995 -0.2027 -0.4882 -0.0020
   52CHL1   H2A 3822   6.595   1.362   6.917 -1.5784 -1.7301  0.9720
   52CHL1   H2B 3823   6.670   1.509   6.995 -0.8109  0.3189 -1.4074
   52CHL1   C20 3824   6.341   1.245   7.902  0.1944  0.0013 -0.5113
   52CHL1   H20 3825   6.388   1.337   7.945  0.0493 -1.2277  2.5584
   52CHL1   C21 3826   6.440   1.130   7.876  0.7287  0.5951 -0.4125
   52CHL1  H21A 3827   6.382   1.054   7.820  0.1006 -0.4056  1.5174
   52CHL1  H21B 3828   6.459   1.075   7.971 -0.3327  1.3253  0.2380
   52CHL1  H21C 3829   6.530   1.172   7.825  3.1762 -0.4933  2.6309
   52CHL1   C22 3830   6.227   1.217   7.991  0.3893  0.5681  0.7985
   52CHL1  H22A 3831   6.154   1.301   7.998 -0.4789 -0.2639  1.9228
   52CHL1  H22B 3832   6.178   1.125   7.953  0.7905  0.7461 -0.2111
   52CHL1   C23 3833   6.267   1.187   8.139 -1.0315 -0.2121  0.6250
   52CHL1  H23A 3834   6.320   1.090   8.151 -1.1075 -0.2146  0.9663
   52CHL1  H23B 3835   6.343   1.258   8.178  0.9831 -1.9494  0.0285
   52CHL1   C24 3836   6.141   1.186   8.229  0.9052  1.0090 -0.2965
   52CHL1  H24A 3837   6.103   1.290   8.232  0.4364  0.8157  1.1427
   52CHL1  H24B 3838   6.074   1.109   8.185  2.8597 -1.0186  0.1025
   52CHL1   C25 3839   6.171   1.141   8.373  0.2010  1.1371 -0.4113
   52CHL1   H25 3840   6.092   1.169   8.446  1.9988  1.8678  1.3386
   52CHL1   C26 3841   6.204   0.989   8.396 -0.2173 -0.2410  0.0648
   52CHL1  H26A 3842   6.248   0.967   8.495  1.9350 -0.5200 -0.8956
   52CHL1  H26B 3843   6.120   0.922   8.367 -1.2648  0.8412  0.5067
   52CHL1  H26C 3844   6.285   0.969   8.323 -1.4909  0.3285 -1.5685
   52CHL1   C27 3845   6.293   1.221   8.434  0.1542 -0.2266  0.4893
   52CHL1  H27A 3846   6.387   1.213   8.375  0.6598  2.3748  0.8358
   52CHL1  H27B 3847   6.253   1.324   8.434  0.3403 -0.1301  2.4842
   52CHL1  H27C 3848   6.309   1.178   8.535  0.9357 -3.5465 -0.9108
   53CHL1    C3 3849   1.072   5.527   6.920 -0.7752  0.3278  0.3338
   53CHL1    H3 3850   1.179   5.528   6.892 -1.3524  1.0467 -2.1490
   53CHL1    O3 3851   1.000   5.506   6.797 -0.1124 -0.9631  0.8925
   53CHL1   H3' 3852   0.980   5.588   6.752 -1.2797 -1.5753  0.2579
   53CHL1    C4 3853   1.042   5.419   7.026 -0.2032 -0.0752 -0.0435
   53CHL1   H4A 3854   0.932   5.402   7.030 -0.3872  0.7783 -0.9522
   53CHL1   H4B 3855   1.073   5.322   6.981  0.3800 -0.9661  2.1612
   53CHL1    C5 3856   1.105   5.451   7.164  0.1099  0.1315 -0.0098
   53CHL1    C6 3857   1.179   5.360   7.229 -0.1602 -0.5937 -0.7305
   53CHL1    H6 3858   1.196   5.264   7.178 -0.7545 -0.4417 -1.2304
   53CHL1    C7 3859   1.221   5.373   7.373  0.3378 -0.3553 -0.7053
   53CHL1   H7A 3860   1.194   5.281   7.429 -3.2106  0.8342 -0.1942
   53CHL1   H7B 3861   1.331   5.385   7.377  0.3310 -0.5170  0.1656
   53CHL1    C8 3862   1.146   5.481   7.451 -0.7471 -0.2637 -0.5006
   53CHL1    H8 3863   1.046   5.439   7.473 -0.8224  0.1544 -0.0256
   53CHL1   C14 3864   1.229   5.517   7.576  0.1320 -0.2190 -0.1642
   53CHL1   H14 3865   1.323   5.551   7.526 -0.3465  2.7606  0.7833
   53CHL1   C15 3866   1.286   5.406   7.663 -0.5990  0.0974 -0.4535
   53CHL1  H15A 3867   1.200   5.335   7.672  0.3296 -1.0183 -0.1945
   53CHL1  H15B 3868   1.366   5.344   7.619 -0.3212  0.8770 -1.0520
   53CHL1   C16 3869   1.324   5.477   7.791 -0.0698 -0.5553 -0.4484
   53CHL1  H16A 3870   1.273   5.421   7.872 -2.3748  1.7797 -0.1532
   53CHL1  H16B 3871   1.434   5.486   7.806 -0.1577  0.0417 -0.1221
   53CHL1   C17 3872   1.263   5.622   7.782 -0.4802  0.3809  0.6322
   53CHL1   H17 3873   1.348   5.672   7.731 -0.1338 -1.1931 -0.3720
   53CHL1   C13 3874   1.162   5.628   7.665 -0.8402  0.1951  0.0038
   53CHL1   C18 3875   1.032   5.569   7.720  0.1839 -0.3242 -0.5689
   53CHL1  H18A 3876   0.954   5.565   7.641  0.1170 -0.9388 -0.4766
   53CHL1  H18B 3877   1.048   5.462   7.746 -0.2462 -0.2500  0.0264
   53CHL1  H18C 3878   0.986   5.628   7.802 -0.9990 -0.2310 -1.2691
   53CHL1   C12 3879   1.143   5.754   7.575  0.8061 -0.0835 -0.2807
   53CHL1  H12A 3880   1.087   5.835   7.624 -1.2148 -2.0942  0.9075
   53CHL1  H12B 3881   1.241   5.797   7.545  0.9915 -0.7892 -0.7491
   53CHL1   C11 3882   1.065   5.722   7.442 -0.4569  0.2802 -0.0886
   53CHL1  H11A 3883   0.965   5.683   7.469 -0.5037  0.3329 -0.1840
   53CHL1  H11B 3884   1.058   5.817   7.385  3.7839  0.8143 -0.0370
   53CHL1    C9 3885   1.135   5.602   7.363  1.0023 -0.2373  0.5520
   53CHL1    H9 3886   1.241   5.627   7.341  1.6237 -1.7081  1.6832
   53CHL1   C10 3887   1.063   5.578   7.226  1.1954 -0.5773 -0.5817
   53CHL1   C19 3888   0.909   5.577   7.249  0.1924  0.4562  0.7208
   53CHL1  H19A 3889   0.875   5.504   7.325  0.1356 -2.3172 -1.7907
   53CHL1  H19B 3890   0.874   5.676   7.285 -0.3759  1.6150 -2.6441
   53CHL1  H19C 3891   0.845   5.549   7.163 -1.5539  2.5828  1.2407
   53CHL1    C1 3892   1.092   5.686   7.123  1.0124 -0.3364 -0.2561
   53CHL1   H1A 3893   1.049   5.783   7.157 -1.0586 -1.2675 -0.0585
   53CHL1   H1B 3894   1.202   5.702   7.113  1.6996 -3.3055  1.4949
   53CHL1    C2 3895   1.040   5.665   6.979  0.1422  0.1051 -0.6327
   53CHL1   H2A 3896   1.085   5.743   6.914 -1.3414  0.2323 -1.5546
   53CHL1   H2B 3897   0.930   5.678   6.966  0.0212 -0.5790 -0.3511
   53CHL1   C20 3898   1.235   5.695   7.906  0.0918 -0.0493 -0.0980
   53CHL1   H20 3899   1.163   5.776   7.884 -0.4849 -0.9713 -1.7419
   53CHL1   C21 3900   1.361   5.750   7.962  0.3229  0.2013 -0.5818
   53CHL1  H21A 3901   1.338   5.827   8.039 -2.0740 -1.7671  0.8227
   53CHL1  H21B 3902   1.420   5.800   7.883  0.5810 -1.8057 -1.7358
   53CHL1  H21C 3903   1.417   5.671   8.017  1.9737  0.4857 -1.7710
   53CHL1   C22 3904   1.172   5.603   8.022 -0.0344 -0.4744  0.1493
   53CHL1  H22A 3905   1.090   5.540   7.981 -0.1908 -0.9317  1.1466
   53CHL1  H22B 3906   1.247   5.533   8.065  1.1420  1.1481  0.8184
   53CHL1   C23 3907   1.126   5.665   8.158 -0.1851 -0.0017 -0.2434
   53CHL1  H23A 3908   1.215   5.709   8.208 -0.7656 -0.7532  1.4969
   53CHL1  H23B 3909   1.045   5.740   8.143 -3.0325 -2.7324  0.5328
   53CHL1   C24 3910   1.066   5.552   8.238  0.9486 -0.0784 -0.1876
   53CHL1  H24A 3911   0.988   5.503   8.176  1.6832  0.6289 -1.7093
   53CHL1  H24B 3912   1.152   5.482   8.248  0.8873 -0.1079  0.1622
   53CHL1   C25 3913   1.013   5.590   8.372 -0.2655 -0.0966  0.1915
   53CHL1   H25 3914   0.984   5.697   8.362  3.0881  1.2310  2.7976
   53CHL1   C26 3915   0.880   5.517   8.403 -0.2429  0.1789  0.1655
   53CHL1  H26A 3916   0.832   5.520   8.302 -1.4283 -2.1382  0.6089
   53CHL1  H26B 3917   0.896   5.413   8.437 -0.0203  0.2583  0.3079
   53CHL1  H26C 3918   0.825   5.580   8.476  0.6972  0.9347  0.2406
   53CHL1   C27 3919   1.119   5.580   8.484  0.1356 -0.3586  0.2762
   53CHL1  H27A 3920   1.087   5.619   8.583  2.2615 -0.0074  0.8754
   53CHL1  H27B 3921   1.146   5.474   8.503 -0.8669 -0.2956  2.2347
   53CHL1  H27C 3922   1.212   5.631   8.452 -1.6218  3.2181  0.3782
   54CHL1    C3 3923   5.364   1.705   7.054  0.1433 -0.5343  0.3869
   54CHL1    H3 3924   5.456   1.753   7.014 -0.1840 -0.5285 -0.3877
   54CHL1    O3 3925   5.270   1.694   6.950  0.1166 -0.2743 -0.0327
   54CHL1   H3' 3926   5.194   1.746   6.979  1.4616  1.5771  0.3774
   54CHL1    C4 3927   5.396   1.563   7.107  1.2294  0.0678  0.2143
   54CHL1   H4A 3928   5.294   1.520   7.118  0.7082  1.0847 -0.4867
   54CHL1   H4B 3929   5.456   1.508   7.032 -0.3375  1.2075 -1.9802
   54CHL1    C5 3930   5.460   1.562   7.244  0.0743  0.2417 -0.0533
   54CHL1    C6 3931   5.563   1.478   7.263  0.1148  0.3244 -0.0854
   54CHL1    H6 3932   5.599   1.413   7.182  0.7545  2.1859 -1.3319
   54CHL1    C7 3933   5.626   1.477   7.391  0.2891 -0.4563  0.0970
   54CHL1   H7A 3934   5.652   1.371   7.414 -0.0686 -0.9841 -1.7486
   54CHL1   H7B 3935   5.723   1.529   7.378 -0.5306  1.1726  0.2331
   54CHL1    C8 3936   5.559   1.542   7.517  0.5010 -0.2103 -0.3580
   54CHL1    H8 3937   5.483   1.473   7.560  0.9324 -0.8220 -0.5713
   54CHL1   C14 3938   5.660   1.578   7.620 -0.4939  0.8975  0.1650
   54CHL1   H14 3939   5.714   1.667   7.580  0.9905  1.5119  3.2044
   54CHL1   C15 3940   5.746   1.464   7.668 -0.1411 -1.1249 -0.1960
   54CHL1  H15A 3941   5.686   1.370   7.664 -0.0416 -1.1658 -1.1952
   54CHL1  H15B 3942   5.836   1.464   7.603 -0.3635 -1.9813 -0.5233
   54CHL1   C16 3943   5.794   1.500   7.809 -0.3093  0.2118 -0.0139
   54CHL1  H16A 3944   5.754   1.417   7.872  1.6453  0.2107  1.3150
   54CHL1  H16B 3945   5.904   1.501   7.825 -0.3001 -2.9074  0.9193
   54CHL1   C17 3946   5.729   1.635   7.848  0.3244 -0.4679 -0.2433
   54CHL1   H17 3947   5.796   1.719   7.822  0.4129  0.4383  2.5845
   54CHL1   C13 3948   5.605   1.642   7.752  0.0659  0.6533 -0.0874
   54CHL1   C18 3949   5.499   1.548   7.816 -1.2323 -0.3943  0.6761
   54CHL1  H18A 3950   5.447   1.596   7.902 -0.8549  0.6997  0.3194
   54CHL1  H18B 3951   5.417   1.530   7.743 -1.1118  0.5730  0.2896
   54CHL1  H18C 3952   5.543   1.449   7.838 -0.5620 -0.7991 -2.1553
   54CHL1   C12 3953   5.540   1.779   7.707  0.3229  0.8713  0.3601
   54CHL1  H12A 3954   5.484   1.825   7.790 -0.0497 -2.6055  2.2041
   54CHL1  H12B 3955   5.619   1.845   7.665  1.5465 -0.6289  0.1774
   54CHL1   C11 3956   5.438   1.755   7.591  0.3150 -0.1519 -0.7253
   54CHL1  H11A 3957   5.348   1.709   7.637  1.2526 -1.1389  0.1770
   54CHL1  H11B 3958   5.401   1.854   7.558 -0.7067 -0.2018  0.2422
   54CHL1    C9 3959   5.498   1.678   7.471 -0.0538  0.3230 -0.1762
   54CHL1    H9 3960   5.581   1.744   7.437 -0.3110  1.2506  0.9276
   54CHL1   C10 3961   5.407   1.659   7.351  0.0633 -0.1735 -0.2403
   54CHL1   C19 3962   5.266   1.607   7.406  0.6651  0.0981 -0.1014
   54CHL1  H19A 3963   5.223   1.681   7.476  1.8817  2.6203 -1.8511
   54CHL1  H19B 3964   5.186   1.602   7.329 -1.3675 -0.0764  1.9125
   54CHL1  H19C 3965   5.272   1.508   7.455 -0.1608 -0.5423 -1.2351
   54CHL1    C1 3966   5.383   1.792   7.280 -0.2961 -0.2404  0.2930
   54CHL1   H1A 3967   5.330   1.864   7.347 -0.6543  0.4304 -0.6766
   54CHL1   H1B 3968   5.482   1.836   7.254 -0.0513  0.2918  1.9746
   54CHL1    C2 3969   5.296   1.794   7.162  0.0015 -0.2948  0.2034
   54CHL1   H2A 3970   5.279   1.896   7.121 -0.2598 -0.8431 -1.0808
   54CHL1   H2B 3971   5.201   1.745   7.191 -0.9434  2.2105  1.6695
   54CHL1   C20 3972   5.697   1.650   7.998 -0.0813 -0.0608  0.6322
   54CHL1   H20 3973   5.615   1.585   8.034  0.4227 -0.0690  1.7997
   54CHL1   C21 3974   5.663   1.801   8.017  0.2773  0.2102  0.7251
   54CHL1  H21A 3975   5.564   1.816   7.969  0.7820  0.4443 -0.2719
   54CHL1  H21B 3976   5.739   1.864   7.965  1.0210 -1.1294  0.1430
   54CHL1  H21C 3977   5.645   1.834   8.122  0.4951  0.5843  0.6500
   54CHL1   C22 3978   5.815   1.619   8.093  0.3350 -0.3146  0.2397
   54CHL1  H22A 3979   5.888   1.544   8.058  1.8530  0.5309  1.4820
   54CHL1  H22B 3980   5.880   1.709   8.098  1.6265 -0.9283 -3.1099
   54CHL1   C23 3981   5.762   1.585   8.236 -0.1065  0.3880  0.3480
   54CHL1  H23A 3982   5.690   1.661   8.273 -0.4752 -0.3527  1.1876
   54CHL1  H23B 3983   5.717   1.485   8.224 -0.7421  0.7534 -0.4415
   54CHL1   C24 3984   5.873   1.574   8.333 -0.1536  0.0038 -0.4075
   54CHL1  H24A 3985   5.949   1.503   8.294  2.5690  2.2615  0.4712
   54CHL1  H24B 3986   5.934   1.662   8.359  0.5153 -1.0675  1.9894
   54CHL1   C25 3987   5.831   1.506   8.467  0.2457 -0.3233 -0.1025
   54CHL1   H25 3988   5.774   1.412   8.453  0.3629 -0.8325  2.4153
   54CHL1   C26 3989   5.954   1.471   8.557 -0.3097 -0.0597 -0.0694
   54CHL1  H26A 3990   6.021   1.398   8.508 -1.6824 -1.2982 -0.1691
   54CHL1  H26B 3991   6.017   1.562   8.562  1.6536 -1.3367 -0.6500
   54CHL1  H26C 3992   5.945   1.432   8.660  2.6560  0.5051  0.4858
   54CHL1   C27 3993   5.732   1.604   8.551 -0.2823  0.6887  0.3116
   54CHL1  H27A 3994   5.648   1.633   8.486 -1.3717 -1.9594  0.3978
   54CHL1  H27B 3995   5.682   1.553   8.637 -2.3472  2.3858  0.1908
   54CHL1  H27C 3996   5.794   1.688   8.591 -1.9145  1.0816  2.1873
   55CHL1    C3 3997   2.606   2.188   6.800 -0.3245 -0.2833 -0.2788
   55CHL1    H3 3998   2.497   2.177   6.819 -0.6807  1.4727 -1.1086
   55CHL1    O3 3999   2.632   2.107   6.691  0.0285 -0.2080  0.2178
   55CHL1   H3' 4000   2.685   2.161   6.632  0.8779 -0.7878  0.4194
   55CHL1    C4 4001   2.648   2.333   6.770  0.1036 -0.0916 -0.4839
   55CHL1   H4A 4002   2.755   2.341   6.743  0.0343  0.2263 -0.6635
   55CHL1   H4B 4003   2.592   2.361   6.678  0.7145  0.3875 -0.7090
   55CHL1    C5 4004   2.612   2.426   6.891 -0.1935 -0.3341  0.4387
   55CHL1    C6 4005   2.545   2.537   6.882 -0.1182  0.0845 -0.2953
   55CHL1    H6 4006   2.512   2.569   6.782 -0.3082  0.0308 -0.2507
   55CHL1    C7 4007   2.514   2.639   6.987  0.0298 -0.2157 -0.7162
   55CHL1   H7A 4008   2.533   2.745   6.960 -1.1123 -0.4974 -2.8461
   55CHL1   H7B 4009   2.406   2.625   7.009 -0.2103 -0.1666 -1.8129
   55CHL1    C8 4010   2.589   2.611   7.121  0.4760  0.2697 -0.3905
   55CHL1    H8 4011   2.682   2.671   7.118 -0.6329  2.0321 -1.2218
   55CHL1   C14 4012   2.506   2.675   7.232  0.2175 -0.1618  0.3424
   55CHL1   H14 4013   2.414   2.613   7.236  1.2327 -1.6764  1.5142
   55CHL1   C15 4014   2.462   2.823   7.218  0.1457 -0.1262  0.1270
   55CHL1  H15A 4015   2.542   2.887   7.177  1.0431  0.5787  2.8100
   55CHL1  H15B 4016   2.367   2.808   7.161 -1.4661  2.6468  1.8622
   55CHL1   C16 4017   2.409   2.861   7.355  0.4019  0.4924  0.2204
   55CHL1  H16A 4018   2.449   2.960   7.388  0.3445  0.1470  1.3825
   55CHL1  H16B 4019   2.298   2.860   7.356  0.3767 -1.1069  2.0397
   55CHL1   C17 4020   2.457   2.749   7.452  0.1408  0.4043 -0.1092
   55CHL1   H17 4021   2.368   2.684   7.465 -0.9075  1.3051 -2.3067
   55CHL1   C13 4022   2.567   2.668   7.371  0.5144  0.0590  0.5776
   55CHL1   C18 4023   2.700   2.750   7.383  0.3536  0.5198 -0.2349
   55CHL1  H18A 4024   2.766   2.727   7.469  1.9277  2.2454 -0.9215
   55CHL1  H18B 4025   2.760   2.727   7.293 -1.3287  1.1256 -1.5776
   55CHL1  H18C 4026   2.672   2.857   7.393 -0.7031  0.1790  0.6981
   55CHL1   C12 4027   2.582   2.516   7.401 -0.2596 -0.1700 -0.7151
   55CHL1  H12A 4028   2.626   2.502   7.502 -1.6755  2.8456  0.4720
   55CHL1  H12B 4029   2.475   2.488   7.416 -0.8560  2.9773  2.6548
   55CHL1   C11 4030   2.647   2.430   7.290  0.3370  0.4969  0.0238
   55CHL1  H11A 4031   2.755   2.455   7.298  0.4159 -0.0995  0.8656
   55CHL1  H11B 4032   2.625   2.324   7.311  0.4544  0.7226  1.3523
   55CHL1    C9 4033   2.593   2.453   7.146 -0.6370 -0.3159  0.4277
   55CHL1    H9 4034   2.490   2.412   7.146 -1.2500  1.1781  0.4310
   55CHL1   C10 4035   2.663   2.372   7.028  0.0430  0.2120 -0.5056
   55CHL1   C19 4036   2.811   2.399   7.039 -0.1737  0.5094  0.3539
   55CHL1  H19A 4037   2.840   2.506   7.028  1.7693  0.1361  1.4041
   55CHL1  H19B 4038   2.850   2.349   7.130 -1.1584 -0.9925 -0.0236
   55CHL1  H19C 4039   2.859   2.344   6.955  0.7067  2.1131 -0.2409
   55CHL1    C1 4040   2.633   2.221   7.047 -0.1336  0.5822  0.6707
   55CHL1   H1A 4041   2.690   2.189   7.137 -2.0278  0.6081  1.9438
   55CHL1   H1B 4042   2.526   2.200   7.070 -0.3852  0.1411 -0.8119
   55CHL1    C2 4043   2.677   2.130   6.925  0.0002  0.0283  0.0818
   55CHL1   H2A 4044   2.630   2.030   6.937  0.6730 -0.3168 -0.1459
   55CHL1   H2B 4045   2.787   2.130   6.909  0.0068  1.3255 -0.0094
   55CHL1   C20 4046   2.488   2.794   7.593  0.5547 -0.5554  0.6951
   55CHL1   H20 4047   2.574   2.865   7.593 -0.0392  0.4054 -3.3207
   55CHL1   C21 4048   2.530   2.673   7.685 -0.0888 -0.5296 -0.9500
   55CHL1  H21A 4049   2.460   2.586   7.678 -0.2441 -0.5540  0.5444
   55CHL1  H21B 4050   2.527   2.697   7.793  0.1796 -3.7530 -0.1399
   55CHL1  H21C 4051   2.634   2.642   7.665 -0.3072 -1.3454 -0.8504
   55CHL1   C22 4052   2.368   2.870   7.656  0.6955 -1.3754  0.1914
   55CHL1  H22A 4053   2.342   2.959   7.596  1.2079 -0.1227  1.7648
   55CHL1  H22B 4054   2.279   2.804   7.669 -1.2645  0.9785 -0.5227
   55CHL1   C23 4055   2.395   2.939   7.792  0.0585 -0.2041  0.1884
   55CHL1  H23A 4056   2.430   2.862   7.865  1.4066 -1.6371 -1.8451
   55CHL1  H23B 4057   2.481   3.008   7.777 -0.4004  0.6105  1.1710
   55CHL1   C24 4058   2.274   3.013   7.846  0.5985  0.2549 -0.0683
   55CHL1  H24A 4059   2.233   3.100   7.789  3.5280  1.4575 -0.5333
   55CHL1  H24B 4060   2.188   2.943   7.846  1.9342 -1.4573 -0.1154
   55CHL1   C25 4061   2.279   3.049   7.995 -0.2479 -0.1612  0.1253
   55CHL1   H25 4062   2.186   3.109   8.007 -0.4662 -0.5512  0.4248
   55CHL1   C26 4063   2.257   2.930   8.086 -0.0741 -0.4652 -0.8787
   55CHL1  H26A 4064   2.275   2.954   8.193  1.6663 -2.4239 -0.6678
   55CHL1  H26B 4065   2.150   2.901   8.077 -0.1457 -0.5027  0.0304
   55CHL1  H26C 4066   2.327   2.851   8.050 -0.4810 -0.5191 -1.5629
   55CHL1   C27 4067   2.405   3.129   8.024  0.1164  0.3417  0.1871
   55CHL1  H27A 4068   2.421   3.228   7.977 -1.8601  0.0881 -1.1479
   55CHL1  H27B 4069   2.404   3.162   8.130 -0.0411  0.5973  0.1078
   55CHL1  H27C 4070   2.497   3.069   8.007 -0.1542  0.2083 -0.8725
   56CHL1    C3 4071   0.871   0.330   6.919 -0.0816 -0.1052 -0.2462
   56CHL1    H3 4072   0.860   0.227   6.961 -0.2625 -0.7569 -1.8253
   56CHL1    O3 4073   0.865   0.316   6.776  0.5910  0.2095  0.0004
   56CHL1   H3' 4074   0.898   0.397   6.736 -1.2978  0.0563 -2.0346
   56CHL1    C4 4075   0.762   0.424   6.978  0.2108 -0.8505 -0.1705
   56CHL1   H4A 4076   0.765   0.523   6.928  0.5026 -0.3660  0.7731
   56CHL1   H4B 4077   0.661   0.380   6.966  0.2255 -1.0503  0.3818
   56CHL1    C5 4078   0.788   0.455   7.129  0.2972  0.3588  0.7061
   56CHL1    C6 4079   0.686   0.438   7.217  0.9048 -0.1350  0.0534
   56CHL1    H6 4080   0.590   0.400   7.179  0.8927  0.3269 -0.3856
   56CHL1    C7 4081   0.698   0.467   7.365  0.6065  0.1498 -0.0571
   56CHL1   H7A 4082   0.605   0.523   7.387 -0.4290 -0.8559 -1.6091
   56CHL1   H7B 4083   0.704   0.367   7.413  0.0798 -0.9741 -2.2007
   56CHL1    C8 4084   0.824   0.551   7.396  0.5041 -0.4294 -0.0257
   56CHL1    H8 4085   0.799   0.655   7.368 -0.3655 -0.3662  0.9054
   56CHL1   C14 4086   0.859   0.537   7.548  0.3900  0.2901  0.1501
   56CHL1   H14 4087   0.869   0.427   7.557 -3.3264 -0.5362 -3.0369
   56CHL1   C15 4088   0.747   0.583   7.635  0.0446  0.1249 -0.5623
   56CHL1  H15A 4089   0.712   0.685   7.610  1.1755  0.9651  1.1550
   56CHL1  H15B 4090   0.659   0.515   7.635  1.9586 -2.5158 -0.3827
   56CHL1   C16 4091   0.816   0.589   7.774 -0.5474  0.0209 -0.2051
   56CHL1  H16A 4092   0.785   0.684   7.822  0.4422  0.4330 -0.3741
   56CHL1  H16B 4093   0.784   0.499   7.831 -0.3152  0.6903  0.9981
   56CHL1   C17 4094   0.968   0.571   7.748 -0.1125 -0.3529 -0.3871
   56CHL1   H17 4095   0.999   0.466   7.762 -0.9238 -0.2123  3.1913
   56CHL1   C13 4096   0.983   0.604   7.598  0.1797 -0.4723 -0.4421
   56CHL1   C18 4097   0.964   0.758   7.576  0.5105  0.7330 -0.2795
   56CHL1  H18A 4098   1.060   0.813   7.577 -0.1225  1.9864 -2.2807
   56CHL1  H18B 4099   0.936   0.775   7.470  0.4737 -1.6180 -0.6889
   56CHL1  H18C 4100   0.890   0.803   7.646 -0.3266  1.4381 -1.5842
   56CHL1   C12 4101   1.103   0.551   7.518 -0.9290  0.1984  0.8373
   56CHL1  H12A 4102   1.189   0.618   7.538 -2.0857  1.3896  1.9673
   56CHL1  H12B 4103   1.130   0.449   7.555  0.3563 -0.3378 -1.4063
   56CHL1   C11 4104   1.082   0.550   7.364  0.7641 -0.4133 -0.2355
   56CHL1  H11A 4105   1.093   0.658   7.337 -2.0211  0.5988  2.1725
   56CHL1  H11B 4106   1.161   0.485   7.320  0.0081 -0.3655 -1.7238
   56CHL1    C9 4107   0.949   0.502   7.320  0.6961 -0.7417 -0.3393
   56CHL1    H9 4108   0.958   0.395   7.351  1.0040 -0.7871 -0.5885
   56CHL1   C10 4109   0.934   0.497   7.162 -0.5363 -0.0155 -0.7773
   56CHL1   C19 4110   0.960   0.641   7.112 -0.0606 -0.3848  0.2461
   56CHL1  H19A 4111   0.946   0.643   7.002 -0.9446 -4.4080  0.1241
   56CHL1  H19B 4112   0.897   0.719   7.161 -0.9826 -0.2183 -1.1502
   56CHL1  H19C 4113   1.067   0.669   7.118 -0.4977  1.1674  1.8490
   56CHL1    C1 4114   1.040   0.401   7.092 -0.4569  0.6333  0.0956
   56CHL1   H1A 4115   1.142   0.444   7.104 -0.6273  0.9538  0.3974
   56CHL1   H1B 4116   1.034   0.298   7.133 -1.0114  0.5182 -0.2539
   56CHL1    C2 4117   1.012   0.383   6.943 -0.0366  0.0991 -0.1187
   56CHL1   H2A 4118   1.083   0.309   6.901  1.2644  0.5184  1.2340
   56CHL1   H2B 4119   1.029   0.477   6.886 -1.0635 -0.1148 -0.7981
   56CHL1   C20 4120   1.064   0.640   7.845  0.0004 -0.4014  0.6360
   56CHL1   H20 4121   1.071   0.750   7.829  1.5365 -0.5880 -0.1113
   56CHL1   C21 4122   1.207   0.597   7.845 -0.8016 -0.2510  0.0663
   56CHL1  H21A 4123   1.228   0.490   7.871 -0.2147  0.1161  1.1612
   56CHL1  H21B 4124   1.257   0.651   7.928 -1.3386 -0.8689  0.8081
   56CHL1  H21C 4125   1.248   0.624   7.745  1.6316  0.2645  1.1477
   56CHL1   C22 4126   1.020   0.615   7.991 -0.1343 -0.0484  0.3118
   56CHL1  H22A 4127   1.089   0.665   8.062 -1.2344  1.7956  0.1471
   56CHL1  H22B 4128   0.929   0.678   7.997  1.3663  2.0953  1.7250
   56CHL1   C23 4129   0.995   0.479   8.051  0.3132  0.1056 -0.2760
   56CHL1  H23A 4130   0.907   0.433   8.001  0.9465 -1.9687  0.4119
   56CHL1  H23B 4131   1.076   0.406   8.031  1.0504  0.7883  0.1542
   56CHL1   C24 4132   0.976   0.492   8.209 -0.1226 -0.0592 -0.2931
   56CHL1  H24A 4133   1.060   0.553   8.249  0.2221 -0.6592 -0.0862
   56CHL1  H24B 4134   0.884   0.552   8.223  0.0896  0.7828 -2.2107
   56CHL1   C25 4135   0.955   0.360   8.283  0.6928  0.3299  0.0520
   56CHL1   H25 4136   0.867   0.313   8.235  0.5318 -0.0334  0.6988
   56CHL1   C26 4137   1.078   0.270   8.281 -0.2197  0.0180  0.2973
   56CHL1  H26A 4138   1.066   0.170   8.328 -1.3042  0.5538  1.2006
   56CHL1  H26B 4139   1.154   0.326   8.340  0.8997 -0.5835 -0.5376
   56CHL1  H26C 4140   1.121   0.248   8.181 -0.0800 -0.8709  0.5499
   56CHL1   C27 4141   0.914   0.392   8.426 -0.2005  0.3193 -0.3890
   56CHL1  H27A 4142   0.999   0.435   8.482 -0.9122 -1.7655  2.5394
   56CHL1  H27B 4143   0.833   0.467   8.428 -0.0793  0.4895 -1.3661
   56CHL1  H27C 4144   0.885   0.299   8.481 -0.5688  1.5610  1.6046
   57SAPC     N 4145   0.882   4.544  11.000  0.4073 -0.4904  0.3926
   57SAPC   C12 4146   0.899   4.467  10.874  0.0829  0.4456  0.4949
   57SAPC  H12A 4147   0.835   4.380  10.867 -3.1828  2.7663 -2.0640
   57SAPC  H12B 4148   0.999   4.428  10.875  0.6887  1.9287  0.1677
   57SAPC   C13 4149   0.880   4.449  11.120 -0.6599 -0.0346 -0.3102
   57SAPC  H13A 4150   0.792   4.386  11.114  0.0031 -1.0751  0.4841
   57SAPC  H13B 4151   0.976   4.400  11.117 -0.4310  0.4816 -1.7291
   57SAPC  H13C 4152   0.867   4.505  11.212 -2.4479 -0.3169 -0.3555
   57SAPC   C14 4153   1.001   4.630  11.021  0.2946  0.3408  0.1027
   57SAPC  H14A 4154   1.096   4.589  10.990  0.1088 -0.5709  0.6864
   57SAPC  H14B 4155   0.984   4.728  10.979  1.2361  0.6240  0.3611
   57SAPC  H14C 4156   1.023   4.658  11.123  1.5328 -1.0519  0.2478
   57SAPC   C15 4157   0.758   4.629  11.017 -0.1006  0.2967 -0.4880
   57SAPC  H15A 4158   0.673   4.564  11.031 -0.5021  1.0693  0.7889
   57SAPC  H15B 4159   0.775   4.676  11.113 -1.7670 -0.4826  0.2219
   57SAPC  H15C 4160   0.743   4.696  10.934  0.6040 -0.6972 -1.4460
   57SAPC   C11 4161   0.876   4.548  10.737  0.4813  0.3691 -1.2250
   57SAPC  H11A 4162   0.930   4.501  10.652 -0.1820 -2.1605 -0.3326
   57SAPC  H11B 4163   0.907   4.653  10.753  2.8372 -0.5736  1.1215
   57SAPC     P 4164   0.668   4.456  10.602  0.0740 -0.4422  0.2580
   57SAPC   O13 4165   0.745   4.330  10.604  0.7674  0.4906  0.4852
   57SAPC   O14 4166   0.523   4.457  10.632 -0.4288  0.6279  0.1753
   57SAPC   O12 4167   0.730   4.550  10.715  0.1487 -0.1133  0.2738
   57SAPC   O11 4168   0.682   4.517  10.458 -0.5817  0.1983  0.4832
   57SAPC    C1 4169   0.679   4.659  10.450 -0.3993 -0.3625 -0.0878
   57SAPC    HA 4170   0.747   4.707  10.522  0.1388 -1.8576  0.4351
   57SAPC    HB 4171   0.704   4.684  10.344 -2.1419 -1.2575 -0.7674
   57SAPC    C2 4172   0.534   4.709  10.465  0.0529 -0.1324 -0.1758
   57SAPC    HS 4173   0.475   4.659  10.545  1.4321 -0.2073  0.8298
   57SAPC   O21 4174   0.463   4.697  10.343 -0.1097 -0.2530 -0.7468
   57SAPC   C21 4175   0.331   4.714  10.345  0.1096 -1.0253 -0.8801
   57SAPC   O22 4176   0.258   4.728  10.443 -0.5948 -0.4987  0.0316
   57SAPC   C22 4177   0.280   4.710  10.203 -0.4289  0.6171 -0.3397
   57SAPC   H2R 4178   0.288   4.811  10.157  1.6194  1.1212  0.9607
   57SAPC   H2S 4179   0.347   4.636  10.155 -1.8494 -0.6539 -0.4281
   57SAPC    C3 4180   0.532   4.860  10.505 -0.0024  0.3436  0.0511
   57SAPC    HX 4181   0.569   4.866  10.610  0.9150  2.0505 -0.3314
   57SAPC    HY 4182   0.429   4.902  10.517  0.8358  2.5470  0.0649
   57SAPC   O31 4183   0.629   4.942  10.436  0.1764  0.0714 -0.1009
   57SAPC   C31 4184   0.575   5.028  10.340  0.6917 -0.1815  0.2329
   57SAPC   O32 4185   0.456   5.042  10.322  0.2965 -0.3601 -0.4512
   57SAPC   C32 4186   0.680   5.090  10.263 -0.1306 -1.1869 -0.3255
   57SAPC   H2X 4187   0.780   5.047  10.282  0.7336 -0.6537 -3.1101
   57SAPC   H2Y 4188   0.679   5.201  10.270  0.7321 -1.0833 -1.5630
   57SAPC   C23 4189   0.130   4.683  10.179 -0.0402  0.8068  0.3578
   57SAPC   H3R 4190   0.066   4.739  10.250 -1.8149  0.6016 -1.0035
   57SAPC   H3S 4191   0.108   4.576  10.199 -0.1637  0.5858 -0.8798
   57SAPC   C24 4192   0.052   4.710  10.040 -0.9740 -0.3315 -0.1194
   57SAPC   H4R 4193   0.038   4.820  10.033 -2.4691  0.1145  5.1219
   57SAPC   H4S 4194  -0.054   4.677  10.048 -1.2902  0.7410  0.3310
   57SAPC   C25 4195   0.130   4.641   9.937 -0.7406  1.0232  0.3215
   57SAPC   H5R 4196   0.115   4.532   9.930  0.9939  0.6686  1.4625
   57SAPC   C26 4197   0.225   4.695   9.855  0.1106 -0.3723  0.5404
   57SAPC   H6R 4198   0.289   4.632   9.791 -0.4560 -0.3604 -0.0425
   57SAPC   C27 4199   0.256   4.845   9.852  0.6621  0.2702  0.3565
   57SAPC   H7R 4200   0.359   4.849   9.892 -0.1048 -0.4064  2.5627
   57SAPC   H7S 4201   0.196   4.896   9.930 -2.4449 -1.0704 -0.9852
   57SAPC   C28 4202   0.233   4.913   9.716  0.7394 -0.0433  0.4498
   57SAPC   H8R 4203   0.139   4.969   9.714 -0.2792 -1.6893 -0.4767
   57SAPC   C29 4204   0.302   4.898   9.603 -0.5288  0.5290 -0.6618
   57SAPC   H9R 4205   0.279   4.963   9.517 -0.7361  3.4826  1.4822
   57SAPC  C210 4206   0.429   4.814   9.586 -0.4337 -0.0289  0.9189
   57SAPC  H10R 4207   0.400   4.726   9.526  1.7635  1.4767 -2.6522
   57SAPC  H10S 4208   0.473   4.781   9.682 -0.4368  1.0013  1.2887
   57SAPC  C211 4209   0.534   4.888   9.501  0.5470  0.6991 -0.4285
   57SAPC  H11R 4210   0.621   4.923   9.560  0.1735 -1.4754  1.5640
   57SAPC  C212 4211   0.532   4.896   9.366  0.0127 -0.4670 -0.2658
   57SAPC  H12R 4212   0.616   4.941   9.311  2.1154 -1.8835  1.5523
   57SAPC  C213 4213   0.422   4.843   9.273 -0.5284  0.3666 -1.2122
   57SAPC  H13R 4214   0.343   4.792   9.331 -0.5015  1.4652 -0.1764
   57SAPC  H13S 4215   0.471   4.759   9.220  0.9562  1.0491 -0.9823
   57SAPC  C214 4216   0.348   4.952   9.197 -0.0421 -0.1934 -0.1028
   57SAPC  H14R 4217   0.256   4.990   9.244  1.1295  0.6185  1.6041
   57SAPC  C215 4218   0.404   4.990   9.080 -0.5269 -0.0162 -0.1630
   57SAPC  H15R 4219   0.339   5.066   9.033  0.5257  0.9009 -0.1786
   57SAPC  C216 4220   0.527   4.949   9.007  0.0405  0.2093  0.0080
   57SAPC  H16R 4221   0.492   4.913   8.909  3.1845 -0.0522 -1.1216
   57SAPC  H16S 4222   0.583   4.870   9.061 -0.4852 -0.9615 -1.1259
   57SAPC  C217 4223   0.612   5.066   8.974 -0.2931  0.1469  0.4380
   57SAPC  H17R 4224   0.623   5.127   9.066  1.2674 -1.4231  1.3469
   57SAPC  H17S 4225   0.558   5.113   8.888 -1.5297  0.2145  1.2258
   57SAPC  C218 4226   0.753   5.033   8.928 -0.1062  0.2666  0.4803
   57SAPC  H18R 4227   0.811   4.981   9.007  2.7173  1.0977 -0.8997
   57SAPC  H18S 4228   0.797   5.134   8.914 -0.1210  0.3782  1.1888
   57SAPC  C219 4229   0.749   4.938   8.805 -0.1829 -0.1098 -0.3101
   57SAPC  H19R 4230   0.671   4.979   8.737 -0.1607  0.3906 -0.0361
   57SAPC  H19S 4231   0.728   4.832   8.830 -0.1415  0.2413  1.2951
   57SAPC  C220 4232   0.889   4.938   8.729  1.0558  0.4298  0.3988
   57SAPC  H20R 4233   0.932   5.040   8.719 -1.0547  1.4367  0.9456
   57SAPC  H20S 4234   0.879   4.897   8.626 -0.8926  2.5895 -0.3555
   57SAPC  H20T 4235   0.966   4.887   8.791  1.5545  0.5429 -0.1185
   57SAPC   C33 4236   0.658   5.055  10.114  0.0765  0.0182 -0.1291
   57SAPC   H3X 4237   0.738   5.117  10.068  0.7347  0.4123  1.4746
   57SAPC   H3Y 4238   0.558   5.091  10.080 -1.0766 -0.4741  2.4760
   57SAPC   C34 4239   0.673   4.909  10.078 -0.8483 -0.4115 -0.5736
   57SAPC   H4X 4240   0.590   4.841  10.108 -0.9407 -0.1185 -0.1574
   57SAPC   H4Y 4241   0.760   4.869  10.134  0.2580  2.8683  0.2446
   57SAPC   C35 4242   0.723   4.894   9.941 -1.2032 -0.1884  0.3094
   57SAPC   H5X 4243   0.806   4.963   9.919  1.3283 -2.5902  1.6246
   57SAPC   H5Y 4244   0.640   4.907   9.868 -0.1378 -0.0079 -0.9015
   57SAPC   C36 4245   0.794   4.752   9.915  0.3844  0.8737  0.3938
   57SAPC   H6X 4246   0.730   4.675   9.963  2.4607 -1.5153 -0.4842
   57SAPC   H6Y 4247   0.898   4.742   9.953  0.9818  1.5390 -0.9972
   57SAPC   C37 4248   0.804   4.723   9.768  0.2466 -0.4134 -0.8012
   57SAPC   H7X 4249   0.866   4.806   9.726 -2.1394  1.3650 -1.0239
   57SAPC   H7Y 4250   0.704   4.734   9.721 -0.9824 -1.0198  1.5496
   57SAPC   C38 4251   0.871   4.585   9.751 -0.5260 -0.1713  0.6159
   57SAPC   H8X 4252   0.851   4.517   9.837  0.3950 -0.8276  0.3243
   57SAPC   H8Y 4253   0.978   4.614   9.762 -1.1675  3.8016 -1.6828
   57SAPC   C39 4254   0.832   4.504   9.625 -0.2797 -0.1465  0.5545
   57SAPC   H9X 4255   0.866   4.559   9.534  0.2706  0.9963  1.4308
   57SAPC   H9Y 4256   0.721   4.509   9.617 -0.1769  2.4232 -0.4777
   57SAPC  C310 4257   0.877   4.359   9.617 -0.3879  0.1377  0.4335
   57SAPC  H10X 4258   0.827   4.320   9.526 -3.1771  0.5085  1.7081
   57SAPC  H10Y 4259   0.831   4.302   9.701 -0.2254  0.4353  0.7269
   57SAPC  C311 4260   1.027   4.342   9.617 -0.3866  0.8826  0.6309
   57SAPC  H11X 4261   1.045   4.235   9.640 -1.1654  0.9184  1.4743
   57SAPC  H11Y 4262   1.078   4.408   9.690 -1.6746  0.1735  2.2166
   57SAPC  C312 4263   1.083   4.359   9.470 -0.1658 -0.0058 -0.3196
   57SAPC  H12X 4264   1.067   4.462   9.431  0.7808  0.1249 -0.3913
   57SAPC  H12Y 4265   1.038   4.289   9.396 -0.4262  0.1920 -0.3481
   57SAPC  C313 4266   1.234   4.317   9.483  0.1851  0.6281  0.3449
   57SAPC  H13X 4267   1.241   4.215   9.526  1.9576 -0.3979 -2.1356
   57SAPC  H13Y 4268   1.292   4.387   9.547 -1.8634  1.2990  1.5732
   57SAPC  C314 4269   1.296   4.319   9.348  0.0656 -0.5686 -0.3817
   57SAPC  H14X 4270   1.232   4.269   9.273  2.0214 -1.8380 -1.2724
   57SAPC  H14Y 4271   1.391   4.262   9.355 -0.0852 -0.6533  1.8721
   57SAPC  C315 4272   1.323   4.464   9.301  0.4320  0.5227  0.0536
   57SAPC  H15X 4273   1.380   4.517   9.381 -0.4484  2.3194 -0.4631
   57SAPC  H15Y 4274   1.231   4.524   9.285  0.7861  1.8968  2.5783
   57SAPC  C316 4275   1.399   4.464   9.164  0.8890 -0.2255 -1.0718
   57SAPC  H16X 4276   1.500   4.435   9.199  1.2440  1.2156 -0.8396
   57SAPC  H16Y 4277   1.406   4.569   9.129  0.7780  0.6777  1.4230
   57SAPC  C317 4278   1.341   4.381   9.055 -0.0210  0.4734 -0.1846
   57SAPC  H17X 4279   1.234   4.409   9.047 -0.2791 -0.6636 -0.8542
   57SAPC  H17Y 4280   1.355   4.273   9.077  1.1961  0.0801 -2.5634
   57SAPC  C318 4281   1.404   4.405   8.920  0.2999  0.3525  1.0174
   57SAPC  H18X 4282   1.347   4.344   8.848  2.4024  0.2739 -0.6646
   57SAPC  H18Y 4283   1.512   4.381   8.917  1.1110  3.4622  1.2900
   57SAPC  H18Z 4284   1.389   4.511   8.890 -0.2841  0.4370  1.5638
   58SAPC     N 4285   0.820   3.766  10.770 -0.4655 -0.5080 -0.1050
   58SAPC   C12 4286   0.904   3.635  10.785 -0.1109  0.7215  0.0148
   58SAPC  H12A 4287   0.867   3.572  10.865 -0.0559  1.5749  0.7211
   58SAPC  H12B 4288   0.998   3.663  10.828 -1.8054  2.2476  3.0197
   58SAPC   C13 4289   0.676   3.747  10.747 -0.5246 -0.4901  0.6044
   58SAPC  H13A 4290   0.638   3.701  10.837  0.0580 -1.8820  0.1585
   58SAPC  H13B 4291   0.633   3.844  10.722 -0.3769 -0.0270  2.0489
   58SAPC  H13C 4292   0.666   3.677  10.666 -1.1289 -1.3543  1.3962
   58SAPC   C14 4293   0.853   3.846  10.895  0.3949  0.0092  0.1817
   58SAPC  H14A 4294   0.961   3.855  10.902  0.5897 -2.2819  1.0870
   58SAPC  H14B 4295   0.810   3.944  10.884 -0.2152 -0.2837 -0.0949
   58SAPC  H14C 4296   0.815   3.798  10.984  0.7721 -0.8063 -0.0808
   58SAPC   C15 4297   0.869   3.840  10.650 -0.5930 -0.3012 -0.1992
   58SAPC  H15A 4298   0.832   3.785  10.564 -0.8941 -0.7716  0.2281
   58SAPC  H15B 4299   0.845   3.945  10.641  0.5889  0.0239  0.2007
   58SAPC  H15C 4300   0.977   3.840  10.650 -0.5754 -1.1654  0.7961
   58SAPC   C11 4301   0.938   3.539  10.664  0.7320  0.6812 -0.2134
   58SAPC  H11A 4302   1.009   3.460  10.697  0.1835 -0.4130 -1.5469
   58SAPC  H11B 4303   0.986   3.605  10.590 -0.1066  1.3243 -0.1974
   58SAPC     P 4304   0.774   3.343  10.630  0.2737 -0.0867 -0.0621
   58SAPC   O13 4305   0.830   3.288  10.757 -0.1129 -0.0543  0.6920
   58SAPC   O14 4306   0.628   3.359  10.627  0.3475 -0.4443  0.1058
   58SAPC   O12 4307   0.823   3.489  10.606 -0.1431  0.0737  0.0466
   58SAPC   O11 4308   0.820   3.256  10.502 -0.4484 -0.0044 -0.6046
   58SAPC    C1 4309   0.945   3.188  10.511 -0.0896 -0.1108  0.2180
   58SAPC    HA 4310   1.016   3.265  10.550 -0.0102  0.9296 -1.8064
   58SAPC    HB 4311   0.940   3.111  10.590  1.1546 -0.4368  0.0073
   58SAPC    C2 4312   1.005   3.124  10.384  0.2252 -0.7348  0.3824
   58SAPC    HS 4313   1.113   3.099  10.396  0.4025 -1.6937 -2.3586
   58SAPC   O21 4314   0.980   3.216  10.273  0.0842  0.0560  0.5717
   58SAPC   C21 4315   1.049   3.328  10.259  0.3788 -0.5378 -0.6172
   58SAPC   O22 4316   1.150   3.356  10.317 -0.2210 -0.6015  0.2453
   58SAPC   C22 4317   0.974   3.422  10.164  0.0427 -0.5965 -0.0618
   58SAPC   H2R 4318   0.980   3.390  10.058  1.3976 -0.2213 -0.1206
   58SAPC   H2S 4319   0.866   3.436  10.182 -0.0128  0.6883 -1.2444
   58SAPC    C3 4320   0.943   2.984  10.349 -0.1470 -0.6451 -0.2584
   58SAPC    HX 4321   0.835   2.998  10.330  0.0205 -2.3068 -2.9332
   58SAPC    HY 4322   0.946   2.915  10.436 -1.5321  0.3501  0.6185
   58SAPC   O31 4323   0.999   2.936  10.227  0.4400  0.1143  0.1357
   58SAPC   C31 4324   0.942   2.970  10.110 -0.0969  0.0709  0.7144
   58SAPC   O32 4325   0.850   3.052  10.102 -0.3344  0.5531 -0.4974
   58SAPC   C32 4326   0.995   2.877  10.002  0.2300 -0.0335 -0.1497
   58SAPC   H2X 4327   1.017   2.778  10.047 -0.9180 -1.6399 -2.8727
   58SAPC   H2Y 4328   1.092   2.927   9.982 -0.5608  0.9357 -1.7063
   58SAPC   C23 4329   1.052   3.554  10.162  0.0939 -0.6975  0.9332
   58SAPC   H3R 4330   1.159   3.544  10.135  0.5250  2.5218  1.0681
   58SAPC   H3S 4331   1.039   3.613  10.256 -0.2492  0.9272 -0.0972
   58SAPC   C24 4332   0.994   3.646  10.049 -0.6054  0.0602  0.2007
   58SAPC   H4R 4333   0.886   3.656  10.070 -0.3468 -0.5912  2.0503
   58SAPC   H4S 4334   0.999   3.577   9.961 -1.9695  1.1440 -0.7697
   58SAPC   C25 4335   1.066   3.777  10.032 -0.0397  0.6264  0.0018
   58SAPC   H5R 4336   1.070   3.834  10.126 -1.3850  0.4512  0.1847
   58SAPC   C26 4337   1.120   3.831   9.924  0.3999 -0.0169  0.3894
   58SAPC   H6R 4338   1.150   3.936   9.933 -1.8778  0.6243  1.2263
   58SAPC   C27 4339   1.132   3.761   9.790 -0.2427 -0.1096  0.5828
   58SAPC   H7R 4340   1.079   3.664   9.786 -1.6458  0.6573 -0.0329
   58SAPC   H7S 4341   1.237   3.733   9.764  0.3802  2.1528  0.4813
   58SAPC   C28 4342   1.074   3.844   9.681  0.0501  0.7549  0.0239
   58SAPC   H8R 4343   0.996   3.914   9.713 -1.0379  1.3803 -3.5762
   58SAPC   C29 4344   1.085   3.843   9.545 -0.4217  0.9848  0.2215
   58SAPC   H9R 4345   1.028   3.918   9.488 -1.7432 -1.4736 -1.8990
   58SAPC  C210 4346   1.182   3.750   9.470 -0.2150 -0.9923  0.4753
   58SAPC  H10R 4347   1.285   3.760   9.510  0.4289  2.9134 -1.5923
   58SAPC  H10S 4348   1.193   3.802   9.372  0.1650  0.7129  1.3779
   58SAPC  C211 4349   1.146   3.603   9.458  0.1017 -0.3631 -0.4154
   58SAPC  H11R 4350   1.134   3.557   9.557 -0.7483  1.2233  0.2596
   58SAPC  C212 4351   1.127   3.534   9.347  0.4410 -0.5592 -1.4588
   58SAPC  H12R 4352   1.084   3.435   9.368 -1.4390  0.2132 -1.5088
   58SAPC  C213 4353   1.148   3.568   9.206 -0.1256 -0.6057  0.0211
   58SAPC  H13R 4354   1.124   3.675   9.190 -0.9968 -0.1759  3.4256
   58SAPC  H13S 4355   1.081   3.505   9.144 -0.5538  0.2179 -0.3778
   58SAPC  C214 4356   1.289   3.546   9.163 -0.3692 -0.1082  0.4350
   58SAPC  H14R 4357   1.372   3.536   9.234  1.5700  0.2588 -1.6815
   58SAPC  C215 4358   1.331   3.563   9.038 -0.3803  0.8713 -0.0062
   58SAPC  H15R 4359   1.437   3.544   9.015 -0.3526 -0.9368  1.3718
   58SAPC  C216 4360   1.240   3.590   8.926  0.0731 -0.5256 -0.0996
   58SAPC  H16R 4361   1.180   3.683   8.939  0.5032 -0.3073  0.4359
   58SAPC  H16S 4362   1.167   3.508   8.912 -0.9533  0.0933  1.3570
   58SAPC  C217 4363   1.310   3.605   8.795 -0.1163  0.5411 -0.6203
   58SAPC  H17R 4364   1.343   3.503   8.765 -0.5454  0.1069  0.3375
   58SAPC  H17S 4365   1.400   3.670   8.797  0.6011 -0.4228 -0.8316
   58SAPC  C218 4366   1.226   3.665   8.681  0.0467 -0.8292  0.2346
   58SAPC  H18R 4367   1.182   3.761   8.713 -0.0821 -0.4511 -1.0377
   58SAPC  H18S 4368   1.142   3.595   8.659 -0.1608 -0.4641 -0.1362
   58SAPC  C219 4369   1.304   3.704   8.553 -0.9015 -0.0763  0.3096
   58SAPC  H19R 4370   1.346   3.612   8.507 -3.4154 -1.1067 -0.1051
   58SAPC  H19S 4371   1.388   3.770   8.582 -0.3081 -0.7639  0.2002
   58SAPC  C220 4372   1.199   3.764   8.462 -0.0415  0.4644 -0.8068
   58SAPC  H20R 4373   1.177   3.865   8.504 -0.7539  0.1428 -0.4055
   58SAPC  H20S 4374   1.103   3.710   8.468 -1.0068  2.1877  0.0186
   58SAPC  H20T 4375   1.237   3.761   8.357  2.9977 -5.5859  0.0374
   58SAPC   C33 4376   0.894   2.854   9.890 -0.7241  0.5008  0.0356
   58SAPC   H3X 4377   0.851   2.952   9.863 -3.0959 -0.5726 -0.3459
   58SAPC   H3Y 4378   0.817   2.778   9.916  0.3442 -1.4178 -1.9988
   58SAPC   C34 4379   0.953   2.794   9.765 -0.5035  0.1140  0.3740
   58SAPC   H4X 4380   0.991   2.691   9.785 -0.6979 -0.2503 -1.0208
   58SAPC   H4Y 4381   1.041   2.843   9.720 -0.4950 -1.0817 -1.0139
   58SAPC   C35 4382   0.840   2.778   9.657  0.0204  0.9098 -0.9585
   58SAPC   H5X 4383   0.800   2.878   9.634  1.0643  2.1571  2.1577
   58SAPC   H5Y 4384   0.762   2.714   9.702  1.0084  1.0454  1.0453
   58SAPC   C36 4385   0.894   2.719   9.532  0.6559 -0.1611 -0.0368
   58SAPC   H6X 4386   0.923   2.612   9.537  0.3617 -0.2072  0.8166
   58SAPC   H6Y 4387   0.985   2.780   9.510 -1.1331  2.0775 -1.7572
   58SAPC   C37 4388   0.789   2.732   9.423  0.4594  1.0749 -0.1189
   58SAPC   H7X 4389   0.753   2.836   9.406  1.2122  1.4589  0.5460
   58SAPC   H7Y 4390   0.704   2.670   9.458  1.3949  0.0817  0.4618
   58SAPC   C38 4391   0.839   2.676   9.290  0.1633 -0.4968  0.0194
   58SAPC   H8X 4392   0.841   2.567   9.310 -2.0615 -0.2792  1.8769
   58SAPC   H8Y 4393   0.942   2.712   9.267 -0.1629 -0.1303 -0.8821
   58SAPC   C39 4394   0.740   2.705   9.182  0.2116 -0.6724 -0.1278
   58SAPC   H9X 4395   0.708   2.811   9.182 -1.5749 -1.1561  1.4400
   58SAPC   H9Y 4396   0.652   2.637   9.180 -0.0148 -0.3571 -1.3100
   58SAPC  C310 4397   0.807   2.680   9.047  0.5996 -0.1073 -0.6903
   58SAPC  H10X 4398   0.899   2.741   9.037 -0.1604  0.8660 -2.0888
   58SAPC  H10Y 4399   0.740   2.716   8.966 -0.0220 -0.0041 -0.1467
   58SAPC  C311 4400   0.843   2.532   9.023  0.3193  0.9607  0.3310
   58SAPC  H11X 4401   0.743   2.485   9.015  0.4975  0.8184 -1.4010
   58SAPC  H11Y 4402   0.894   2.488   9.112 -0.6837 -2.5992 -0.6812
   58SAPC  C312 4403   0.927   2.513   8.905  0.4954  0.1096 -0.3432
   58SAPC  H12X 4404   0.894   2.586   8.828 -0.4805 -0.0002 -0.0498
   58SAPC  H12Y 4405   0.900   2.417   8.856  0.1972 -0.3021  0.6049
   58SAPC  C313 4406   1.079   2.522   8.925  1.2576  0.4107 -0.4577
   58SAPC  H13X 4407   1.112   2.441   8.993 -0.5060  0.1438  0.1472
   58SAPC  H13Y 4408   1.116   2.617   8.969  0.3119  0.0713  1.1785
   58SAPC  C314 4409   1.154   2.508   8.790 -0.0289 -0.6206 -0.1876
   58SAPC  H14X 4410   1.263   2.504   8.812  0.4069  2.7074 -1.2483
   58SAPC  H14Y 4411   1.139   2.603   8.735 -1.4800 -0.4231  0.4956
   58SAPC  C315 4412   1.106   2.390   8.703  0.1850  0.0589 -0.2538
   58SAPC  H15X 4413   1.014   2.414   8.644  0.5226 -0.3509 -0.9687
   58SAPC  H15Y 4414   1.073   2.308   8.771  3.0846 -1.0636 -0.0720
   58SAPC  C316 4415   1.216   2.345   8.609  0.1564 -0.0320  0.0784
   58SAPC  H16X 4416   1.165   2.288   8.528  3.7109 -2.7665 -0.4948
   58SAPC  H16Y 4417   1.292   2.282   8.660 -0.6443 -1.5955 -0.5776
   58SAPC  C317 4418   1.283   2.455   8.523  0.0178 -0.0319  0.5571
   58SAPC  H17X 4419   1.332   2.538   8.576 -2.1234  2.9270 -1.7212
   58SAPC  H17Y 4420   1.202   2.511   8.471  0.6614  0.3432 -0.0607
   58SAPC  C318 4421   1.383   2.391   8.419  0.1435  0.0598  0.2005
   58SAPC  H18X 4422   1.485   2.376   8.461  0.5210  1.6727 -0.0746
   58SAPC  H18Y 4423   1.408   2.453   8.331 -0.6267  1.1602  0.7327
   58SAPC  H18Z 4424   1.337   2.297   8.381 -1.2105  0.6814  0.2455
   59SAPC     N 4425   1.774   4.902  10.971 -0.1315 -0.3442 -0.3236
   59SAPC   C12 4426   1.626   4.866  10.932 -0.2745 -0.0988  0.4817
   59SAPC  H12A 4427   1.558   4.885  11.014 -3.1355 -0.3941 -1.6576
   59SAPC  H12B 4428   1.627   4.760  10.911  0.6889 -0.0431  0.2061
   59SAPC   C13 4429   1.870   4.848  10.872 -0.5572  0.1175 -0.5434
   59SAPC  H13A 4430   1.879   4.741  10.877 -0.7391  0.0276 -1.7689
   59SAPC  H13B 4431   1.836   4.868  10.771  1.5881 -1.1507 -1.5868
   59SAPC  H13C 4432   1.971   4.887  10.881 -1.2800  1.9380  0.2002
   59SAPC   C14 4433   1.796   5.052  10.976 -0.5001  0.7814  0.2443
   59SAPC  H14A 4434   1.897   5.066  11.012 -0.8187 -0.7586  1.8741
   59SAPC  H14B 4435   1.767   5.104  10.886  0.5913  1.8573  0.4991
   59SAPC  H14C 4436   1.732   5.099  11.048 -0.7101  3.1919 -1.3995
   59SAPC   C15 4437   1.805   4.839  11.108  0.2819  0.7028 -0.1967
   59SAPC  H15A 4438   1.874   4.894  11.171  1.4402 -2.2998  1.3392
   59SAPC  H15B 4439   1.712   4.833  11.162  0.9321 -1.9499  0.7685
   59SAPC  H15C 4440   1.843   4.739  11.098  1.7676  0.9217  2.4450
   59SAPC   C11 4441   1.565   4.947  10.821 -0.2540  0.1043 -0.2517
   59SAPC  H11A 4442   1.478   4.898  10.773 -0.8862  0.8939  0.0597
   59SAPC  H11B 4443   1.650   4.949  10.750  2.6025  0.8919  2.9084
   59SAPC     P 4444   1.381   5.097  10.915  0.0837 -0.1897  0.5411
   59SAPC   O13 4445   1.364   4.983  11.011  0.4103  0.5414  0.0953
   59SAPC   O14 4446   1.346   5.235  10.959  0.1028 -0.0621  0.0033
   59SAPC   O12 4447   1.531   5.080  10.868  0.1044 -0.6756 -0.2932
   59SAPC   O11 4448   1.281   5.057  10.794 -0.6667  0.0853  0.1314
   59SAPC    C1 4449   1.264   5.136  10.681  0.0534 -0.2955  0.8799
   59SAPC    HA 4450   1.254   5.244  10.705 -1.4798 -0.1693 -0.2115
   59SAPC    HB 4451   1.345   5.116  10.607 -1.4245  0.4647 -1.0114
   59SAPC    C2 4452   1.130   5.103  10.612  0.7251 -0.1485  0.6158
   59SAPC    HS 4453   1.041   5.106  10.679 -0.1343  2.3536 -0.5121
   59SAPC   O21 4454   1.130   4.967  10.553  0.2477  0.4843 -0.0706
   59SAPC   C21 4455   1.008   4.929  10.514 -0.4801  0.3057  0.8265
   59SAPC   O22 4456   0.905   4.986  10.518  0.5873 -0.2059  0.1663
   59SAPC   C22 4457   1.027   4.810  10.424  0.3288  0.1366 -0.1494
   59SAPC   H2R 4458   1.081   4.733  10.482 -0.9820 -0.5078  0.2575
   59SAPC   H2S 4459   0.931   4.759  10.401 -0.0635 -0.1283  1.8741
   59SAPC    C3 4460   1.099   5.209  10.498  0.0370 -0.0343 -0.6383
   59SAPC    HX 4461   1.092   5.303  10.557  0.9153 -0.7534  0.6499
   59SAPC    HY 4462   0.997   5.186  10.461 -0.2632 -1.9347  1.2293
   59SAPC   O31 4463   1.200   5.200  10.403 -0.1813  0.1717 -0.3246
   59SAPC   C31 4464   1.241   5.323  10.347  0.6935  0.1433  0.4502
   59SAPC   O32 4465   1.170   5.421  10.357  0.0076  0.7646  0.1636
   59SAPC   C32 4466   1.366   5.308  10.268 -1.6082 -0.0859  0.8146
   59SAPC   H2X 4467   1.430   5.234  10.321 -0.2416 -0.4123 -1.1860
   59SAPC   H2Y 4468   1.432   5.396  10.267 -2.1122  0.3840 -2.1824
   59SAPC   C23 4469   1.109   4.853  10.301  0.3381 -0.4526 -0.2232
   59SAPC   H3R 4470   1.210   4.887  10.334  1.1168 -4.1304  1.8144
   59SAPC   H3S 4471   1.060   4.936  10.246  1.6773  1.8860  1.8939
   59SAPC   C24 4472   1.131   4.730  10.210  0.2763 -0.0929 -0.3128
   59SAPC   H4R 4473   1.160   4.766  10.109 -0.7983  0.6688 -0.3677
   59SAPC   H4S 4474   1.033   4.681  10.192  0.1904 -2.3366  4.6738
   59SAPC   C25 4475   1.225   4.629  10.267  0.9896  0.2670 -0.3029
   59SAPC   H5R 4476   1.179   4.561  10.340  1.2133 -0.1695 -0.5604
   59SAPC   C26 4477   1.355   4.615  10.234 -0.9265  0.4851 -0.0779
   59SAPC   H6R 4478   1.400   4.528  10.285 -5.6823 -0.6092  2.8040
   59SAPC   C27 4479   1.429   4.697  10.128  0.0235  1.0740  0.0179
   59SAPC   H7R 4480   1.443   4.806  10.145  2.3784  0.8353 -0.1078
   59SAPC   H7S 4481   1.360   4.697  10.041 -0.4225 -0.2886  0.3380
   59SAPC   C28 4482   1.564   4.647  10.080  0.2720  0.3424  0.3775
   59SAPC   H8R 4483   1.658   4.672  10.131  0.2388  1.8305 -0.2313
   59SAPC   C29 4484   1.568   4.569   9.972  0.6545 -0.5809 -0.2739
   59SAPC   H9R 4485   1.667   4.532   9.939  0.4390 -0.7669 -0.7294
   59SAPC  C210 4486   1.449   4.526   9.884  0.0882 -0.1084 -0.5688
   59SAPC  H10R 4487   1.346   4.517   9.923  0.9380 -2.4658  1.4063
   59SAPC  H10S 4488   1.481   4.426   9.848 -0.2429  0.0904 -1.4441
   59SAPC  C211 4489   1.457   4.607   9.760 -0.6937  0.1203  0.4238
   59SAPC  H11R 4490   1.419   4.710   9.767  0.9634  0.7317  1.0129
   59SAPC  C212 4491   1.507   4.573   9.643 -0.5375 -0.2353 -0.2341
   59SAPC  H12R 4492   1.519   4.648   9.563 -0.1172 -1.0649 -0.9767
   59SAPC  C213 4493   1.570   4.436   9.615  0.3956  0.0068 -0.0383
   59SAPC  H13R 4494   1.497   4.357   9.643  0.5016  0.5598  1.9854
   59SAPC  H13S 4495   1.659   4.426   9.681  1.4715 -2.2703 -1.6796
   59SAPC  C214 4496   1.624   4.412   9.478 -1.0272  0.4732  0.3781
   59SAPC  H14R 4497   1.561   4.355   9.407  0.7913 -1.0730 -0.0982
   59SAPC  C215 4498   1.755   4.432   9.451  0.3716 -0.0604  0.0179
   59SAPC  H15R 4499   1.781   4.403   9.348 -1.6237 -1.6360 -0.1242
   59SAPC  C216 4500   1.864   4.481   9.543  0.1498  0.6193  0.0525
   59SAPC  H16R 4501   1.829   4.540   9.631  0.4700  0.1285  0.5179
   59SAPC  H16S 4502   1.944   4.534   9.488  0.6166  0.2758  0.3947
   59SAPC  C217 4503   1.947   4.359   9.583 -1.0019 -0.4421 -0.1047
   59SAPC  H17R 4504   2.004   4.319   9.496  1.8697 -1.7256  2.1893
   59SAPC  H17S 4505   1.885   4.275   9.620  0.1822 -1.5023 -0.4642
   59SAPC  C218 4506   2.051   4.381   9.697 -0.3641  0.0358  0.2311
   59SAPC  H18R 4507   2.130   4.448   9.655  1.8452 -2.3208  0.3858
   59SAPC  H18S 4508   2.104   4.286   9.718  0.2372 -0.6753 -3.6624
   59SAPC  C219 4509   1.987   4.433   9.824  0.9687 -1.0421  0.0850
   59SAPC  H19R 4510   1.904   4.359   9.828 -0.2330  0.1477 -1.3374
   59SAPC  H19S 4511   1.947   4.535   9.804  0.1456 -1.6677 -1.7038
   59SAPC  C220 4512   2.073   4.429   9.955 -0.0332  0.3907 -0.2706
   59SAPC  H20R 4513   2.159   4.499   9.949  0.6604 -0.4395 -0.1415
   59SAPC  H20S 4514   2.112   4.327   9.970 -1.8796 -0.4038 -0.5442
   59SAPC  H20T 4515   1.998   4.445  10.036 -2.5310  0.7254 -2.4941
   59SAPC   C33 4516   1.349   5.261  10.118 -0.7271 -0.0903 -0.2362
   59SAPC   H3X 4517   1.307   5.158  10.127 -0.2168 -0.3495 -0.7214
   59SAPC   H3Y 4518   1.449   5.250  10.071 -0.8608 -1.1467 -0.3151
   59SAPC   C34 4519   1.256   5.346  10.029 -0.0937  0.1554  0.0994
   59SAPC   H4X 4520   1.316   5.410   9.962  0.4110 -1.5761 -1.1881
   59SAPC   H4Y 4521   1.183   5.406  10.088  0.0780 -0.2515  0.7426
   59SAPC   C35 4522   1.163   5.260   9.945 -0.5063 -0.0984  0.2496
   59SAPC   H5X 4523   1.115   5.335   9.878  0.3921  1.1185  0.9061
   59SAPC   H5Y 4524   1.092   5.215  10.017  0.3067  1.4122  2.0869
   59SAPC   C36 4525   1.235   5.158   9.843 -0.0177 -0.2340 -0.5946
   59SAPC   H6X 4526   1.306   5.096   9.901  1.0490 -0.0304 -1.6331
   59SAPC   H6Y 4527   1.296   5.215   9.769  1.6140 -2.9473 -1.4802
   59SAPC   C37 4528   1.142   5.066   9.765 -0.5061 -0.1571  0.2992
   59SAPC   H7X 4529   1.053   5.117   9.722 -1.7874 -0.7539  2.0972
   59SAPC   H7Y 4530   1.086   5.014   9.846 -3.6971  2.1550 -0.2063
   59SAPC   C38 4531   1.220   4.972   9.673 -0.0672  0.2282  0.9424
   59SAPC   H8X 4532   1.295   4.922   9.738  0.2459 -1.5592 -0.6827
   59SAPC   H8Y 4533   1.273   5.037   9.600  0.7742 -0.2759  1.0933
   59SAPC   C39 4534   1.126   4.877   9.604 -0.4799  0.3535  0.0567
   59SAPC   H9X 4535   1.024   4.875   9.648 -0.5752  2.5161  0.0296
   59SAPC   H9Y 4536   1.168   4.775   9.617  2.8276  1.8045  1.8882
   59SAPC  C310 4537   1.098   4.919   9.460  0.3105 -0.8009  0.4104
   59SAPC  H10X 4538   1.198   4.932   9.414  0.7789 -0.1348  1.5681
   59SAPC  H10Y 4539   1.046   5.018   9.456 -0.2490 -1.1135 -0.1520
   59SAPC  C311 4540   1.008   4.813   9.384 -0.4207  0.1201 -0.3151
   59SAPC  H11X 4541   0.918   4.790   9.444  0.7905 -0.2840  1.4148
   59SAPC  H11Y 4542   1.065   4.718   9.381  0.9706  0.9394 -0.7723
   59SAPC  C312 4543   0.982   4.854   9.236  0.6143  0.2405  0.2934
   59SAPC  H12X 4544   1.077   4.857   9.178  0.2194 -0.1583 -0.3967
   59SAPC  H12Y 4545   0.930   4.951   9.230  0.2029 -0.0567 -2.3968
   59SAPC  C313 4546   0.892   4.743   9.169 -0.2140 -0.7132 -0.2092
   59SAPC  H13X 4547   0.877   4.775   9.064  0.7926 -0.1930 -0.2004
   59SAPC  H13Y 4548   0.794   4.742   9.221  1.0302 -0.6514  2.3097
   59SAPC  C314 4549   0.950   4.602   9.169 -0.3276 -0.0005  0.0533
   59SAPC  H14X 4550   0.976   4.554   9.266  1.7855 -0.3632 -0.6295
   59SAPC  H14Y 4551   1.044   4.596   9.110  0.1644 -0.4325  0.8515
   59SAPC  C315 4552   0.852   4.507   9.091 -1.0012  0.2515  0.0499
   59SAPC  H15X 4553   0.801   4.563   9.010 -0.0718  0.4671 -0.4002
   59SAPC  H15Y 4554   0.767   4.494   9.161 -0.9548  2.9518  0.7361
   59SAPC  C316 4555   0.907   4.381   9.038 -0.2945 -0.1580  0.4062
   59SAPC  H16X 4556   0.991   4.403   8.969 -3.2491  0.5635 -3.2350
   59SAPC  H16Y 4557   0.830   4.324   8.983 -0.0136  1.7911 -2.1489
   59SAPC  C317 4558   0.968   4.286   9.144 -0.5445 -0.2454 -0.0252
   59SAPC  H17X 4559   0.910   4.294   9.238  1.1064 -1.0616  1.1188
   59SAPC  H17Y 4560   1.070   4.327   9.160 -0.9444  1.6144 -1.8700
   59SAPC  C318 4561   0.992   4.137   9.088 -0.0570 -0.1850  0.3944
   59SAPC  H18X 4562   1.029   4.131   8.983 -0.6150  1.9266  0.0233
   59SAPC  H18Y 4563   0.902   4.072   9.097  1.1107 -1.7494  1.2339
   59SAPC  H18Z 4564   1.073   4.096   9.151  0.1898 -0.8186 -0.3203
   60SAPC     N 4565   4.573   3.302  10.584  0.4340  0.5236 -0.0140
   60SAPC   C12 4566   4.673   3.219  10.671  0.3102  0.0977  0.5820
   60SAPC  H12A 4567   4.705   3.137  10.608  1.1875  0.7937  0.0965
   60SAPC  H12B 4568   4.606   3.164  10.735  0.1775  0.7207  0.9830
   60SAPC   C13 4569   4.476   3.206  10.521 -0.4412 -0.0772  0.5136
   60SAPC  H13A 4570   4.525   3.119  10.481 -0.3722 -0.5280  1.5360
   60SAPC  H13B 4571   4.410   3.155  10.591 -0.0073  0.3310  1.2303
   60SAPC  H13C 4572   4.421   3.244  10.437  3.0074  0.2324 -1.7919
   60SAPC   C14 4573   4.502   3.394  10.666  0.2476  0.0423 -0.5626
   60SAPC  H14A 4574   4.435   3.342  10.734 -0.3453  2.4146  0.7800
   60SAPC  H14B 4575   4.572   3.460  10.714  0.8370 -1.5346  0.8538
   60SAPC  H14C 4576   4.452   3.472  10.611 -0.2429  0.6962  0.7695
   60SAPC   C15 4577   4.647   3.377  10.481 -0.2351  1.0291 -0.0697
   60SAPC  H15A 4578   4.684   3.303  10.412 -0.9432 -1.2627  1.8516
   60SAPC  H15B 4579   4.582   3.454  10.440 -0.8328  1.3810  1.4763
   60SAPC  H15C 4580   4.732   3.427  10.525  0.0757  0.3560  0.1063
   60SAPC   C11 4581   4.785   3.294  10.745 -0.3116 -0.1757  0.5447
   60SAPC  H11A 4582   4.813   3.226  10.828 -2.3312 -0.9080  0.6976
   60SAPC  H11B 4583   4.750   3.382  10.803  2.8476  0.9490  0.9018
   60SAPC     P 4584   5.038   3.284  10.669 -0.2003 -0.0278  0.0648
   60SAPC   O13 4585   5.120   3.369  10.757 -0.1630  0.4085 -0.7171
   60SAPC   O14 4586   5.036   3.136  10.691 -0.0278 -0.1815  0.1423
   60SAPC   O12 4587   4.892   3.339  10.661  0.1579  0.2765  0.2621
   60SAPC   O11 4588   5.099   3.303  10.525 -0.1037  0.1103 -0.8331
   60SAPC    C1 4589   5.077   3.432  10.456 -0.3120 -0.2478  0.6955
   60SAPC    HA 4590   4.986   3.442  10.393  0.2456  0.2219 -0.0589
   60SAPC    HB 4591   5.081   3.516  10.528  3.2363  1.2788 -1.0400
   60SAPC    C2 4592   5.188   3.457  10.349  0.2213 -0.2088  0.1563
   60SAPC    HS 4593   5.189   3.563  10.315  1.6983 -0.7332 -1.5984
   60SAPC   O21 4594   5.174   3.367  10.235 -0.2162  0.4638  0.0214
   60SAPC   C21 4595   5.107   3.419  10.143 -0.3125  0.9338 -0.2619
   60SAPC   O22 4596   5.055   3.526  10.145 -0.6779 -0.4061  0.4871
   60SAPC   C22 4597   5.089   3.323  10.029  0.3711  0.9505  0.0963
   60SAPC   H2R 4598   5.176   3.260  10.002 -0.6688 -0.0855 -1.0037
   60SAPC   H2S 4599   5.000   3.264  10.062 -0.2914  0.9635 -1.5708
   60SAPC    C3 4600   5.326   3.438  10.408 -0.5947 -0.2707  0.1770
   60SAPC    HX 4601   5.344   3.328  10.414  0.6359 -0.0977  0.0441
   60SAPC    HY 4602   5.316   3.483  10.509  2.3443 -0.5621  0.7119
   60SAPC   O31 4603   5.438   3.490  10.333  0.1237  0.7757  0.6987
   60SAPC   C31 4604   5.445   3.623  10.334 -0.7994 -0.6329 -0.0141
   60SAPC   O32 4605   5.388   3.701  10.405 -0.3565 -0.0818 -0.2171
   60SAPC   C32 4606   5.536   3.664  10.218 -0.0064  0.1818 -0.5635
   60SAPC   H2X 4607   5.493   3.633  10.121 -1.1330 -0.4519  0.1175
   60SAPC   H2Y 4608   5.638   3.623  10.229  0.3579  0.9131 -1.1853
   60SAPC   C23 4609   5.030   3.390   9.898 -0.5354 -0.3166  0.3504
   60SAPC   H3R 4610   4.927   3.428   9.911 -1.7933 -2.4640 -2.2940
   60SAPC   H3S 4611   5.017   3.315   9.817  0.5020  2.1465 -2.2972
   60SAPC   C24 4612   5.126   3.501   9.845  0.0416  0.7987 -0.1339
   60SAPC   H4R 4613   5.225   3.458   9.816  0.8875  2.3743  0.3011
   60SAPC   H4S 4614   5.144   3.575   9.926 -2.1667 -0.4395  1.5984
   60SAPC   C25 4615   5.060   3.564   9.728 -0.0963 -0.1365  0.9525
   60SAPC   H5R 4616   5.016   3.662   9.752  1.2127  1.1071 -1.3998
   60SAPC   C26 4617   5.041   3.516   9.600  0.3646 -0.6549  0.4374
   60SAPC   H6R 4618   4.987   3.572   9.522  0.4665 -4.6050 -2.7411
   60SAPC   C27 4619   5.095   3.385   9.548 -0.7557  0.0052  0.7472
   60SAPC   H7R 4620   5.142   3.333   9.634  0.1331  2.5175  1.8815
   60SAPC   H7S 4621   5.179   3.396   9.476  0.0141 -1.5069  1.3609
   60SAPC   C28 4622   4.993   3.299   9.486  0.7506  0.3454  0.2383
   60SAPC   H8R 4623   4.906   3.285   9.552  1.3245 -1.6314  0.6404
   60SAPC   C29 4624   4.991   3.235   9.369  0.5658 -0.3405  0.4950
   60SAPC   H9R 4625   4.902   3.180   9.335  0.4939  0.0404  0.0538
   60SAPC  C210 4626   5.103   3.238   9.270  1.2044 -0.0990 -1.3129
   60SAPC  H10R 4627   5.199   3.285   9.300  0.9632 -0.4378  0.0853
   60SAPC  H10S 4628   5.065   3.303   9.189 -1.4115  0.0174 -0.0912
   60SAPC  C211 4629   5.124   3.104   9.201 -0.5142  0.1422  0.9399
   60SAPC  H11R 4630   5.155   3.024   9.270 -0.2891  0.2627  0.9801
   60SAPC  C212 4631   5.128   3.074   9.073  0.2298  0.2879 -0.0402
   60SAPC  H12R 4632   5.147   2.974   9.030 -1.9662 -0.1533 -0.0847
   60SAPC  C213 4633   5.108   3.168   8.960  1.1484 -1.1102 -0.4652
   60SAPC  H13R 4634   5.195   3.155   8.892  1.6466  0.5576 -0.1938
   60SAPC  H13S 4635   5.118   3.274   8.993 -3.2788 -0.4183 -0.7462
   60SAPC  C214 4636   4.973   3.168   8.889 -0.1249  0.8146  0.6686
   60SAPC  H14R 4637   4.890   3.207   8.951 -1.9086  0.6519 -1.4964
   60SAPC  C215 4638   4.939   3.148   8.760 -0.3417 -0.4404  0.5465
   60SAPC  H15R 4639   4.835   3.160   8.728 -0.5518  0.3014  1.4861
   60SAPC  C216 4640   5.035   3.118   8.644  0.5369  0.6414 -0.5553
   60SAPC  H16R 4641   4.984   3.035   8.591 -0.3412  0.3609  0.6963
   60SAPC  H16S 4642   5.135   3.082   8.678  0.0187  1.1696  1.7223
   60SAPC  C217 4643   5.074   3.233   8.550 -0.4115 -0.6323  0.3428
   60SAPC  H17R 4644   5.126   3.196   8.459 -1.6230  0.3872 -0.8147
   60SAPC  H17S 4645   5.135   3.309   8.603 -0.7854 -0.4564  0.5252
   60SAPC  C218 4646   4.950   3.314   8.505 -0.2800 -0.7146 -0.1684
   60SAPC  H18R 4647   4.991   3.405   8.456  1.1619 -0.7032  0.9768
   60SAPC  H18S 4648   4.890   3.344   8.594 -2.0723  0.9958 -1.8407
   60SAPC  C219 4649   4.853   3.244   8.418  0.1330  0.2239  0.2719
   60SAPC  H19R 4650   4.772   3.314   8.387 -0.8628 -1.9783 -2.5937
   60SAPC  H19S 4651   4.790   3.172   8.474 -1.3020  0.1010 -1.4010
   60SAPC  C220 4652   4.903   3.185   8.290 -0.7020 -0.0673 -0.6322
   60SAPC  H20R 4653   4.989   3.121   8.317  0.4969  0.9713 -1.8148
   60SAPC  H20S 4654   4.930   3.273   8.228  0.2666  1.2618  1.5785
   60SAPC  H20T 4655   4.832   3.123   8.230  0.6089 -1.5589 -0.7117
   60SAPC   C33 4656   5.549   3.820  10.207  0.1517  0.5061  0.2927
   60SAPC   H3X 4657   5.594   3.851  10.304  1.1011  0.3335 -0.0802
   60SAPC   H3Y 4658   5.449   3.866  10.192  0.3422  0.7347 -0.3295
   60SAPC   C34 4659   5.654   3.878  10.105 -0.0052 -0.2362 -0.1315
   60SAPC   H4X 4660   5.748   3.827  10.133  0.9530  0.4246 -1.9625
   60SAPC   H4Y 4661   5.667   3.986  10.129 -1.2134 -0.4553  1.6416
   60SAPC   C35 4662   5.598   3.849   9.965  0.4362 -0.5767  0.6865
   60SAPC   H5X 4663   5.495   3.888   9.945  0.7945 -0.3590 -0.8015
   60SAPC   H5Y 4664   5.576   3.743   9.942  0.7876 -0.5956  0.4451
   60SAPC   C36 4665   5.698   3.893   9.858  0.2278  0.4784  0.2926
   60SAPC   H6X 4666   5.784   3.823   9.873 -0.5117 -0.6049 -0.3596
   60SAPC   H6Y 4667   5.729   3.997   9.881  1.7641 -0.0852  0.8962
   60SAPC   C37 4668   5.651   3.888   9.712  1.2322 -0.0774  0.0185
   60SAPC   H7X 4669   5.718   3.944   9.643  1.5728 -2.1306 -1.3995
   60SAPC   H7Y 4670   5.549   3.932   9.715  1.3719  0.1824  1.4462
   60SAPC   C38 4671   5.639   3.739   9.661  0.5904 -0.7106  0.3514
   60SAPC   H8X 4672   5.558   3.698   9.725  0.1165  0.1928  0.3550
   60SAPC   H8Y 4673   5.737   3.688   9.668  1.1987  0.4890  0.8471
   60SAPC   C39 4674   5.592   3.734   9.514 -0.6207 -0.0064 -0.6548
   60SAPC   H9X 4675   5.661   3.788   9.446 -0.9974  0.9641 -0.2778
   60SAPC   H9Y 4676   5.493   3.783   9.521  0.1826  1.4412  2.9151
   60SAPC  C310 4677   5.586   3.587   9.463  0.2922 -0.2908 -0.2765
   60SAPC  H10X 4678   5.522   3.526   9.530 -1.0305  1.4333  0.1339
   60SAPC  H10Y 4679   5.692   3.558   9.454  1.4713  3.1289  0.9405
   60SAPC  C311 4680   5.526   3.589   9.326  0.0125 -0.3328 -0.3522
   60SAPC  H11X 4681   5.558   3.502   9.265  2.5763 -0.3844  0.9536
   60SAPC  H11Y 4682   5.570   3.683   9.286  1.6638  0.0026  2.0396
   60SAPC  C312 4683   5.373   3.594   9.327 -0.3735  0.2573 -0.2283
   60SAPC  H12X 4684   5.349   3.673   9.401  3.9575  0.7866  0.8653
   60SAPC  H12Y 4685   5.352   3.494   9.370  2.3100 -0.7164 -0.9417
   60SAPC  C313 4686   5.312   3.601   9.189  0.3631 -0.1745 -0.0920
   60SAPC  H13X 4687   5.341   3.515   9.125  0.8060 -0.7133  0.8031
   60SAPC  H13Y 4688   5.356   3.693   9.143  0.6868 -1.8407 -3.3906
   60SAPC  C314 4689   5.159   3.622   9.196 -0.2235 -0.3951 -0.8052
   60SAPC  H14X 4690   5.138   3.697   9.275 -1.1366 -2.3451  0.8985
   60SAPC  H14Y 4691   5.106   3.527   9.220 -0.4686 -0.3561 -1.1793
   60SAPC  C315 4692   5.111   3.666   9.057 -0.6941 -0.5984 -0.3417
   60SAPC  H15X 4693   5.193   3.728   9.015 -0.0005 -1.8538 -0.9144
   60SAPC  H15Y 4694   5.022   3.731   9.068 -0.0625  0.3112 -0.5156
   60SAPC  C316 4695   5.084   3.552   8.953 -0.4485 -0.4131  0.6740
   60SAPC  H16X 4696   5.019   3.479   9.006 -2.2970  0.1818 -0.6713
   60SAPC  H16Y 4697   5.186   3.508   8.941  1.0886  2.3006  2.7354
   60SAPC  C317 4698   5.024   3.595   8.821  0.4459  0.6017 -0.4356
   60SAPC  H17X 4699   4.950   3.672   8.854  1.9458  1.4552  1.1172
   60SAPC  H17Y 4700   4.977   3.512   8.765  1.1428 -1.0597  1.3277
   60SAPC  C318 4701   5.124   3.675   8.737  0.4535  0.9092  0.2339
   60SAPC  H18X 4702   5.174   3.751   8.800  2.9900 -0.1780 -0.3549
   60SAPC  H18Y 4703   5.085   3.736   8.652  0.4073  0.7609  0.1474
   60SAPC  H18Z 4704   5.205   3.608   8.703  0.0139  0.3945  0.1856
   61SAPC     N 4705   6.706   2.208  11.123  0.0711 -0.5747  0.1896
   61SAPC   C12 4706   6.622   2.111  11.039  0.4138  0.1205 -0.0487
   61SAPC  H12A 4707   6.544   2.067  11.099 -1.0433  1.0197 -1.2375
   61SAPC  H12B 4708   6.686   2.025  11.020  1.3213  1.3465 -3.0276
   61SAPC   C13 4709   6.615   2.313  11.173  0.1499 -1.1131 -0.0306
   61SAPC  H13A 4710   6.552   2.357  11.097  2.1257 -0.4612 -1.3858
   61SAPC  H13B 4711   6.545   2.269  11.242 -1.4097 -0.0317 -0.8674
   61SAPC  H13C 4712   6.669   2.389  11.227 -0.0026 -1.0361  0.0119
   61SAPC   C14 4713   6.771   2.136  11.237  0.1651 -0.0737  0.2229
   61SAPC  H14A 4714   6.833   2.057  11.195  0.0478 -1.3006  2.2209
   61SAPC  H14B 4715   6.830   2.203  11.297 -0.6651  0.0608  0.9083
   61SAPC  H14C 4716   6.702   2.097  11.310  1.2965 -0.6154  1.0441
   61SAPC   C15 4717   6.811   2.266  11.038  0.6285  0.5366 -0.0889
   61SAPC  H15A 4718   6.891   2.311  11.094  1.0146 -1.5021  1.1021
   61SAPC  H15B 4719   6.852   2.190  10.973  1.5813  2.5732 -1.9944
   61SAPC  H15C 4720   6.770   2.350  10.983  1.1752  2.6401  2.4958
   61SAPC   C11 4721   6.552   2.145  10.907 -0.4718 -0.0350  0.8226
   61SAPC  H11A 4722   6.510   2.056  10.856  0.8293  0.6480 -1.6016
   61SAPC  H11B 4723   6.635   2.164  10.835 -0.7998 -1.9526 -0.1417
   61SAPC     P 4724   6.410   2.339  10.805  0.2097 -0.2730 -0.5253
   61SAPC   O13 4725   6.280   2.406  10.836 -0.2115 -0.0177  0.3648
   61SAPC   O14 4726   6.522   2.426  10.778 -0.0217  0.6648  0.3319
   61SAPC   O12 4727   6.451   2.252  10.921 -0.0431  0.0492  0.1058
   61SAPC   O11 4728   6.397   2.244  10.686 -0.5773  0.1199  0.7217
   61SAPC    C1 4729   6.301   2.137  10.692  0.4373  0.6486  1.1104
   61SAPC    HA 4730   6.282   2.102  10.796 -1.1746  0.9108  0.9335
   61SAPC    HB 4731   6.200   2.176  10.667 -1.9808 -3.7827  2.8448
   61SAPC    C2 4732   6.345   2.016  10.597 -0.4311 -0.4270 -0.7555
   61SAPC    HS 4733   6.434   1.965  10.638 -1.9073 -1.1068  1.8223
   61SAPC   O21 4734   6.340   2.047  10.463  0.7439 -0.3278  0.3738
   61SAPC   C21 4735   6.443   2.118  10.416 -0.4024 -0.4235  0.3543
   61SAPC   O22 4736   6.540   2.153  10.476 -0.2205 -0.2385  0.2140
   61SAPC   C22 4737   6.408   2.128  10.268  0.4398  0.0107 -0.1009
   61SAPC   H2R 4738   6.446   2.036  10.218  0.6448  1.2864 -2.4204
   61SAPC   H2S 4739   6.298   2.136  10.257  0.5587 -1.0118 -2.8990
   61SAPC    C3 4740   6.227   1.912  10.607 -0.5994 -0.7248  0.1696
   61SAPC    HX 4741   6.139   1.964  10.564 -1.1025 -2.5651 -1.1806
   61SAPC    HY 4742   6.210   1.884  10.713  1.2981  1.5057  1.1522
   61SAPC   O31 4743   6.256   1.798  10.529 -0.1591  0.2803  0.5036
   61SAPC   C31 4744   6.163   1.708  10.511  0.7411  0.0162 -0.9646
   61SAPC   O32 4745   6.054   1.705  10.574 -1.2165  0.3267 -0.5003
   61SAPC   C32 4746   6.213   1.604  10.409  0.6568  0.8127  0.6153
   61SAPC   H2X 4747   6.274   1.523  10.456 -0.5148 -0.8866 -0.6506
   61SAPC   H2Y 4748   6.288   1.652  10.343  0.9592 -0.3917  0.0494
   61SAPC   C23 4749   6.482   2.247  10.200 -0.2471  0.2604  0.0465
   61SAPC   H3R 4750   6.590   2.223  10.202 -0.6479 -1.6266  0.8363
   61SAPC   H3S 4751   6.460   2.332  10.269  1.1031  0.4222  0.3127
   61SAPC   C24 4752   6.434   2.273  10.055  0.1264 -0.4252  0.3463
   61SAPC   H4R 4753   6.327   2.302  10.050 -0.3388 -2.2081 -1.5409
   61SAPC   H4S 4754   6.438   2.177   9.998  1.1157 -0.4188  0.3823
   61SAPC   C25 4755   6.532   2.366   9.983 -0.4630  0.2493  0.1802
   61SAPC   H5R 4756   6.627   2.356  10.039 -0.7989  0.3541  0.7772
   61SAPC   C26 4757   6.518   2.439   9.875 -0.6560  0.6699 -0.2190
   61SAPC   H6R 4758   6.609   2.496   9.852  0.8500 -1.4029  0.2870
   61SAPC   C27 4759   6.394   2.455   9.788  0.3290 -0.8871 -0.6460
   61SAPC   H7R 4760   6.388   2.562   9.760 -0.9270 -0.6433  0.4125
   61SAPC   H7S 4761   6.302   2.431   9.847  0.8821 -0.8756  0.2344
   61SAPC   C28 4762   6.384   2.367   9.669  0.2924  0.1048 -0.3673
   61SAPC   H8R 4763   6.411   2.261   9.682  0.7293 -0.0660 -2.4011
   61SAPC   C29 4764   6.362   2.417   9.542  0.1481  0.8438 -0.4284
   61SAPC   H9R 4765   6.343   2.338   9.468  0.6854 -2.6311  2.8396
   61SAPC  C210 4766   6.337   2.556   9.501  0.5137  0.2869  0.1516
   61SAPC  H10R 4767   6.431   2.603   9.466 -1.1600  2.3441 -1.9313
   61SAPC  H10S 4768   6.293   2.622   9.580  1.0155  0.4938  0.2617
   61SAPC  C211 4769   6.241   2.564   9.383  0.0155  0.1772 -0.4140
   61SAPC  H11R 4770   6.161   2.489   9.387  1.3791 -1.4425 -1.9635
   61SAPC  C212 4771   6.254   2.638   9.269  0.1598 -0.1373  0.8298
   61SAPC  H12R 4772   6.175   2.625   9.194  1.9014  1.7286 -1.4490
   61SAPC  C213 4773   6.363   2.731   9.220 -0.0054  0.2350 -0.5791
   61SAPC  H13R 4774   6.440   2.669   9.169  0.6194  1.0592 -0.6619
   61SAPC  H13S 4775   6.413   2.778   9.308  0.4144  1.0188 -1.2237
   61SAPC  C214 4776   6.313   2.838   9.127 -0.0924  0.8755  0.7637
   61SAPC  H14R 4777   6.288   2.932   9.178 -0.5165  1.2358 -0.0918
   61SAPC  C215 4778   6.283   2.838   8.996 -0.1566  0.4336 -0.1510
   61SAPC  H15R 4779   6.256   2.937   8.955  0.1538 -0.4640 -2.6552
   61SAPC  C216 4780   6.306   2.719   8.903  0.5665 -0.6604 -0.4756
   61SAPC  H16R 4781   6.214   2.656   8.907 -0.2129  0.4396 -0.5500
   61SAPC  H16S 4782   6.392   2.663   8.945  0.0652 -0.0975  1.3959
   61SAPC  C217 4783   6.323   2.746   8.756 -0.7819  0.1110 -0.7278
   61SAPC  H17R 4784   6.385   2.669   8.706  1.1661  1.9363 -1.2528
   61SAPC  H17S 4785   6.388   2.836   8.757  1.2400 -1.2534  1.8538
   61SAPC  C218 4786   6.194   2.771   8.679 -0.0161 -0.4830  0.7060
   61SAPC  H18R 4787   6.135   2.850   8.730 -1.5765 -1.6318  0.7535
   61SAPC  H18S 4788   6.119   2.689   8.689  0.8639 -1.3862  0.0819
   61SAPC  C219 4789   6.204   2.800   8.531  0.3449 -0.2199  0.1703
   61SAPC  H19R 4790   6.213   2.698   8.487 -1.0266 -0.8233  1.2023
   61SAPC  H19S 4791   6.281   2.870   8.493  0.5115 -0.3100  0.3393
   61SAPC  C220 4792   6.071   2.861   8.482 -0.0573  0.0701  0.3520
   61SAPC  H20R 4793   6.002   2.774   8.488  0.9498 -1.0150 -2.2804
   61SAPC  H20S 4794   6.085   2.882   8.374  0.9865 -2.5231 -0.0873
   61SAPC  H20T 4795   6.061   2.957   8.537 -1.6053  0.4713 -0.5672
   61SAPC   C33 4796   6.103   1.544  10.316  0.6452 -0.6063 -0.3440
   61SAPC   H3X 4797   6.013   1.510  10.372  0.9266 -2.2408 -0.8261
   61SAPC   H3Y 4798   6.146   1.460  10.257  0.6025  0.2679 -1.6409
   61SAPC   C34 4799   6.059   1.637  10.200  0.1048  0.0230 -0.4771
   61SAPC   H4X 4800   5.980   1.586  10.141  0.8236  0.1396 -1.5794
   61SAPC   H4Y 4801   6.142   1.661  10.129 -0.0318 -1.4538 -1.1739
   61SAPC   C35 4802   5.994   1.766  10.252 -0.1922 -0.1950  0.1201
   61SAPC   H5X 4803   6.050   1.829  10.324 -2.4673  0.8345  1.0996
   61SAPC   H5Y 4804   5.898   1.740  10.300  0.3212 -0.9168  0.7775
   61SAPC   C36 4805   5.965   1.864  10.139 -0.2961 -0.4021  0.0418
   61SAPC   H6X 4806   6.062   1.897  10.096 -0.5190  1.7403  1.0493
   61SAPC   H6Y 4807   5.918   1.959  10.170  0.7706 -0.3714  1.6733
   61SAPC   C37 4808   5.880   1.818  10.015 -0.3148  0.3352 -0.5756
   61SAPC   H7X 4809   5.786   1.780  10.062  0.3504 -2.5262 -1.3617
   61SAPC   H7Y 4810   5.921   1.722   9.978 -2.8921 -1.5548  1.0579
   61SAPC   C38 4811   5.852   1.923   9.907  0.5364  0.4729 -0.4681
   61SAPC   H8X 4812   5.948   1.980   9.899  1.4503 -0.7802  1.0644
   61SAPC   H8Y 4813   5.774   1.997   9.935 -0.5141 -1.0195  0.6419
   61SAPC   C39 4814   5.789   1.869   9.774 -0.2940  0.1444 -0.8002
   61SAPC   H9X 4815   5.709   1.794   9.790 -0.9070  1.4025  2.7459
   61SAPC   H9Y 4816   5.868   1.808   9.724 -0.8519 -0.7090 -0.6699
   61SAPC  C310 4817   5.734   1.978   9.680 -0.0452  0.5144 -0.2440
   61SAPC  H10X 4818   5.812   2.055   9.662  0.6536  1.0312  3.8382
   61SAPC  H10Y 4819   5.642   2.025   9.722 -0.1638  0.3199 -0.2862
   61SAPC  C311 4820   5.695   1.921   9.543  0.9190 -0.8523 -0.2941
   61SAPC  H11X 4821   5.617   1.844   9.559 -0.4265  0.1722 -1.6459
   61SAPC  H11Y 4822   5.788   1.878   9.500  1.1315 -0.0853 -0.6261
   61SAPC  C312 4823   5.630   2.024   9.452 -0.5306  0.2138  0.5283
   61SAPC  H12X 4824   5.708   2.097   9.419 -0.2008 -0.5009 -0.3080
   61SAPC  H12Y 4825   5.550   2.072   9.513  2.3184  2.3835  2.8824
   61SAPC  C313 4826   5.568   1.961   9.328  0.1262 -0.3706 -0.3062
   61SAPC  H13X 4827   5.505   1.883   9.374  1.1489 -0.9521  0.1527
   61SAPC  H13Y 4828   5.639   1.917   9.255 -1.6544  0.0177 -2.3913
   61SAPC  C314 4829   5.481   2.062   9.245 -0.8055  0.4007 -0.1635
   61SAPC  H14X 4830   5.426   2.149   9.286 -1.7605  0.1561 -0.8725
   61SAPC  H14Y 4831   5.392   2.010   9.205 -0.7526  0.1857 -0.0033
   61SAPC  C315 4832   5.558   2.120   9.126  0.1764  0.0799 -0.5465
   61SAPC  H15X 4833   5.615   2.042   9.072 -0.7845  0.3904 -2.0495
   61SAPC  H15Y 4834   5.630   2.195   9.166  0.0979  0.1897 -0.6092
   61SAPC  C316 4835   5.455   2.182   9.030 -0.1438  0.6452 -0.6910
   61SAPC  H16X 4836   5.412   2.245   9.110 -0.3202  2.7822 -2.3745
   61SAPC  H16Y 4837   5.382   2.102   9.003  2.2445 -1.7798 -0.5179
   61SAPC  C317 4838   5.520   2.273   8.914 -0.1286  0.9560  0.2112
   61SAPC  H17X 4839   5.596   2.325   8.976  0.5808  0.2803 -0.0773
   61SAPC  H17Y 4840   5.436   2.338   8.882  1.0840  2.5274  0.1071
   61SAPC  C318 4841   5.589   2.200   8.801 -0.0052 -1.0577  0.2038
   61SAPC  H18X 4842   5.512   2.181   8.723  0.6254  0.2192 -0.7761
   61SAPC  H18Y 4843   5.625   2.100   8.831  1.2374 -0.4711  0.7254
   61SAPC  H18Z 4844   5.667   2.261   8.751 -1.3384  0.2802 -0.3337
   62SAPC     N 4845   3.283   1.055  11.065  0.0974  0.2943 -0.5596
   62SAPC   C12 4846   3.182   1.074  10.952  0.1955 -0.3267 -0.2845
   62SAPC  H12A 4847   3.179   1.180  10.932 -1.5140 -0.4447 -0.8556
   62SAPC  H12B 4848   3.083   1.041  10.980  0.4076 -0.8312 -0.1061
   62SAPC   C13 4849   3.307   0.913  11.088 -0.5269  0.2292 -0.4499
   62SAPC  H13A 4850   3.335   0.872  10.993 -0.3065  2.4756 -1.4272
   62SAPC  H13B 4851   3.383   0.897  11.163 -2.5664  0.8560  1.8879
   62SAPC  H13C 4852   3.216   0.865  11.121 -0.2356  1.1656  1.9798
   62SAPC   C14 4853   3.405   1.135  11.038  0.0332 -0.3134 -0.3499
   62SAPC  H14A 4854   3.390   1.240  11.018 -0.7815  0.3707  3.1417
   62SAPC  H14B 4855   3.462   1.133  11.130 -2.5743 -1.7516  1.3712
   62SAPC  H14C 4856   3.465   1.107  10.952  0.5160  1.2276 -0.5484
   62SAPC   C15 4857   3.229   1.116  11.193 -0.4207 -0.5129 -0.2418
   62SAPC  H15A 4858   3.245   1.223  11.192 -2.4323 -0.1712 -0.2298
   62SAPC  H15B 4859   3.122   1.107  11.200 -0.9627  3.1375 -1.3362
   62SAPC  H15C 4860   3.275   1.085  11.286 -1.7145 -0.6179  0.3854
   62SAPC   C11 4861   3.219   0.998  10.823  0.1276 -0.7181 -0.0040
   62SAPC  H11A 4862   3.325   1.014  10.797 -0.5146 -0.6327 -2.9550
   62SAPC  H11B 4863   3.161   1.042  10.739  0.5132  0.9333  0.5560
   62SAPC     P 4864   3.224   0.756  10.732 -0.1628  0.2546 -0.5625
   62SAPC   O13 4865   3.283   0.644  10.809  0.4789  0.6653  0.5503
   62SAPC   O14 4866   3.112   0.727  10.631 -0.3529 -0.3677 -0.2634
   62SAPC   O12 4867   3.179   0.862  10.840 -0.3879  0.3264 -0.4073
   62SAPC   O11 4868   3.342   0.827  10.656 -0.6751 -0.3713  0.3740
   62SAPC    C1 4869   3.405   0.788  10.532  0.2961 -0.4946 -0.2848
   62SAPC    HA 4870   3.514   0.781  10.551  0.5603  1.3368 -0.8793
   62SAPC    HB 4871   3.371   0.690  10.492 -1.5213 -0.6062  1.3690
   62SAPC    C2 4872   3.384   0.891  10.416  1.0810 -0.1188 -0.1357
   62SAPC    HS 4873   3.279   0.925  10.405  1.4205  0.8064 -0.6183
   62SAPC   O21 4874   3.434   0.835  10.296 -0.2738 -0.1829 -0.1435
   62SAPC   C21 4875   3.364   0.855  10.183  0.0998 -0.2901 -0.2637
   62SAPC   O22 4876   3.245   0.878  10.181  0.2538 -0.1806  0.3565
   62SAPC   C22 4877   3.439   0.816  10.063 -0.4000  0.2998 -0.3314
   62SAPC   H2R 4878   3.527   0.755  10.093  0.2414 -0.4432 -3.4115
   62SAPC   H2S 4879   3.381   0.742  10.003 -0.7373  1.3577 -1.3478
   62SAPC    C3 4880   3.460   1.020  10.443 -0.0406 -0.6952 -0.1423
   62SAPC    HX 4881   3.570   1.003  10.437  0.0011 -0.2483 -0.7828
   62SAPC    HY 4882   3.435   1.062  10.542  0.9697 -2.3830  0.8780
   62SAPC   O31 4883   3.420   1.106  10.336  0.2570 -0.3519  0.8686
   62SAPC   C31 4884   3.433   1.242  10.359 -0.1379 -0.4200  0.5577
   62SAPC   O32 4885   3.491   1.292  10.454  0.0280  0.2740  0.2321
   62SAPC   C32 4886   3.368   1.318  10.245  0.5911 -0.3092 -0.6202
   62SAPC   H2X 4887   3.259   1.317  10.268 -0.3133  1.5398 -4.1395
   62SAPC   H2Y 4888   3.374   1.263  10.149 -1.4573  2.0262 -2.2272
   62SAPC   C23 4889   3.483   0.933   9.973 -0.5767  0.1653  0.0181
   62SAPC   H3R 4890   3.557   0.898   9.897  1.4267  0.5263  1.7032
   62SAPC   H3S 4891   3.527   1.013  10.036 -0.4212  0.4824 -0.4865
   62SAPC   C24 4892   3.366   1.002   9.897 -0.0337  0.7820 -0.2711
   62SAPC   H4R 4893   3.398   1.102   9.860  1.7624  1.8447  3.6177
   62SAPC   H4S 4894   3.291   1.022   9.976 -2.0914 -1.1449 -1.6374
   62SAPC   C25 4895   3.306   0.919   9.783 -1.0667  0.2886  0.2235
   62SAPC   H5R 4896   3.238   0.839   9.817 -3.5248  2.0568 -0.3106
   62SAPC   C26 4897   3.347   0.933   9.652  1.0832 -0.2451 -0.2202
   62SAPC   H6R 4898   3.301   0.875   9.570 -1.4891 -1.4834  1.9492
   62SAPC   C27 4899   3.440   1.046   9.604  0.0095  1.1858 -0.6226
   62SAPC   H7R 4900   3.426   1.130   9.675 -0.5097  1.9907 -1.6492
   62SAPC   H7S 4901   3.405   1.083   9.505 -1.9480  1.9505  0.3083
   62SAPC   C28 4902   3.580   0.999   9.598 -0.0003  0.0462 -0.4151
   62SAPC   H8R 4903   3.608   0.927   9.676 -1.2936 -0.1290 -0.0870
   62SAPC   C29 4904   3.662   1.020   9.487 -0.5132  0.3045 -0.4744
   62SAPC   H9R 4905   3.765   0.982   9.489 -0.5268  0.2599 -0.6287
   62SAPC  C210 4906   3.627   1.102   9.365 -0.3769  0.5699  0.3500
   62SAPC  H10R 4907   3.717   1.150   9.323  1.5419 -1.0263  2.3932
   62SAPC  H10S 4908   3.564   1.191   9.387 -0.1434  0.5645  1.0765
   62SAPC  C211 4909   3.559   1.006   9.270  0.1482  0.6187 -0.2957
   62SAPC  H11R 4910   3.513   0.920   9.320  2.3274 -0.9951 -0.9061
   62SAPC  C212 4911   3.556   1.003   9.131  0.3878  0.4449 -0.1453
   62SAPC  H12R 4912   3.505   0.926   9.070  3.0182 -0.0875 -1.8464
   62SAPC  C213 4913   3.615   1.100   9.036 -0.2989 -0.7023  0.1489
   62SAPC  H13R 4914   3.637   1.202   9.076  1.1123 -1.3180  1.0599
   62SAPC  H13S 4915   3.547   1.118   8.951 -0.4255  1.5078  0.6590
   62SAPC  C214 4916   3.748   1.050   8.987 -0.9125 -0.4178  0.6679
   62SAPC  H14R 4917   3.829   1.065   9.060 -1.7614  3.6967  0.9677
   62SAPC  C215 4918   3.770   0.985   8.874 -0.7878 -0.2417  0.3893
   62SAPC  H15R 4919   3.873   0.959   8.845  0.3782  1.1783  2.9036
   62SAPC  C216 4920   3.663   0.938   8.775  0.8036 -1.0036 -0.2300
   62SAPC  H16R 4921   3.559   0.938   8.813 -0.0445 -4.2273 -2.1665
   62SAPC  H16S 4922   3.680   0.832   8.747  1.6969 -0.3983 -2.1005
   62SAPC  C217 4923   3.668   1.017   8.650  0.0843 -0.2907 -0.1373
   62SAPC  H17R 4924   3.758   0.992   8.591 -1.5999 -1.5343 -2.3645
   62SAPC  H17S 4925   3.671   1.126   8.675 -0.4891 -0.4832  0.8117
   62SAPC  C218 4926   3.542   0.985   8.561 -0.3263  0.6368 -0.0917
   62SAPC  H18R 4927   3.447   1.004   8.616 -0.2072 -0.3499  0.4629
   62SAPC  H18S 4928   3.553   0.877   8.537  1.9034  0.4586  1.4536
   62SAPC  C219 4929   3.545   1.069   8.430 -0.1259  0.0825  0.0343
   62SAPC  H19R 4930   3.646   1.076   8.384 -1.0198  0.1670 -2.0168
   62SAPC  H19S 4931   3.526   1.170   8.471  1.9182 -0.3242  2.2299
   62SAPC  C220 4932   3.446   1.022   8.319  0.1686  0.1454  0.2152
   62SAPC  H20R 4933   3.418   1.115   8.265  3.4339  2.0547  1.5346
   62SAPC  H20S 4934   3.348   0.993   8.364  0.6478 -2.0036 -0.0316
   62SAPC  H20T 4935   3.492   0.950   8.249  1.2292  2.3833 -1.5032
   62SAPC   C33 4936   3.410   1.463  10.213 -0.2109  1.3443 -0.6480
   62SAPC   H3X 4937   3.519   1.461  10.233 -0.5083 -1.9731  1.2309
   62SAPC   H3Y 4938   3.386   1.538  10.291 -0.4512  0.5771  0.0209
   62SAPC   C34 4939   3.363   1.515  10.085  0.0812  1.0422  0.0036
   62SAPC   H4X 4940   3.381   1.624  10.072 -2.2692  1.5034  0.2841
   62SAPC   H4Y 4941   3.253   1.511  10.073 -0.0403  0.2964  1.1524
   62SAPC   C35 4942   3.430   1.452   9.959  0.7330  0.7324  0.3182
   62SAPC   H5X 4943   3.426   1.341   9.956  2.6455  0.6641 -0.6577
   62SAPC   H5Y 4944   3.534   1.488   9.976  1.5055 -1.7449  1.1888
   62SAPC   C36 4945   3.363   1.510   9.830 -0.5657 -0.4976  0.1719
   62SAPC   H6X 4946   3.367   1.621   9.835  0.3816 -0.5497  0.7468
   62SAPC   H6Y 4947   3.256   1.483   9.838 -0.2283 -1.4409  1.9748
   62SAPC   C37 4948   3.424   1.456   9.702 -0.2756 -0.3504  0.8923
   62SAPC   H7X 4949   3.393   1.350   9.696 -0.7359 -0.1999  0.6383
   62SAPC   H7Y 4950   3.534   1.442   9.718  0.5425  1.0876 -2.7027
   62SAPC   C38 4951   3.392   1.536   9.573 -0.0632  0.2233 -0.2238
   62SAPC   H8X 4952   3.430   1.640   9.574 -1.5064  0.7777 -0.2853
   62SAPC   H8Y 4953   3.281   1.536   9.565 -0.3126  0.5732  2.3728
   62SAPC   C39 4954   3.437   1.467   9.447 -0.5813 -0.2263  0.8685
   62SAPC   H9X 4955   3.391   1.367   9.435 -0.2250 -0.1790 -1.2085
   62SAPC   H9Y 4956   3.548   1.462   9.445 -0.6160 -0.9384 -0.1002
   62SAPC  C310 4957   3.397   1.546   9.317  0.0502 -0.2781  0.3690
   62SAPC  H10X 4958   3.430   1.653   9.318  3.3126 -1.1636  1.3562
   62SAPC  H10Y 4959   3.287   1.535   9.306  0.1478 -2.0995  0.9619
   62SAPC  C311 4960   3.457   1.478   9.202 -0.2046 -0.2255  0.5045
   62SAPC  H11X 4961   3.447   1.368   9.221  0.3971 -0.3422  0.1756
   62SAPC  H11Y 4962   3.566   1.499   9.192  0.0138 -1.6097 -0.2847
   62SAPC  C312 4963   3.392   1.515   9.070  0.3280 -1.1318  0.4086
   62SAPC  H12X 4964   3.346   1.616   9.066  1.8244 -0.4511 -0.7101
   62SAPC  H12Y 4965   3.307   1.443   9.061  0.2666 -1.1220  0.8929
   62SAPC  C313 4966   3.478   1.502   8.946 -0.7649  0.0643  0.6824
   62SAPC  H13X 4967   3.512   1.397   8.935 -0.8795  0.2182 -1.5113
   62SAPC  H13Y 4968   3.564   1.571   8.960  2.3247 -3.1326 -1.0078
   62SAPC  C314 4969   3.403   1.538   8.823 -1.1198 -0.7123 -0.7517
   62SAPC  H14X 4970   3.339   1.626   8.843 -0.3865  0.0208 -1.5538
   62SAPC  H14Y 4971   3.332   1.457   8.797 -0.8360 -1.3039  0.2451
   62SAPC  C315 4972   3.494   1.561   8.708 -0.1963 -0.4314  0.2282
   62SAPC  H15X 4973   3.547   1.467   8.683  1.1095 -0.1697  1.8299
   62SAPC  H15Y 4974   3.582   1.626   8.728  0.2745 -0.4627 -1.5293
   62SAPC  C316 4975   3.424   1.627   8.591  0.1660  0.1549  0.5540
   62SAPC  H16X 4976   3.487   1.608   8.502  0.1943  0.2874  0.5460
   62SAPC  H16Y 4977   3.435   1.737   8.606  1.2119  0.3803 -1.4566
   62SAPC  C317 4978   3.277   1.585   8.573 -0.3595  0.1411  0.3405
   62SAPC  H17X 4979   3.226   1.614   8.667  0.4518  2.2360  0.1702
   62SAPC  H17Y 4980   3.261   1.476   8.555 -1.1013  0.1785  0.7351
   62SAPC  C318 4981   3.207   1.665   8.462 -0.2667  0.3010 -0.7475
   62SAPC  H18X 4982   3.188   1.765   8.506  1.8424  1.7554 -2.8529
   62SAPC  H18Y 4983   3.106   1.620   8.457 -0.7577  0.9839  1.8532
   62SAPC  H18Z 4984   3.263   1.679   8.366 -1.1519  1.0073 -1.1724
   63SAPC     N 4985   2.253   6.625   6.128 -0.5117 -0.9643 -0.7266
   63SAPC   C12 4986   2.200   6.577   6.259 -0.5680 -0.4606 -0.7798
   63SAPC  H12A 4987   2.152   6.481   6.255  0.6409 -1.2320  1.3784
   63SAPC  H12B 4988   2.123   6.648   6.286  0.5048  0.8177 -0.9835
   63SAPC   C13 4989   2.355   6.525   6.072 -0.2063 -0.2903  0.0286
   63SAPC  H13A 4990   2.315   6.433   6.031 -0.5977 -0.1552  0.1033
   63SAPC  H13B 4991   2.407   6.568   5.988  1.1275 -0.2384  0.8386
   63SAPC  H13C 4992   2.434   6.505   6.143 -0.2479 -0.2822  0.0775
   63SAPC   C14 4993   2.146   6.654   6.026  0.5611 -0.2592  0.4111
   63SAPC  H14A 4994   2.098   6.558   6.011  1.0490 -0.4039 -0.3045
   63SAPC  H14B 4995   2.070   6.720   6.065 -1.7564 -2.0998 -0.7182
   63SAPC  H14C 4996   2.175   6.680   5.925 -2.0347 -1.3395 -0.7070
   63SAPC   C15 4997   2.328   6.750   6.147 -0.0531  0.1488 -0.0398
   63SAPC  H15A 4998   2.262   6.829   6.182  0.0665 -0.6748  2.2479
   63SAPC  H15B 4999   2.398   6.727   6.226  1.2443  2.3006 -0.4808
   63SAPC  H15C 5000   2.391   6.789   6.069  0.5700  3.8898  2.1156
   63SAPC   C11 5001   2.301   6.548   6.376  0.3855 -0.9780 -0.2588
   63SAPC  H11A 5002   2.258   6.559   6.478 -1.4538 -1.6049 -0.9426
   63SAPC  H11B 5003   2.380   6.626   6.363 -1.3068  0.7452 -0.7565
   63SAPC     P 5004   2.275   6.291   6.403  0.2324  0.0581 -0.4886
   63SAPC   O13 5005   2.133   6.295   6.367 -0.1088  0.9253 -0.1534
   63SAPC   O14 5006   2.354   6.176   6.365 -0.2653  0.7577  0.6844
   63SAPC   O12 5007   2.349   6.418   6.353 -0.1585  0.5588  0.3014
   63SAPC   O11 5008   2.289   6.300   6.565  0.1101  0.3770 -0.0386
   63SAPC    C1 5009   2.416   6.333   6.620  0.0766 -0.1043  0.6495
   63SAPC    HA 5010   2.500   6.269   6.585  0.3558  0.1404  0.8631
   63SAPC    HB 5011   2.444   6.433   6.583 -1.5880 -0.5312 -2.0012
   63SAPC    C2 5012   2.414   6.343   6.779 -0.0837  0.3032  0.8668
   63SAPC    HS 5013   2.515   6.379   6.809  0.1726  1.0184 -0.7558
   63SAPC   O21 5014   2.381   6.216   6.827 -0.0024  0.7407 -0.5904
   63SAPC   C21 5015   2.485   6.134   6.827  1.5299 -0.0626 -0.2376
   63SAPC   O22 5016   2.598   6.165   6.799 -0.1899 -0.3217  0.2956
   63SAPC   C22 5017   2.451   5.997   6.875 -0.2047  0.0923 -0.1195
   63SAPC   H2R 5018   2.359   5.959   6.826 -0.0666  0.8321 -0.9622
   63SAPC   H2S 5019   2.535   5.924   6.867  0.3390  0.4648  1.6317
   63SAPC    C3 5020   2.311   6.447   6.838 -0.4926  0.1346 -0.3109
   63SAPC    HX 5021   2.216   6.410   6.794  1.3822 -1.6680 -3.2088
   63SAPC    HY 5022   2.327   6.546   6.791 -1.1761 -0.8430 -2.7649
   63SAPC   O31 5023   2.315   6.461   6.978 -0.4203 -0.1805 -0.2557
   63SAPC   C31 5024   2.234   6.395   7.057  0.3129 -0.0064 -0.1911
   63SAPC   O32 5025   2.131   6.335   7.016 -0.1727 -0.4715 -0.1999
   63SAPC   C32 5026   2.269   6.424   7.198  0.3771  0.3316 -0.3395
   63SAPC   H2X 5027   2.248   6.531   7.218 -0.1965 -0.0318  1.1698
   63SAPC   H2Y 5028   2.380   6.418   7.200  0.3546 -0.0027  0.2801
   63SAPC   C23 5029   2.402   5.986   7.025  0.4485  0.0472  0.3757
   63SAPC   H3R 5030   2.365   5.885   7.050  2.8665 -0.7968  0.8529
   63SAPC   H3S 5031   2.313   6.051   7.036  1.9376  2.1155  1.1001
   63SAPC   C24 5032   2.510   6.028   7.127  0.4902 -0.4167  0.0575
   63SAPC   H4R 5033   2.472   6.013   7.230 -1.2035 -0.2283 -0.5175
   63SAPC   H4S 5034   2.527   6.138   7.116 -0.4182 -0.5170 -3.5688
   63SAPC   C25 5035   2.644   5.965   7.117  0.5497  0.4401 -0.0335
   63SAPC   H5R 5036   2.687   5.965   7.016 -0.0143  0.0792 -0.2799
   63SAPC   C26 5037   2.716   5.901   7.209  0.1311 -0.6927 -0.3715
   63SAPC   H6R 5038   2.810   5.852   7.183 -0.0722 -0.9153 -0.6902
   63SAPC   C27 5039   2.676   5.869   7.351 -0.1394  0.0429  0.4336
   63SAPC   H7R 5040   2.697   5.763   7.379  1.0571 -0.2405 -1.3975
   63SAPC   H7S 5041   2.565   5.877   7.358 -0.1719 -0.6972  0.9437
   63SAPC   C28 5042   2.734   5.968   7.454  0.3162 -0.2575  0.5144
   63SAPC   H8R 5043   2.767   6.063   7.409 -0.2046 -0.9157 -1.3645
   63SAPC   C29 5044   2.739   5.947   7.586  0.4324 -0.1718 -0.4237
   63SAPC   H9R 5045   2.768   6.031   7.651 -2.9701 -0.6713  1.9755
   63SAPC  C210 5046   2.686   5.820   7.648  0.0332  0.6519 -0.4793
   63SAPC  H10R 5047   2.765   5.742   7.642 -1.2900 -0.7325 -0.5646
   63SAPC  H10S 5048   2.596   5.774   7.603  1.3501 -1.0267 -1.5187
   63SAPC  C211 5049   2.645   5.855   7.793  0.3865 -0.6339  0.0859
   63SAPC  H11R 5050   2.565   5.929   7.805 -0.0177 -1.0856  0.2007
   63SAPC  C212 5051   2.705   5.815   7.906 -0.2340  0.5265  0.1911
   63SAPC  H12R 5052   2.679   5.854   8.006  1.5321 -1.8239  1.6950
   63SAPC  C213 5053   2.814   5.719   7.916 -0.3470 -0.7014 -0.7631
   63SAPC  H13R 5054   2.816   5.649   7.830 -2.3154 -1.1191 -0.5048
   63SAPC  H13S 5055   2.784   5.660   8.005  0.7854 -0.8902 -0.4943
   63SAPC  C214 5056   2.956   5.768   7.920  0.5924  0.2926  0.0393
   63SAPC  H14R 5057   3.000   5.789   7.821 -2.1473  0.0295 -1.3393
   63SAPC  C215 5058   3.015   5.793   8.035 -0.1717 -0.4495 -0.2122
   63SAPC  H15R 5059   3.119   5.828   8.048 -0.3762 -0.5304  2.0317
   63SAPC  C216 5060   2.951   5.774   8.168 -0.5693  0.9828 -0.1277
   63SAPC  H16R 5061   2.924   5.667   8.181 -0.3696  0.6196 -2.3788
   63SAPC  H16S 5062   2.854   5.828   8.178 -1.3008 -0.4602  1.1417
   63SAPC  C217 5063   3.041   5.809   8.299  1.0945  0.3375 -0.1548
   63SAPC  H17R 5064   3.103   5.901   8.289  1.3511  0.5418  2.7160
   63SAPC  H17S 5065   3.104   5.721   8.323  1.1888  0.2720 -0.6280
   63SAPC  C218 5066   2.963   5.837   8.433  0.0787  0.4928 -0.0634
   63SAPC  H18R 5067   2.879   5.910   8.425 -0.4500  0.0773  1.4307
   63SAPC  H18S 5068   3.039   5.858   8.512 -0.2755 -0.2362  0.4777
   63SAPC  C219 5069   2.896   5.702   8.491  0.1508 -0.0397 -0.6997
   63SAPC  H19R 5070   2.968   5.618   8.483 -1.5189 -1.7247  0.7414
   63SAPC  H19S 5071   2.816   5.680   8.417 -0.3890  2.0830 -0.8229
   63SAPC  C220 5072   2.823   5.708   8.628 -0.0147 -0.2142  0.0749
   63SAPC  H20R 5073   2.762   5.801   8.634 -1.6483 -1.1487 -1.3100
   63SAPC  H20S 5074   2.897   5.706   8.711 -1.2621  1.8995  1.3370
   63SAPC  H20T 5075   2.750   5.625   8.637  0.9149 -0.9602  0.9457
   63SAPC   C33 5076   2.190   6.339   7.300  0.3607  0.6140 -0.2511
   63SAPC   H3X 5077   2.219   6.232   7.295 -1.5299 -0.1458  2.5603
   63SAPC   H3Y 5078   2.079   6.334   7.290  0.0636 -0.4555  2.6845
   63SAPC   C34 5079   2.216   6.381   7.449  0.6500 -0.2001 -0.0378
   63SAPC   H4X 5080   2.314   6.433   7.444  0.2279  0.5217 -1.2657
   63SAPC   H4Y 5081   2.218   6.295   7.519  0.5029 -1.7616 -1.8821
   63SAPC   C35 5082   2.115   6.482   7.503 -0.5025 -0.3883 -0.8508
   63SAPC   H5X 5083   2.012   6.455   7.471 -0.7795  2.0455 -2.2837
   63SAPC   H5Y 5084   2.125   6.584   7.458 -0.3129 -0.5220 -1.1170
   63SAPC   C36 5085   2.122   6.500   7.653  0.1734  0.5656  0.2667
   63SAPC   H6X 5086   2.044   6.576   7.675 -0.5820  0.8359 -2.8675
   63SAPC   H6Y 5087   2.224   6.539   7.673  1.0396 -1.0414 -0.7728
   63SAPC   C37 5088   2.104   6.377   7.741 -0.8357 -0.6653  0.0594
   63SAPC   H7X 5089   2.202   6.326   7.738 -0.7233 -0.5600  1.3217
   63SAPC   H7Y 5090   2.029   6.309   7.695 -0.3953  0.3656 -2.3502
   63SAPC   C38 5091   2.067   6.398   7.891  0.2503  0.0075  0.6663
   63SAPC   H8X 5092   2.067   6.300   7.945  0.6675  0.1270  0.8836
   63SAPC   H8Y 5093   1.963   6.437   7.883  0.6037  0.5930 -2.2863
   63SAPC   C39 5094   2.138   6.507   7.966 -0.2550  0.2227  0.3557
   63SAPC   H9X 5095   2.110   6.612   7.940  1.2433  1.5151  3.4194
   63SAPC   H9Y 5096   2.243   6.490   7.935 -0.1695 -0.5328  1.0401
   63SAPC  C310 5097   2.127   6.479   8.113  0.8293 -0.0449  0.0088
   63SAPC  H10X 5098   2.139   6.371   8.136  0.8855  0.1695  1.0262
   63SAPC  H10Y 5099   2.026   6.511   8.149  0.6487  1.2143 -1.5305
   63SAPC  C311 5100   2.218   6.566   8.208  0.2878 -0.3142  0.4672
   63SAPC  H11X 5101   2.198   6.674   8.192  0.4698 -0.2582  0.6198
   63SAPC  H11Y 5102   2.319   6.543   8.166  0.3740  1.7233 -0.5553
   63SAPC  C312 5103   2.210   6.537   8.359 -0.3441 -0.3603  0.7176
   63SAPC  H12X 5104   2.296   6.581   8.415 -0.0804 -0.3669  0.3190
   63SAPC  H12Y 5105   2.217   6.426   8.360  0.5076 -0.4493 -3.0309
   63SAPC  C313 5106   2.078   6.577   8.430  0.3124 -0.7864  0.5729
   63SAPC  H13X 5107   2.076   6.552   8.538  1.6603  0.2553  0.8709
   63SAPC  H13Y 5108   1.991   6.521   8.390 -0.4617 -1.3086  2.8205
   63SAPC  C314 5109   2.038   6.719   8.410  1.2274  0.3413  0.1263
   63SAPC  H14X 5110   2.016   6.736   8.302 -1.8437  2.0834  0.8955
   63SAPC  H14Y 5111   2.115   6.791   8.447 -0.2029  1.3599  1.2607
   63SAPC  C315 5112   1.910   6.761   8.491  0.2775  0.0387  0.1741
   63SAPC  H15X 5113   1.840   6.675   8.479 -0.8407  1.1924 -2.0473
   63SAPC  H15Y 5114   1.866   6.851   8.443  1.5889 -0.1781 -1.5315
   63SAPC  C316 5115   1.925   6.783   8.644  0.3967  0.1623 -0.7320
   63SAPC  H16X 5116   2.002   6.717   8.689 -1.1106 -0.0553  1.6939
   63SAPC  H16Y 5117   1.830   6.747   8.688  0.4168  0.9620 -0.0037
   63SAPC  C317 5118   1.952   6.927   8.694  0.3692 -0.2717 -0.2236
   63SAPC  H17X 5119   1.856   6.979   8.716  1.7013  2.2119  0.0844
   63SAPC  H17Y 5120   2.010   6.979   8.616 -0.2063 -1.6925 -1.6463
   63SAPC  C318 5121   2.055   6.919   8.809 -0.4375 -0.4696 -0.0364
   63SAPC  H18X 5122   2.017   6.870   8.901 -1.3816  1.2048  0.4981
   63SAPC  H18Y 5123   2.099   7.020   8.828 -1.4647  0.2879 -1.5303
   63SAPC  H18Z 5124   2.139   6.855   8.773  1.2859  1.8511 -0.4293
   64SAPC     N 5125   5.676   5.974   5.628  0.0698 -0.1450  0.1053
   64SAPC   C12 5126   5.731   6.065   5.732  0.1966 -0.4427 -0.2193
   64SAPC  H12A 5127   5.695   6.166   5.717 -0.2649 -0.7829 -1.5735
   64SAPC  H12B 5128   5.837   6.058   5.713  0.6369 -1.0153  2.1347
   64SAPC   C13 5129   5.723   5.835   5.649 -0.3145 -0.3810  0.3127
   64SAPC  H13A 5130   5.702   5.798   5.748 -1.3891 -1.5402 -0.3146
   64SAPC  H13B 5131   5.662   5.768   5.590 -0.1372 -1.3545  1.2160
   64SAPC  H13C 5132   5.828   5.822   5.631 -0.6936 -0.9985 -1.7698
   64SAPC   C14 5133   5.526   5.980   5.638 -0.4340  0.8913  0.7172
   64SAPC  H14A 5134   5.482   6.078   5.630 -0.7446  0.6173 -1.6523
   64SAPC  H14B 5135   5.472   5.927   5.561 -1.8502  2.0206  0.8972
   64SAPC  H14C 5136   5.499   5.941   5.735  1.0867 -1.3124  0.3448
   64SAPC   C15 5137   5.711   6.018   5.487 -0.2043  0.6215 -0.1687
   64SAPC  H15A 5138   5.817   6.037   5.476 -0.0783  1.5391  2.1004
   64SAPC  H15B 5139   5.677   5.949   5.411  1.6743 -1.0300  0.4155
   64SAPC  H15C 5140   5.656   6.109   5.469 -0.9146  0.3833  0.7534
   64SAPC   C11 5141   5.722   6.032   5.884  0.2611 -0.2673 -0.0853
   64SAPC  H11A 5142   5.746   6.126   5.939  0.5525  0.7339 -1.8087
   64SAPC  H11B 5143   5.799   5.956   5.908  0.2620 -0.2597 -0.0646
   64SAPC     P 5144   5.544   5.873   6.005 -0.0640  0.3689  0.0129
   64SAPC   O13 5145   5.409   5.912   6.055 -0.1866  0.8156  0.1486
   64SAPC   O14 5146   5.551   5.746   5.924 -0.3232 -0.1795  0.2102
   64SAPC   O12 5147   5.591   5.995   5.923 -0.5344  0.1710 -0.6982
   64SAPC   O11 5148   5.649   5.849   6.123  0.8503  0.4950  0.6709
   64SAPC    C1 5149   5.655   5.943   6.230  0.0217  0.0114 -0.0255
   64SAPC    HA 5150   5.758   5.986   6.236 -0.9732  2.4914  0.6623
   64SAPC    HB 5151   5.593   6.034   6.215 -0.4931  0.4596  3.9141
   64SAPC    C2 5152   5.603   5.883   6.364 -0.2788  0.2210 -0.5974
   64SAPC    HS 5153   5.618   5.963   6.438 -2.9288  0.8163 -0.5799
   64SAPC   O21 5154   5.669   5.764   6.395  0.1717  0.4960  0.3454
   64SAPC   C21 5155   5.790   5.784   6.459  0.2380  0.4094  0.6311
   64SAPC   O22 5156   5.843   5.884   6.476  0.0346 -0.5008  0.2057
   64SAPC   C22 5157   5.842   5.650   6.519  0.5503  0.9348  0.0161
   64SAPC   H2R 5158   5.853   5.577   6.436 -0.2043 -2.0313  2.3474
   64SAPC   H2S 5159   5.940   5.669   6.567  1.3290 -1.2785 -0.5588
   64SAPC    C3 5160   5.448   5.853   6.363  0.2260 -0.3842  0.1233
   64SAPC    HX 5161   5.428   5.773   6.288 -2.9354  1.3241 -1.0374
   64SAPC    HY 5162   5.397   5.947   6.335  0.6568 -0.0350  0.5150
   64SAPC   O31 5163   5.390   5.831   6.500  0.1600 -0.0978 -0.0528
   64SAPC   C31 5164   5.320   5.723   6.528  0.2309 -0.1090  0.0181
   64SAPC   O32 5165   5.299   5.633   6.456 -0.3228  0.2051  0.0898
   64SAPC   C32 5166   5.259   5.734   6.669  0.4273 -0.7573  0.3754
   64SAPC   H2X 5167   5.174   5.664   6.680  0.3747 -0.3069  3.5615
   64SAPC   H2Y 5168   5.208   5.833   6.661  0.2437 -0.9547 -1.3302
   64SAPC   C23 5169   5.746   5.585   6.620 -0.1838  0.0062  0.0309
   64SAPC   H3R 5170   5.645   5.559   6.581  0.5106  0.0233 -1.8600
   64SAPC   H3S 5171   5.742   5.669   6.693 -0.7506 -0.9796  1.1942
   64SAPC   C24 5172   5.816   5.463   6.689 -0.0638 -0.1462 -0.0965
   64SAPC   H4R 5173   5.926   5.475   6.703  0.2680 -1.2743 -1.4842
   64SAPC   H4S 5174   5.821   5.395   6.601  2.9069 -0.2613  0.0640
   64SAPC   C25 5175   5.743   5.394   6.797  0.2994  0.0114  0.1560
   64SAPC   H5R 5176   5.686   5.307   6.760  3.2346 -1.8116 -0.4232
   64SAPC   C26 5177   5.742   5.415   6.929  0.3602  0.4446 -0.6119
   64SAPC   H6R 5178   5.672   5.355   6.989  0.5083 -0.0383 -0.9106
   64SAPC   C27 5179   5.825   5.521   7.002  0.0393  0.0936  0.0450
   64SAPC   H7R 5180   5.911   5.546   6.936  2.8385 -3.5213  1.8985
   64SAPC   H7S 5181   5.863   5.477   7.097 -3.0279  0.5888  1.6230
   64SAPC   C28 5182   5.755   5.648   7.027  0.3617 -0.0142  0.3645
   64SAPC   H8R 5183   5.748   5.716   6.941  0.1787 -0.8952 -0.3303
   64SAPC   C29 5184   5.693   5.677   7.144  0.3758  0.4847  0.5033
   64SAPC   H9R 5185   5.651   5.778   7.155  2.5263  1.4249  0.7449
   64SAPC  C210 5186   5.690   5.593   7.268  0.0861  0.3726 -0.3393
   64SAPC  H10R 5187   5.773   5.627   7.334  0.7467 -0.6203 -0.6408
   64SAPC  H10S 5188   5.722   5.487   7.261  1.3516  0.5374  1.9669
   64SAPC  C211 5189   5.553   5.597   7.331  0.3490 -0.3339 -0.4331
   64SAPC  H11R 5190   5.469   5.576   7.264 -0.3126  0.8779 -0.0122
   64SAPC  C212 5191   5.528   5.624   7.458  0.6118 -0.5469  0.5250
   64SAPC  H12R 5192   5.420   5.627   7.479  0.0530 -1.7084 -1.7764
   64SAPC  C213 5193   5.621   5.666   7.568 -0.2801  0.1564  0.4197
   64SAPC  H13R 5194   5.568   5.743   7.628 -0.8725  0.0028  0.0982
   64SAPC  H13S 5195   5.716   5.702   7.523  0.5651 -3.2813 -0.8410
   64SAPC  C214 5196   5.655   5.539   7.643  0.2568 -0.4435  0.3922
   64SAPC  H14R 5197   5.719   5.463   7.596  0.3261  0.1903 -0.5616
   64SAPC  C215 5198   5.610   5.502   7.763  0.1081 -0.3570  0.4713
   64SAPC  H15R 5199   5.659   5.412   7.803  1.5157 -0.3552 -1.1182
   64SAPC  C216 5200   5.528   5.583   7.851  0.3503 -0.2806  0.0923
   64SAPC  H16R 5201   5.427   5.539   7.836  1.0545 -1.8405 -0.3602
   64SAPC  H16S 5202   5.527   5.691   7.825 -2.4857 -0.5124 -1.1333
   64SAPC  C217 5203   5.573   5.564   7.996 -0.0382  0.5169 -0.4735
   64SAPC  H17R 5204   5.682   5.584   8.006  0.2000  0.2459 -2.1381
   64SAPC  H17S 5205   5.564   5.457   8.022  4.0706  0.6345  2.3665
   64SAPC  C218 5206   5.493   5.638   8.103  1.1879 -0.0183  0.3286
   64SAPC  H18R 5207   5.390   5.643   8.061  1.3845 -0.2568 -0.1889
   64SAPC  H18S 5208   5.528   5.743   8.099 -2.2760  1.2534 -0.0569
   64SAPC  C219 5209   5.514   5.580   8.241  0.7892  0.7965 -0.3276
   64SAPC  H19R 5210   5.622   5.560   8.255  0.3980 -1.4497 -0.2398
   64SAPC  H19S 5211   5.454   5.487   8.248 -0.5175  1.6300 -0.1128
   64SAPC  C220 5212   5.466   5.665   8.362  0.1041 -1.1065 -0.6681
   64SAPC  H20R 5213   5.356   5.677   8.374  0.6308  1.2239  4.2437
   64SAPC  H20S 5214   5.515   5.764   8.358 -1.8160  0.1956  3.2600
   64SAPC  H20T 5215   5.498   5.608   8.451 -0.6885 -0.2942  0.1549
   64SAPC   C33 5216   5.366   5.722   6.779  0.5263 -0.2073 -0.4405
   64SAPC   H3X 5217   5.449   5.794   6.763  0.3839  0.2292  0.7358
   64SAPC   H3Y 5218   5.412   5.621   6.790  2.6234  0.8238  0.8876
   64SAPC   C34 5219   5.309   5.762   6.916 -0.0233 -0.3760  0.6037
   64SAPC   H4X 5220   5.269   5.865   6.909  0.5640 -0.2406 -1.3940
   64SAPC   H4Y 5221   5.378   5.755   7.003  0.4276  0.0130  0.2814
   64SAPC   C35 5222   5.182   5.682   6.959 -1.1599  0.2419 -0.0454
   64SAPC   H5X 5223   5.200   5.572   6.954 -1.6549  0.1910 -0.7523
   64SAPC   H5Y 5224   5.102   5.712   6.889  0.1360  0.6481 -1.4202
   64SAPC   C36 5225   5.137   5.719   7.105 -0.7533  0.1765  0.9270
   64SAPC   H6X 5226   5.100   5.823   7.095 -0.5514  0.0347 -4.4558
   64SAPC   H6Y 5227   5.227   5.719   7.169 -0.4913  0.0553  0.5616
   64SAPC   C37 5228   5.044   5.617   7.169 -0.0660 -0.5958  0.7059
   64SAPC   H7X 5229   5.066   5.517   7.126 -1.7395 -0.0516 -1.5924
   64SAPC   H7Y 5230   4.940   5.639   7.137 -0.2280 -1.3894  0.6614
   64SAPC   C38 5231   5.062   5.613   7.325  0.1677  0.0190  0.0192
   64SAPC   H8X 5232   4.991   5.682   7.375  1.0233  0.6076  0.4490
   64SAPC   H8Y 5233   5.163   5.634   7.367  0.0764  0.3158  0.0970
   64SAPC   C39 5234   5.022   5.472   7.379 -0.2492 -1.0429  0.1975
   64SAPC   H9X 5235   5.104   5.404   7.346  1.5516  1.0806  0.0878
   64SAPC   H9Y 5236   4.929   5.437   7.329 -0.3153 -0.7192  0.0941
   64SAPC  C310 5237   4.992   5.467   7.529 -0.1619 -0.2999  0.4565
   64SAPC  H10X 5238   4.987   5.362   7.564 -0.8618 -0.6047 -0.5042
   64SAPC  H10Y 5239   4.886   5.498   7.542 -0.0198 -0.9530  4.3043
   64SAPC  C311 5240   5.084   5.542   7.624  1.2190 -0.5111  0.3071
   64SAPC  H11X 5241   5.069   5.650   7.605  5.7723  0.7794  2.6263
   64SAPC  H11Y 5242   5.192   5.520   7.615  1.0287 -1.3597 -0.0393
   64SAPC  C312 5243   5.035   5.503   7.764  0.4047 -0.4555 -0.1712
   64SAPC  H12X 5244   5.057   5.397   7.787  1.4279 -0.5852 -1.5477
   64SAPC  H12Y 5245   4.924   5.511   7.764  0.4095 -0.1203 -1.5150
   64SAPC  C313 5246   5.092   5.591   7.882  0.4108  0.2742  0.4213
   64SAPC  H13X 5247   5.102   5.688   7.830 -1.1745 -0.8813 -2.2700
   64SAPC  H13Y 5248   5.193   5.553   7.907  0.7544 -0.9692 -2.4358
   64SAPC  C314 5249   4.998   5.590   8.003 -0.0617 -0.2475 -0.1267
   64SAPC  H14X 5250   4.962   5.490   8.037  1.6732 -0.9489 -0.2783
   64SAPC  H14Y 5251   4.905   5.645   7.977 -1.0226 -1.2118  1.0877
   64SAPC  C315 5252   5.068   5.648   8.128 -0.2159  0.6680 -0.4532
   64SAPC  H15X 5253   5.117   5.739   8.087 -0.5067  0.7650 -0.5869
   64SAPC  H15Y 5254   5.142   5.570   8.157 -0.7516  0.8287  1.5372
   64SAPC  C316 5255   4.967   5.696   8.234  0.2769  0.4156  0.3112
   64SAPC  H16X 5256   4.905   5.609   8.263  1.4615  0.1004  2.0399
   64SAPC  H16Y 5257   4.893   5.771   8.198  0.6624  0.8451  0.3983
   64SAPC  C317 5258   5.026   5.745   8.362  0.6435  0.0245 -0.4498
   64SAPC  H17X 5259   4.940   5.787   8.419  0.0477 -1.0226 -0.5526
   64SAPC  H17Y 5260   5.098   5.827   8.339  0.2598  0.0105 -1.7979
   64SAPC  C318 5261   5.075   5.636   8.452  0.3035 -0.6685  0.3222
   64SAPC  H18X 5262   5.131   5.680   8.537 -0.6305 -0.5194  0.8737
   64SAPC  H18Y 5263   5.140   5.563   8.399  0.5719 -0.9670  1.0430
   64SAPC  H18Z 5264   4.989   5.579   8.492 -1.2499 -0.0172 -1.9337
   65SAPC     N 5265   5.369   0.043   5.933 -0.3675  0.4736  0.1666
   65SAPC   C12 5266   5.371  -0.093   5.998  0.0301 -0.4034 -0.1169
   65SAPC  H12A 5267   5.272  -0.118   6.032 -0.4151 -1.1860 -1.8965
   65SAPC  H12B 5268   5.425  -0.092   6.092 -0.2038  0.1539  0.0192
   65SAPC   C13 5269   5.319   0.136   6.029  0.4671 -0.2477 -0.0005
   65SAPC  H13A 5270   5.224   0.106   6.072  0.9480  2.2645  3.1931
   65SAPC  H13B 5271   5.378   0.165   6.114 -0.6751  1.7883  0.1491
   65SAPC  H13C 5272   5.319   0.234   5.984  2.1498 -0.1417  0.1789
   65SAPC   C14 5273   5.510   0.080   5.895  0.6547  0.7733  0.4566
   65SAPC  H14A 5274   5.498   0.163   5.828 -1.4242  1.0086  1.0737
   65SAPC  H14B 5275   5.572   0.107   5.979  0.5383 -0.4852  0.9812
   65SAPC  H14C 5276   5.558  -0.000   5.840 -1.9677 -2.3553  2.3607
   65SAPC   C15 5277   5.283   0.046   5.802 -0.3875  0.0334 -0.4925
   65SAPC  H15A 5278   5.289   0.143   5.757  0.0401  0.6224  0.7938
   65SAPC  H15B 5279   5.327  -0.027   5.736  0.4324 -0.0626  0.1369
   65SAPC  H15C 5280   5.176   0.034   5.809 -0.2421 -1.4074 -0.2787
   65SAPC   C11 5281   5.413  -0.219   5.921 -0.3412  0.2577 -0.2882
   65SAPC  H11A 5282   5.369  -0.207   5.820  2.8843  0.6526 -1.7858
   65SAPC  H11B 5283   5.373  -0.308   5.974  1.6703 -0.2296  0.4915
   65SAPC     P 5284   5.657  -0.255   6.000  0.0762 -0.1899 -0.1034
   65SAPC   O13 5285   5.686  -0.403   5.992 -0.4281 -0.0948  0.1913
   65SAPC   O14 5286   5.770  -0.162   5.982 -0.7832  0.1546  0.3498
   65SAPC   O12 5287   5.552  -0.224   5.893 -0.0037  0.0335  0.3774
   65SAPC   O11 5288   5.580  -0.219   6.143 -0.2516 -0.0115  0.3749
   65SAPC    C1 5289   5.662  -0.193   6.262 -0.1543  0.0854  0.4304
   65SAPC    HA 5290   5.746  -0.128   6.230 -0.5214  0.3236 -0.0724
   65SAPC    HB 5291   5.599  -0.139   6.336 -0.2268  0.2306  0.2654
   65SAPC    C2 5292   5.701  -0.330   6.331 -0.0242  0.5233 -0.5112
   65SAPC    HS 5293   5.757  -0.385   6.253  2.2146 -2.1040  2.6251
   65SAPC   O21 5294   5.586  -0.392   6.390 -0.1662  0.5373 -0.2994
   65SAPC   C21 5295   5.586  -0.525   6.396  0.0065 -0.7183  0.3988
   65SAPC   O22 5296   5.675  -0.597   6.362  0.0566  0.1351  0.2450
   65SAPC   C22 5297   5.452  -0.577   6.453 -0.0999  0.0912 -0.2980
   65SAPC   H2R 5298   5.374  -0.502   6.431  0.7940  1.2550  0.4110
   65SAPC   H2S 5299   5.434  -0.672   6.397  1.5314 -0.0746 -0.6032
   65SAPC    C3 5300   5.814  -0.314   6.436 -0.6667 -0.8104  0.0008
   65SAPC    HX 5301   5.909  -0.300   6.381 -0.5284 -0.3715  0.3477
   65SAPC    HY 5302   5.824  -0.408   6.494 -4.3520 -1.1378  0.3780
   65SAPC   O31 5303   5.787  -0.198   6.525 -0.0153 -0.0952  0.6438
   65SAPC   C31 5304   5.804  -0.217   6.655 -0.2713 -0.2523  0.7714
   65SAPC   O32 5305   5.831  -0.319   6.714 -0.1832 -0.1899  0.0246
   65SAPC   C32 5306   5.755  -0.094   6.730  0.6266 -0.0910  0.4797
   65SAPC   H2X 5307   5.776  -0.007   6.664 -1.2176  1.4228  1.7778
   65SAPC   H2Y 5308   5.819  -0.092   6.821  0.6017 -0.3651  0.5052
   65SAPC   C23 5309   5.471  -0.604   6.601 -0.8445  0.3213 -0.3460
   65SAPC   H3R 5310   5.485  -0.508   6.656  0.8590 -0.5004  0.7229
   65SAPC   H3S 5311   5.562  -0.668   6.603  0.4685  2.1342  0.2473
   65SAPC   C24 5312   5.360  -0.687   6.661  0.1007  0.1623  0.8190
   65SAPC   H4R 5313   5.390  -0.731   6.759  0.6044  0.8639  0.9828
   65SAPC   H4S 5314   5.339  -0.765   6.585 -1.1691  0.9995  0.2889
   65SAPC   C25 5315   5.221  -0.624   6.672  0.0441 -0.7548 -0.2515
   65SAPC   H5R 5316   5.180  -0.577   6.581 -1.6950 -1.9279 -0.1153
   65SAPC   C26 5317   5.152  -0.600   6.783 -0.6468  0.8492 -0.7814
   65SAPC   H6R 5318   5.070  -0.527   6.773 -0.6444  0.8842 -0.5501
   65SAPC   C27 5319   5.197  -0.638   6.922  0.0180  0.2059 -0.1102
   65SAPC   H7R 5320   5.264  -0.727   6.918 -0.2141 -0.0339  1.0565
   65SAPC   H7S 5321   5.113  -0.674   6.985 -0.0735 -1.0153 -0.8932
   65SAPC   C28 5322   5.263  -0.521   6.990  0.3249 -0.2181 -0.0452
   65SAPC   H8R 5323   5.282  -0.432   6.929  0.4666 -0.6832 -0.6846
   65SAPC   C29 5324   5.319  -0.527   7.117 -0.2565  0.5495  0.5115
   65SAPC   H9R 5325   5.376  -0.441   7.155 -1.2763  1.3885  0.1829
   65SAPC  C210 5326   5.325  -0.646   7.210 -0.9319  0.2824  0.6054
   65SAPC  H10R 5327   5.229  -0.699   7.198 -1.0863  0.2964  1.6952
   65SAPC  H10S 5328   5.326  -0.626   7.320  1.9573 -2.6062  1.2686
   65SAPC  C211 5329   5.426  -0.752   7.179 -0.0124  0.2688 -0.0857
   65SAPC  H11R 5330   5.477  -0.751   7.081  3.0065 -1.7386  1.3065
   65SAPC  C212 5331   5.447  -0.855   7.267 -0.1307 -0.2908  0.7548
   65SAPC  H12R 5332   5.514  -0.936   7.235 -0.7378 -1.3270  1.9836
   65SAPC  C213 5333   5.377  -0.873   7.401  0.4098  0.1385 -0.0393
   65SAPC  H13R 5334   5.375  -0.977   7.441  0.5203  0.4678  0.8440
   65SAPC  H13S 5335   5.268  -0.865   7.384  0.0711 -0.3896  1.7185
   65SAPC  C214 5336   5.418  -0.778   7.515  0.0973  0.5109  0.2713
   65SAPC  H14R 5337   5.464  -0.681   7.490  0.3674 -0.0470 -1.5830
   65SAPC  C215 5338   5.384  -0.791   7.641 -0.6511 -0.6098  0.2123
   65SAPC  H15R 5339   5.425  -0.715   7.708  0.8206  1.6785 -3.0080
   65SAPC  C216 5340   5.295  -0.904   7.693  0.4952 -0.1387 -0.5962
   65SAPC  H16R 5341   5.362  -0.976   7.745  2.0737 -0.9603 -3.5245
   65SAPC  H16S 5342   5.229  -0.954   7.619 -3.0521  3.2941 -0.0731
   65SAPC  C217 5343   5.197  -0.852   7.803 -0.7781  0.1872  0.2300
   65SAPC  H17R 5344   5.118  -0.930   7.796  0.3661 -1.4301  3.3338
   65SAPC  H17S 5345   5.149  -0.755   7.776 -2.9613 -1.0056 -0.4298
   65SAPC  C218 5346   5.265  -0.833   7.940  0.2501  0.5317  0.0132
   65SAPC  H18R 5347   5.336  -0.748   7.932  0.5480  0.4625  1.5951
   65SAPC  H18S 5348   5.325  -0.922   7.967  1.5483  0.9908 -1.2050
   65SAPC  C219 5349   5.179  -0.782   8.062 -0.2477 -0.2297 -0.3652
   65SAPC  H19R 5350   5.104  -0.859   8.092  0.1018 -1.5253 -2.6335
   65SAPC  H19S 5351   5.117  -0.700   8.020 -0.1297 -0.5116 -1.1059
   65SAPC  C220 5352   5.264  -0.748   8.187 -0.6185  0.4426 -0.0501
   65SAPC  H20R 5353   5.305  -0.842   8.230  1.2186  0.9656 -0.5600
   65SAPC  H20S 5354   5.204  -0.706   8.270  2.2094  0.9709  1.8673
   65SAPC  H20T 5355   5.350  -0.684   8.155  0.3683 -0.9539 -0.2866
   65SAPC   C33 5356   5.607  -0.115   6.763 -0.4488 -0.8700  0.1214
   65SAPC   H3X 5357   5.556  -0.141   6.668 -0.3245 -0.3309 -0.0997
   65SAPC   H3Y 5358   5.574  -0.018   6.807  2.1915 -0.1592  0.6895
   65SAPC   C34 5359   5.581  -0.230   6.860  0.0309  0.3202 -0.4738
   65SAPC   H4X 5360   5.608  -0.333   6.827 -0.7915 -0.1652  0.3169
   65SAPC   H4Y 5361   5.471  -0.238   6.870  0.0284  1.5626  0.7245
   65SAPC   C35 5362   5.645  -0.207   6.994  0.2443  0.3556 -0.9881
   65SAPC   H5X 5363   5.669  -0.100   7.016  0.0963 -0.1421  2.0062
   65SAPC   H5Y 5364   5.748  -0.247   6.984 -0.3883 -1.3540 -0.9610
   65SAPC   C36 5365   5.588  -0.290   7.109  0.7721  0.1666 -0.0883
   65SAPC   H6X 5366   5.614  -0.396   7.085  1.9055  0.9326 -2.6612
   65SAPC   H6Y 5367   5.479  -0.272   7.112  0.8475  0.5942  0.1760
   65SAPC   C37 5368   5.666  -0.254   7.240  0.6172 -0.2678  0.8835
   65SAPC   H7X 5369   5.664  -0.145   7.266 -2.4012 -0.2962  1.2129
   65SAPC   H7Y 5370   5.769  -0.295   7.239  1.7502  2.3357 -0.9945
   65SAPC   C38 5371   5.592  -0.319   7.359  0.1260 -0.5694  0.2196
   65SAPC   H8X 5372   5.575  -0.425   7.333 -0.0885 -0.3440 -0.5812
   65SAPC   H8Y 5373   5.492  -0.270   7.362  0.1271 -0.5882  2.3529
   65SAPC   C39 5374   5.674  -0.306   7.497  0.1135  0.6825 -0.0989
   65SAPC   H9X 5375   5.705  -0.201   7.513  0.9376  0.4366 -0.0433
   65SAPC   H9Y 5376   5.761  -0.374   7.492 -0.6507 -0.2175 -2.2641
   65SAPC  C310 5377   5.589  -0.343   7.620  0.7950  0.6267 -0.0173
   65SAPC  H10X 5378   5.542  -0.441   7.596  1.1936  0.4257  0.0269
   65SAPC  H10Y 5379   5.502  -0.274   7.626  0.9463  0.6796  2.2391
   65SAPC  C311 5380   5.659  -0.340   7.751 -0.8429  0.1704  0.4175
   65SAPC  H11X 5381   5.708  -0.244   7.778  2.5898 -1.2221 -0.3160
   65SAPC  H11Y 5382   5.739  -0.417   7.752 -1.3303 -0.3532 -0.3708
   65SAPC  C312 5383   5.585  -0.381   7.877  0.4908  0.0136  0.7249
   65SAPC  H12X 5384   5.545  -0.485   7.871 -0.6432  0.4444  0.4207
   65SAPC  H12Y 5385   5.493  -0.318   7.876 -0.4606 -1.2408  2.8095
   65SAPC  C313 5386   5.657  -0.359   8.010  0.4463  0.5064  0.8001
   65SAPC  H13X 5387   5.678  -0.252   8.034  1.3866  0.6601 -0.5979
   65SAPC  H13Y 5388   5.748  -0.422   8.011  0.0308 -0.5808 -3.9053
   65SAPC  C314 5389   5.565  -0.413   8.125  0.2885  0.5712 -0.4674
   65SAPC  H14X 5390   5.552  -0.522   8.105 -2.5331  0.2775  2.2671
   65SAPC  H14Y 5391   5.465  -0.365   8.125 -1.3280 -2.5393  0.1914
   65SAPC  C315 5392   5.614  -0.383   8.265  1.1839  0.4866  0.1861
   65SAPC  H15X 5393   5.604  -0.277   8.296  2.1048  0.8219 -0.6339
   65SAPC  H15Y 5394   5.721  -0.409   8.253  0.7650 -0.3985 -2.0676
   65SAPC  C316 5395   5.540  -0.481   8.369  0.5152  0.2778  1.4184
   65SAPC  H16X 5396   5.574  -0.585   8.351  2.3108  0.7137  2.1346
   65SAPC  H16Y 5397   5.432  -0.470   8.343  0.9525 -0.6565 -1.0375
   65SAPC  C317 5398   5.568  -0.458   8.519  0.1355 -0.3496 -0.8089
   65SAPC  H17X 5399   5.506  -0.530   8.578 -0.0415  0.3401 -0.1304
   65SAPC  H17Y 5400   5.539  -0.352   8.534  1.6602  0.1422 -1.2308
   65SAPC  C318 5401   5.717  -0.465   8.562 -0.0891  0.4682 -1.1535
   65SAPC  H18X 5402   5.768  -0.371   8.530 -0.8639  1.0641 -0.6762
   65SAPC  H18Y 5403   5.765  -0.557   8.522 -1.8044  0.1834 -2.6674
   65SAPC  H18Z 5404   5.725  -0.463   8.673 -0.6689  4.2777 -1.0394
   66SAPC     N 5405   2.928   2.001   6.126  0.1642  0.2104 -0.5116
   66SAPC   C12 5406   2.966   2.071   5.998 -0.4220  0.3535 -0.9784
   66SAPC  H12A 5407   2.880   2.056   5.933 -0.1790 -2.6807 -0.7610
   66SAPC  H12B 5408   3.047   2.022   5.946 -0.3455  1.7318 -2.2365
   66SAPC   C13 5409   3.048   1.993   6.225  0.5072 -0.5921 -0.3069
   66SAPC  H13A 5410   3.022   1.931   6.310 -2.1403  2.5270  1.3809
   66SAPC  H13B 5411   3.134   1.952   6.173  0.9281  1.5132 -1.3926
   66SAPC  H13C 5412   3.072   2.094   6.256  0.5695 -0.3361 -1.1479
   66SAPC   C14 5413   2.820   2.067   6.207  0.2230  0.0886  0.5568
   66SAPC  H14A 5414   2.786   2.019   6.297  2.1418 -0.7746  0.8494
   66SAPC  H14B 5415   2.862   2.161   6.238  2.9806 -0.9232  0.1573
   66SAPC  H14C 5416   2.737   2.086   6.140  1.2114  0.8106 -0.5057
   66SAPC   C15 5417   2.892   1.858   6.083  0.1778  0.1676 -0.5010
   66SAPC  H15A 5418   2.806   1.866   6.018 -0.0357  0.3223 -0.2045
   66SAPC  H15B 5419   2.978   1.817   6.032  2.3421 -0.5019  3.2666
   66SAPC  H15C 5420   2.866   1.806   6.175  1.1564 -0.0958 -0.3659
   66SAPC   C11 5421   3.022   2.217   5.996  0.1704  0.3517  0.3246
   66SAPC  H11A 5422   2.940   2.278   6.040  0.5223  2.5122 -1.8397
   66SAPC  H11B 5423   3.034   2.258   5.894  1.1277 -1.2558 -0.2481
   66SAPC     P 5424   3.278   2.173   6.005  0.1493 -0.0078  0.0700
   66SAPC   O13 5425   3.267   2.071   5.900  0.2729  0.3714 -0.3009
   66SAPC   O14 5426   3.353   2.294   5.973 -0.1395 -0.6423 -0.3070
   66SAPC   O12 5427   3.142   2.218   6.076 -0.4148  0.1183 -0.2493
   66SAPC   O11 5428   3.354   2.110   6.127  0.1223  0.0221 -0.0721
   66SAPC    C1 5429   3.350   2.168   6.256  0.7004  0.2242 -0.5557
   66SAPC    HA 5430   3.398   2.268   6.265  0.0662  0.4146  1.2748
   66SAPC    HB 5431   3.246   2.175   6.296 -0.2477 -1.3793 -2.5868
   66SAPC    C2 5432   3.429   2.075   6.358 -0.1055 -0.2533 -0.1919
   66SAPC    HS 5433   3.522   2.049   6.302  0.1958  0.6439 -0.1302
   66SAPC   O21 5434   3.346   1.973   6.405  0.3319  0.1384  0.3759
   66SAPC   C21 5435   3.394   1.851   6.397 -1.2331 -0.4955  0.7971
   66SAPC   O22 5436   3.488   1.810   6.326  0.1303 -1.2083 -0.0491
   66SAPC   C22 5437   3.316   1.763   6.486 -0.5574  0.5135 -0.3536
   66SAPC   H2R 5438   3.293   1.826   6.575  1.1373 -1.4970  1.6342
   66SAPC   H2S 5439   3.221   1.733   6.436 -0.1263 -0.7324 -0.4360
   66SAPC    C3 5440   3.475   2.169   6.475 -0.1260  0.5735 -0.0362
   66SAPC    HX 5441   3.390   2.218   6.527 -0.1404  1.0876 -0.5380
   66SAPC    HY 5442   3.552   2.238   6.433  0.1920  0.5360  0.4696
   66SAPC   O31 5443   3.553   2.100   6.575  0.0637  0.0283  0.1448
   66SAPC   C31 5444   3.597   2.173   6.678  0.0112  0.1857  0.2146
   66SAPC   O32 5445   3.557   2.284   6.709  0.4589 -0.0730 -0.4447
   66SAPC   C32 5446   3.681   2.086   6.767 -0.5362 -0.8380 -0.2516
   66SAPC   H2X 5447   3.748   2.024   6.703  1.7095  0.8252  0.3668
   66SAPC   H2Y 5448   3.618   2.016   6.826 -0.0269 -1.3808 -0.3431
   66SAPC   C23 5449   3.397   1.635   6.523  0.1330  0.0504  0.2106
   66SAPC   H3R 5450   3.507   1.650   6.532  0.2166 -0.2684 -0.2250
   66SAPC   H3S 5451   3.388   1.562   6.439 -0.0353 -0.8780  1.0247
   66SAPC   C24 5452   3.345   1.562   6.648 -0.6422  0.3347  0.0076
   66SAPC   H4R 5453   3.397   1.464   6.646 -0.4772  0.4141 -1.9691
   66SAPC   H4S 5454   3.237   1.547   6.624 -1.3409  1.6735  2.0188
   66SAPC   C25 5455   3.383   1.631   6.775  0.1271 -0.1585  0.4141
   66SAPC   H5R 5456   3.428   1.730   6.762 -1.0993  0.2962 -0.5955
   66SAPC   C26 5457   3.362   1.582   6.897  0.4548  0.1048 -0.4393
   66SAPC   H6R 5458   3.387   1.647   6.982 -0.5689  0.7318 -0.6085
   66SAPC   C27 5459   3.310   1.447   6.944 -0.5142 -0.1126  0.5135
   66SAPC   H7R 5460   3.339   1.431   7.050 -1.8625 -1.1224  0.7606
   66SAPC   H7S 5461   3.367   1.370   6.888 -0.0750  0.5798 -0.0091
   66SAPC   C28 5462   3.166   1.423   6.922 -0.0792  0.4389  0.7447
   66SAPC   H8R 5463   3.145   1.403   6.816  0.9452 -3.6252  1.1405
   66SAPC   C29 5464   3.073   1.417   7.023  0.1523  0.3491  1.0169
   66SAPC   H9R 5465   2.969   1.392   6.999  0.8283 -0.7458 -1.0407
   66SAPC  C210 5466   3.094   1.433   7.167 -0.7902  0.5975 -1.0117
   66SAPC  H10R 5467   3.199   1.411   7.197 -0.7898  2.0646  0.2188
   66SAPC  H10S 5468   3.042   1.353   7.224  1.0705  1.4916  2.2184
   66SAPC  C211 5469   3.041   1.568   7.209  0.3225 -0.5431 -0.2644
   66SAPC  H11R 5470   3.039   1.647   7.132  0.7703 -1.3857 -1.1713
   66SAPC  C212 5471   3.004   1.596   7.333  0.6966 -0.1502 -0.3757
   66SAPC  H12R 5472   2.986   1.703   7.352  1.7503 -0.2076  1.0624
   66SAPC  C213 5473   2.998   1.515   7.462  0.0092 -0.0621  0.5125
   66SAPC  H13R 5474   2.988   1.592   7.541  1.7150  0.6920  0.0361
   66SAPC  H13S 5475   3.098   1.469   7.475 -0.0547 -1.0094 -1.9090
   66SAPC  C214 5476   2.896   1.404   7.474 -0.3932  0.0173  0.2650
   66SAPC  H14R 5477   2.849   1.379   7.378  1.7640 -1.0702 -0.5858
   66SAPC  C215 5478   2.863   1.331   7.586  1.0845  0.3023 -0.0141
   66SAPC  H15R 5479   2.784   1.255   7.584  2.4712 -1.1634 -0.6021
   66SAPC  C216 5480   2.924   1.338   7.718  0.4025  0.3903 -1.1525
   66SAPC  H16R 5481   3.013   1.404   7.721  0.1170  0.8307 -2.1653
   66SAPC  H16S 5482   2.970   1.239   7.740  2.5768  1.5739 -0.0988
   66SAPC  C217 5483   2.823   1.372   7.837 -0.2169  0.1666 -0.6052
   66SAPC  H17R 5484   2.726   1.317   7.835 -1.2665  1.5777  3.1169
   66SAPC  H17S 5485   2.800   1.475   7.803  2.2480  0.4987 -1.4193
   66SAPC  C218 5486   2.885   1.372   7.978 -0.7988  0.6352 -0.2486
   66SAPC  H18R 5487   2.963   1.451   7.979 -0.2083  0.0634  0.4640
   66SAPC  H18S 5488   2.945   1.278   7.985 -2.8910 -0.7545 -0.0261
   66SAPC  C219 5489   2.787   1.394   8.102  0.8151  0.4469 -0.9297
   66SAPC  H19R 5490   2.727   1.303   8.122 -1.9895  2.1537 -0.8669
   66SAPC  H19S 5491   2.709   1.469   8.077  0.9346  0.9376  0.1351
   66SAPC  C220 5492   2.860   1.434   8.228 -0.2276  0.5136  0.0707
   66SAPC  H20R 5493   2.953   1.375   8.245  0.6078  1.8227  0.1966
   66SAPC  H20S 5494   2.790   1.433   8.314 -1.2788  1.3424 -0.7567
   66SAPC  H20T 5495   2.907   1.534   8.224  2.5364 -0.6084  1.6176
   66SAPC   C33 5496   3.760   2.178   6.860  0.8312  0.2651  0.4297
   66SAPC   H3X 5497   3.696   2.229   6.935  0.4152 -1.2947  1.1830
   66SAPC   H3Y 5498   3.804   2.267   6.810 -0.1709  0.1693 -0.6474
   66SAPC   C34 5499   3.870   2.102   6.938  0.4412 -0.1204  0.4250
   66SAPC   H4X 5500   3.953   2.076   6.868  1.8889  2.7420  0.9263
   66SAPC   H4Y 5501   3.833   2.012   6.990  0.2101  0.9497  2.2079
   66SAPC   C35 5502   3.927   2.187   7.053 -0.7058  0.3241 -0.0658
   66SAPC   H5X 5503   3.943   2.290   7.015  0.2354  1.0413  2.1007
   66SAPC   H5Y 5504   4.019   2.131   7.082 -0.9759  0.2270  0.6168
   66SAPC   C36 5505   3.847   2.187   7.181  0.0886 -0.2640  0.1336
   66SAPC   H6X 5506   3.804   2.084   7.183 -1.7354  0.3394 -2.6110
   66SAPC   H6Y 5507   3.758   2.253   7.169  0.2501 -0.2857 -1.3346
   66SAPC   C37 5508   3.929   2.215   7.315  0.7170  0.3980 -0.2598
   66SAPC   H7X 5509   4.028   2.164   7.317  0.1685 -0.6738  0.1677
   66SAPC   H7Y 5510   3.866   2.165   7.392 -1.0840  1.2462 -1.1410
   66SAPC   C38 5511   3.933   2.369   7.344  0.1328 -0.1394 -0.4016
   66SAPC   H8X 5512   3.826   2.394   7.360  0.1876  0.2090 -0.5665
   66SAPC   H8Y 5513   3.967   2.418   7.250  2.5813 -0.4092  0.2760
   66SAPC   C39 5514   4.028   2.403   7.465 -0.0259  0.3845  0.8594
   66SAPC   H9X 5515   4.124   2.350   7.446 -1.1462 -1.0769 -1.0522
   66SAPC   H9Y 5516   4.006   2.358   7.564 -1.4900 -0.0610  0.3452
   66SAPC  C310 5517   4.055   2.551   7.474  0.1705  0.7312  0.0745
   66SAPC  H10X 5518   3.957   2.601   7.460 -0.7107 -0.9358  0.0490
   66SAPC  H10Y 5519   4.110   2.578   7.381 -1.5570  1.4029 -0.7831
   66SAPC  C311 5520   4.139   2.594   7.601  0.3827 -0.0712  0.0188
   66SAPC  H11X 5521   4.156   2.702   7.582  0.8647 -0.2774 -0.7915
   66SAPC  H11Y 5522   4.234   2.536   7.611 -0.2395 -1.2553 -0.7347
   66SAPC  C312 5523   4.054   2.587   7.727 -0.2932 -0.3691  0.0364
   66SAPC  H12X 5524   4.033   2.480   7.750  0.3077 -0.2325  1.3107
   66SAPC  H12Y 5525   3.949   2.624   7.724 -0.1032  0.1667 -0.0871
   66SAPC  C313 5526   4.125   2.659   7.837  0.2759  0.1335 -0.3049
   66SAPC  H13X 5527   4.063   2.638   7.926 -3.6964  0.3669 -2.7534
   66SAPC  H13Y 5528   4.142   2.769   7.836  2.4177 -0.1119  1.3508
   66SAPC  C314 5529   4.264   2.599   7.863  0.2178  0.5511 -0.4665
   66SAPC  H14X 5530   4.347   2.636   7.799 -1.2091  1.3839 -1.9146
   66SAPC  H14Y 5531   4.247   2.492   7.835 -2.1326  0.7527 -0.0624
   66SAPC  C315 5532   4.304   2.613   8.005  0.1751  0.3321 -0.6286
   66SAPC  H15X 5533   4.218   2.588   8.071 -0.0667  1.9704 -0.2726
   66SAPC  H15Y 5534   4.342   2.714   8.034 -0.5020  0.0384  1.4511
   66SAPC  C316 5535   4.416   2.512   8.034  0.0923  0.2634 -0.2286
   66SAPC  H16X 5536   4.395   2.404   8.017  0.4734  0.3562 -1.3400
   66SAPC  H16Y 5537   4.441   2.515   8.142  1.4117  0.6776 -0.5253
   66SAPC  C317 5538   4.550   2.546   7.964  0.4945  0.2762  0.4196
   66SAPC  H17X 5539   4.576   2.649   7.998  0.2779  0.7620 -0.8431
   66SAPC  H17Y 5540   4.521   2.561   7.858  2.6645  1.6256 -0.0467
   66SAPC  C318 5541   4.656   2.438   7.972  0.0222  0.2707 -0.9175
   66SAPC  H18X 5542   4.722   2.447   8.061  2.9052 -1.0632 -2.7706
   66SAPC  H18Y 5543   4.719   2.435   7.881  0.4835  0.8075 -0.6225
   66SAPC  H18Z 5544   4.606   2.338   7.973 -0.8203  0.6781 -0.4459
   67SAPC     N 5545   4.735   2.712   5.977 -0.6278  0.3897  0.4709
   67SAPC   C12 5546   4.880   2.753   6.000 -0.1738  0.0701  0.3956
   67SAPC  H12A 5547   4.888   2.766   6.107  1.9501  0.3590  0.2306
   67SAPC  H12B 5548   4.910   2.846   5.953  1.6662 -0.0737  1.2229
   67SAPC   C13 5549   4.643   2.828   6.011  0.2515 -0.4285  0.2242
   67SAPC  H13A 5550   4.541   2.801   5.987  0.2227 -0.5823  0.5130
   67SAPC  H13B 5551   4.653   2.863   6.113  1.3593  0.3286 -0.1249
   67SAPC  H13C 5552   4.689   2.910   5.959  3.7030 -1.8761  0.6969
   67SAPC   C14 5553   4.714   2.672   5.839 -0.3628 -0.0177 -0.4140
   67SAPC  H14A 5554   4.755   2.576   5.812 -0.8052  0.1829 -1.8687
   67SAPC  H14B 5555   4.609   2.658   5.820 -0.1265  0.6640 -2.3931
   67SAPC  H14C 5556   4.752   2.750   5.775  2.8959 -1.4268 -0.3980
   67SAPC   C15 5557   4.702   2.590   6.056 -0.0646 -0.2686  0.3665
   67SAPC  H15A 5558   4.602   2.553   6.038  0.0909 -0.0012 -1.2150
   67SAPC  H15B 5559   4.782   2.520   6.039  0.2207  0.1569 -0.0880
   67SAPC  H15C 5560   4.699   2.610   6.162 -0.9088 -0.3169  0.3600
   67SAPC   C11 5561   4.993   2.656   5.964 -0.1776 -0.2853  0.2847
   67SAPC  H11A 5562   5.088   2.705   5.934 -1.3318  0.4767 -2.4754
   67SAPC  H11B 5563   4.977   2.609   5.864 -0.0417 -0.5603  0.3897
   67SAPC     P 5564   5.130   2.541   6.147  0.2442 -0.2636 -0.1494
   67SAPC   O13 5565   5.119   2.412   6.221 -0.0827 -0.0999  0.0615
   67SAPC   O14 5566   5.246   2.567   6.061 -0.5301 -0.3665 -0.0532
   67SAPC   O12 5567   5.010   2.555   6.060  0.3562 -0.3479  0.3825
   67SAPC   O11 5568   5.099   2.662   6.239 -0.1254 -0.1881  0.3745
   67SAPC    C1 5569   5.195   2.756   6.280 -0.3976 -0.1916 -0.3963
   67SAPC    HA 5570   5.296   2.734   6.241 -1.2038 -0.0117 -2.7319
   67SAPC    HB 5571   5.180   2.846   6.216  1.4423  0.3219 -0.1621
   67SAPC    C2 5572   5.191   2.780   6.432 -0.5748  0.0427 -0.8654
   67SAPC    HS 5573   5.211   2.676   6.465 -0.8075  0.2027 -0.1964
   67SAPC   O21 5574   5.066   2.831   6.480 -0.2096 -0.1000  0.0185
   67SAPC   C21 5575   5.034   2.814   6.609  0.3478  0.4353 -0.6048
   67SAPC   O22 5576   5.081   2.732   6.683 -0.4045 -0.0006 -0.2365
   67SAPC   C22 5577   4.923   2.912   6.650 -0.3302 -0.6191  0.4179
   67SAPC   H2R 5578   4.961   2.990   6.720  1.2666  0.3506 -1.4336
   67SAPC   H2S 5579   4.892   2.963   6.556 -2.5725 -1.6912  0.4909
   67SAPC    C3 5580   5.305   2.867   6.480 -0.0735  0.1020  0.1962
   67SAPC    HX 5581   5.287   2.973   6.452 -0.5269 -0.5259 -2.1665
   67SAPC    HY 5582   5.399   2.826   6.436 -0.2623  1.8019 -1.9574
   67SAPC   O31 5583   5.325   2.866   6.627  0.2009  0.2940  0.1525
   67SAPC   C31 5584   5.388   2.763   6.683 -0.4630 -0.4297  0.2356
   67SAPC   O32 5585   5.451   2.681   6.619 -0.0270 -0.5913 -0.5750
   67SAPC   C32 5586   5.371   2.760   6.841 -0.2280 -1.1194 -0.9925
   67SAPC   H2X 5587   5.295   2.683   6.864  0.4674 -1.3293  0.6790
   67SAPC   H2Y 5588   5.344   2.866   6.862  1.6099 -0.7686 -0.2184
   67SAPC   C23 5589   4.804   2.836   6.713 -0.9163 -0.5650 -0.4485
   67SAPC   H3R 5590   4.825   2.814   6.820 -1.8780 -0.2924 -0.1910
   67SAPC   H3S 5591   4.789   2.746   6.650  1.2974  0.2177 -2.2432
   67SAPC   C24 5592   4.672   2.919   6.706  0.0881 -0.5600  0.4863
   67SAPC   H4R 5593   4.588   2.863   6.751 -0.3547 -0.8188 -0.6253
   67SAPC   H4S 5594   4.655   2.922   6.596  1.2543 -3.3204  0.1380
   67SAPC   C25 5595   4.687   3.051   6.774  0.5511  0.5244 -0.1555
   67SAPC   H5R 5596   4.736   3.129   6.713  2.1326  0.0550  0.4587
   67SAPC   C26 5597   4.662   3.076   6.896 -0.0538 -0.6741 -0.4289
   67SAPC   H6R 5598   4.667   3.180   6.931  1.3165 -0.9018  0.1125
   67SAPC   C27 5599   4.614   2.982   7.006 -0.4738  0.0707  0.9730
   67SAPC   H7R 5600   4.698   2.976   7.079  0.4800  0.8078 -0.0203
   67SAPC   H7S 5601   4.620   2.879   6.964  2.2152  0.9074 -1.0141
   67SAPC   C28 5602   4.484   3.008   7.070  0.2340 -0.0269 -0.5876
   67SAPC   H8R 5603   4.412   3.064   7.009  1.6906 -0.3847 -2.7476
   67SAPC   C29 5604   4.454   2.977   7.202  0.3193 -0.8259  0.3313
   67SAPC   H9R 5605   4.355   3.009   7.238  0.3390 -1.2899  0.8143
   67SAPC  C210 5606   4.540   2.909   7.306 -0.0206  0.1219 -0.5593
   67SAPC  H10R 5607   4.615   2.980   7.347  0.5374 -1.7426  1.8465
   67SAPC  H10S 5608   4.608   2.838   7.254 -1.8169 -2.3090  0.2024
   67SAPC  C211 5609   4.476   2.815   7.403 -0.0151  0.0397  0.2703
   67SAPC  H11R 5610   4.369   2.791   7.391  0.3713 -0.4495 -3.7050
   67SAPC  C212 5611   4.545   2.753   7.506 -0.0586 -0.7419 -0.1920
   67SAPC  H12R 5612   4.480   2.697   7.575 -0.4724 -1.9420 -1.5036
   67SAPC  C213 5613   4.697   2.781   7.543  0.0628  0.3503  0.4103
   67SAPC  H13R 5614   4.737   2.881   7.519 -1.2178  1.0692  1.1662
   67SAPC  H13S 5615   4.760   2.711   7.484 -0.7422  1.6385 -2.1203
   67SAPC  C214 5616   4.714   2.765   7.696  0.1381 -0.2246  0.0518
   67SAPC  H14R 5617   4.715   2.660   7.730  1.8134 -0.7947 -1.6076
   67SAPC  C215 5618   4.730   2.862   7.789 -0.0505  0.3710  0.1708
   67SAPC  H15R 5619   4.746   2.841   7.895  0.6156 -2.9094 -0.4620
   67SAPC  C216 5620   4.747   3.007   7.751 -0.3370 -0.1171  0.4642
   67SAPC  H16R 5621   4.696   3.080   7.816 -1.0827  0.2366 -0.5008
   67SAPC  H16S 5622   4.695   3.016   7.653 -1.0024  1.4911  0.9446
   67SAPC  C217 5623   4.897   3.045   7.742 -0.4919  0.3467 -0.3443
   67SAPC  H17R 5624   4.916   3.146   7.698  1.7181  0.0874 -0.0988
   67SAPC  H17S 5625   4.951   2.978   7.671 -1.0923  0.5308 -0.9863
   67SAPC  C218 5626   4.967   3.055   7.881  0.3075 -0.2886 -0.5735
   67SAPC  H18R 5627   4.966   2.960   7.938  2.3235 -1.5032 -2.4043
   67SAPC  H18S 5628   4.916   3.129   7.946 -0.3401 -0.2727 -1.0910
   67SAPC  C219 5629   5.109   3.092   7.858 -0.5414 -0.0315 -0.0901
   67SAPC  H19R 5630   5.126   3.141   7.760 -1.0460 -0.5847 -0.4580
   67SAPC  H19S 5631   5.158   2.994   7.843  0.7685  0.6527 -0.4405
   67SAPC  C220 5632   5.176   3.159   7.973  0.3574  0.2775 -0.2263
   67SAPC  H20R 5633   5.277   3.195   7.946  0.9819  0.8212  2.5373
   67SAPC  H20S 5634   5.188   3.085   8.055 -0.9619 -0.2526 -0.4892
   67SAPC  H20T 5635   5.122   3.253   8.000 -1.1352 -0.1783 -1.5159
   67SAPC   C33 5636   5.505   2.727   6.916 -0.1012 -0.3319  0.0659
   67SAPC   H3X 5637   5.584   2.785   6.863  1.0073 -1.0349  0.9166
   67SAPC   H3Y 5638   5.531   2.619   6.912 -0.2975 -0.5820  3.4138
   67SAPC   C34 5639   5.504   2.767   7.065  1.1837  0.3505  0.3313
   67SAPC   H4X 5640   5.400   2.783   7.102  0.8538  0.8039 -0.7694
   67SAPC   H4Y 5641   5.554   2.864   7.085  1.7697  0.4147 -1.3283
   67SAPC   C35 5642   5.584   2.675   7.147 -0.2883  0.6349 -0.1979
   67SAPC   H5X 5643   5.691   2.699   7.129 -0.4319  1.2691 -0.2302
   67SAPC   H5Y 5644   5.557   2.574   7.108 -0.3509  0.3114  0.6788
   67SAPC   C36 5645   5.560   2.700   7.297  0.1135  0.2753 -0.2119
   67SAPC   H6X 5646   5.568   2.811   7.301  0.4550  0.3130 -1.3267
   67SAPC   H6Y 5647   5.641   2.658   7.360 -0.2696  0.6405  0.5303
   67SAPC   C37 5648   5.432   2.643   7.360 -0.4873  0.3943 -0.1612
   67SAPC   H7X 5649   5.449   2.535   7.378  0.3870  0.9046  2.5161
   67SAPC   H7Y 5650   5.348   2.666   7.291 -0.8704 -1.7359 -0.4635
   67SAPC   C38 5651   5.411   2.709   7.495  0.1913 -0.2003  0.4379
   67SAPC   H8X 5652   5.405   2.820   7.491 -0.6846 -0.2644 -0.5519
   67SAPC   H8Y 5653   5.498   2.693   7.562  0.8728  1.9122  0.1335
   67SAPC   C39 5654   5.286   2.659   7.563  0.1286  0.2424  0.3824
   67SAPC   H9X 5655   5.304   2.551   7.578  1.2178  0.4733  0.8335
   67SAPC   H9Y 5656   5.191   2.682   7.510 -0.0781  0.9911  1.0499
   67SAPC  C310 5657   5.288   2.713   7.711 -0.0744 -0.6370  0.5106
   67SAPC  H10X 5658   5.290   2.824   7.712  2.3124 -0.6431  2.1198
   67SAPC  H10Y 5659   5.387   2.687   7.754  0.8189  1.9406  0.1721
   67SAPC  C311 5660   5.168   2.667   7.788  0.5159  0.7937 -0.4223
   67SAPC  H11X 5661   5.154   2.558   7.771  0.9068 -0.0929  3.8496
   67SAPC  H11Y 5662   5.073   2.712   7.752  0.4032 -0.3396 -1.6130
   67SAPC  C312 5663   5.187   2.686   7.938  0.5527 -0.0484 -1.0217
   67SAPC  H12X 5664   5.237   2.784   7.955  3.7298 -1.5653 -0.9045
   67SAPC  H12Y 5665   5.270   2.622   7.976  0.9038  0.6309 -0.6324
   67SAPC  C313 5666   5.063   2.677   8.024  0.7082 -0.0422 -0.1675
   67SAPC  H13X 5667   5.019   2.576   8.040  3.0148 -1.3992 -1.8973
   67SAPC  H13Y 5668   4.988   2.731   7.962  1.1031 -0.2439 -0.8247
   67SAPC  C314 5669   5.078   2.758   8.156  0.1439  0.1959 -0.6289
   67SAPC  H14X 5670   5.064   2.867   8.144 -0.3694  0.1529 -0.4497
   67SAPC  H14Y 5671   5.179   2.741   8.201  0.0845 -0.3520 -0.6952
   67SAPC  C315 5672   4.961   2.720   8.250  0.3113 -0.8808  0.0578
   67SAPC  H15X 5673   4.961   2.612   8.277 -0.7276 -0.9988 -0.3528
   67SAPC  H15Y 5674   4.865   2.731   8.195 -0.6092  0.8522  1.8805
   67SAPC  C316 5675   4.955   2.804   8.384 -0.1220  0.2086  0.4280
   67SAPC  H16X 5676   4.932   2.911   8.366 -0.8853  0.1010  0.7291
   67SAPC  H16Y 5677   5.055   2.788   8.431 -0.4712 -0.9790  0.7923
   67SAPC  C317 5678   4.854   2.753   8.485 -0.0886  0.1662  0.3286
   67SAPC  H17X 5679   4.880   2.648   8.511  1.0948  0.9252  2.5659
   67SAPC  H17Y 5680   4.753   2.755   8.439  0.7154 -2.1855 -1.7756
   67SAPC  C318 5681   4.844   2.827   8.618  0.0723 -0.1829  0.2499
   67SAPC  H18X 5682   4.940   2.840   8.672 -0.1618  0.5487  0.5038
   67SAPC  H18Y 5683   4.796   2.756   8.688 -0.1128  0.5715  0.8921
   67SAPC  H18Z 5684   4.793   2.925   8.611  2.8111  1.5089  2.0796
   68SAPC     N 5685   3.441   3.378   5.767  0.6923 -0.8472 -0.0767
   68SAPC   C12 5686   3.443   3.249   5.850  0.2080  0.4954  0.3118
   68SAPC  H12A 5687   3.479   3.165   5.793 -0.0196  1.9093 -2.0593
   68SAPC  H12B 5688   3.339   3.227   5.871  0.2760 -1.9643 -1.4808
   68SAPC   C13 5689   3.581   3.426   5.733  0.8595  0.2832 -0.1290
   68SAPC  H13A 5690   3.602   3.520   5.684  2.4964  0.4557  0.8268
   68SAPC  H13B 5691   3.635   3.424   5.827 -0.4131 -0.7200  0.6045
   68SAPC  H13C 5692   3.632   3.350   5.674  2.5953 -0.4025  2.1118
   68SAPC   C14 5693   3.378   3.342   5.635  0.5986 -0.1779 -0.0005
   68SAPC  H14A 5694   3.376   3.431   5.575 -0.9403 -1.9436 -2.8068
   68SAPC  H14B 5695   3.432   3.264   5.584  0.3146 -0.3560 -0.0327
   68SAPC  H14C 5696   3.276   3.309   5.647  1.2838 -1.7918  2.0252
   68SAPC   C15 5697   3.362   3.497   5.819 -0.0153 -0.3305  0.0816
   68SAPC  H15A 5698   3.357   3.571   5.740 -1.0933 -0.4048  0.0613
   68SAPC  H15B 5699   3.261   3.466   5.843  0.1156 -0.0679  1.0181
   68SAPC  H15C 5700   3.414   3.535   5.905  0.1134  1.1846 -0.6384
   68SAPC   C11 5701   3.515   3.242   5.987  0.2335 -0.6280 -0.0286
   68SAPC  H11A 5702   3.625   3.251   5.972  0.2672 -1.3056 -0.2143
   68SAPC  H11B 5703   3.497   3.138   6.021  0.9022  0.3222  3.6070
   68SAPC     P 5704   3.333   3.323   6.160  0.2252  0.2022  0.0516
   68SAPC   O13 5705   3.340   3.398   6.287 -0.8415  0.0609 -0.3897
   68SAPC   O14 5706   3.211   3.354   6.081 -0.4166  0.0646  0.1079
   68SAPC   O12 5707   3.466   3.342   6.075 -0.2632  0.0958  0.3290
   68SAPC   O11 5708   3.344   3.167   6.193  0.5833 -0.0400 -0.1516
   68SAPC    C1 5709   3.225   3.098   6.220  0.9691  0.6194  0.1357
   68SAPC    HA 5710   3.134   3.161   6.210 -0.0485 -0.9977 -1.3080
   68SAPC    HB 5711   3.211   3.010   6.154 -0.1772 -0.8016  2.1562
   68SAPC    C2 5712   3.231   3.034   6.363 -0.7766  0.4134  0.1162
   68SAPC    HS 5713   3.141   2.970   6.376  0.0962 -1.1534 -1.3423
   68SAPC   O21 5714   3.253   3.140   6.459  0.4417 -0.6071 -0.3455
   68SAPC   C21 5715   3.137   3.202   6.483  0.0612  0.2213 -0.0218
   68SAPC   O22 5716   3.022   3.173   6.445  0.4056  0.1783  0.3793
   68SAPC   C22 5717   3.168   3.321   6.570 -0.9413  0.0989 -0.0598
   68SAPC   H2R 5718   3.221   3.276   6.657 -2.1863 -1.8651 -0.2368
   68SAPC   H2S 5719   3.237   3.385   6.512  1.2244 -2.5705 -0.6171
   68SAPC    C3 5720   3.345   2.930   6.376 -0.3592 -1.0002 -0.3468
   68SAPC    HX 5721   3.439   2.974   6.336 -0.8733 -1.3513 -2.0352
   68SAPC    HY 5722   3.330   2.848   6.302  0.5811  0.3098 -2.0899
   68SAPC   O31 5723   3.351   2.861   6.504 -0.4112 -0.2304  0.0808
   68SAPC   C31 5724   3.429   2.925   6.594  0.3748 -0.3829  0.0767
   68SAPC   O32 5725   3.485   3.031   6.573 -0.3767  0.5152 -0.2928
   68SAPC   C32 5726   3.429   2.849   6.727  0.3599 -0.7964 -0.1842
   68SAPC   H2X 5727   3.518   2.782   6.729 -0.4031 -1.8425 -0.2316
   68SAPC   H2Y 5728   3.335   2.791   6.730 -1.3551  1.8154 -0.6558
   68SAPC   C23 5729   3.041   3.402   6.621 -0.6402  0.0721  0.4775
   68SAPC   H3R 5730   2.976   3.414   6.532 -0.7391  1.8310  0.7522
   68SAPC   H3S 5731   3.070   3.498   6.669  1.0440 -1.3059  2.4321
   68SAPC   C24 5732   2.969   3.335   6.738 -0.5273  0.2139  0.3840
   68SAPC   H4R 5733   3.031   3.357   6.828  3.0307 -0.2931 -1.7264
   68SAPC   H4S 5734   2.970   3.224   6.727 -0.6861  0.2006  0.5042
   68SAPC   C25 5735   2.825   3.389   6.768  0.5749 -0.0633 -0.3994
   68SAPC   H5R 5736   2.769   3.421   6.679  2.5624  0.9351 -1.3449
   68SAPC   C26 5737   2.764   3.389   6.887 -0.2378 -1.2687  0.4970
   68SAPC   H6R 5738   2.664   3.435   6.889  0.0746 -0.4045 -1.3041
   68SAPC   C27 5739   2.821   3.360   7.026  0.0294  0.1635  0.4351
   68SAPC   H7R 5740   2.814   3.445   7.097  0.2267  2.3369 -1.9976
   68SAPC   H7S 5741   2.929   3.333   7.013 -0.4225 -1.9190  0.5959
   68SAPC   C28 5742   2.753   3.233   7.074 -0.1746 -0.2612  0.1748
   68SAPC   H8R 5743   2.654   3.218   7.029  0.7054  1.0881 -2.4083
   68SAPC   C29 5744   2.810   3.147   7.157  0.2199 -0.6044  0.5273
   68SAPC   H9R 5745   2.750   3.067   7.202  0.3040 -0.0591  1.6626
   68SAPC  C210 5746   2.940   3.168   7.220 -0.4517  0.0212 -0.6466
   68SAPC  H10R 5747   3.022   3.200   7.152  0.7174 -3.3419 -1.0612
   68SAPC  H10S 5748   2.986   3.068   7.241 -0.7796 -0.1637 -0.7987
   68SAPC  C211 5749   2.946   3.245   7.347  0.6147  0.6557 -1.1071
   68SAPC  H11R 5750   2.868   3.322   7.353  0.8383  0.9185 -1.5165
   68SAPC  C212 5751   3.025   3.236   7.457 -1.0310  0.5074 -0.7224
   68SAPC  H12R 5752   3.018   3.310   7.538 -2.1070  1.1656 -1.3861
   68SAPC  C213 5753   3.141   3.137   7.470 -0.2455 -0.3631 -0.2138
   68SAPC  H13R 5754   3.231   3.195   7.438  1.7144 -3.3917 -0.5928
   68SAPC  H13S 5755   3.134   3.046   7.408 -2.1896  0.3034 -1.0309
   68SAPC  C214 5756   3.171   3.105   7.614 -0.0563  0.5424 -0.3951
   68SAPC  H14R 5757   3.137   3.174   7.692 -1.1768 -2.1909  1.6628
   68SAPC  C215 5758   3.211   2.982   7.658  0.6235 -0.2057 -0.0110
   68SAPC  H15R 5759   3.203   2.958   7.765 -0.6421 -0.3826 -0.1268
   68SAPC  C216 5760   3.245   2.860   7.582 -0.0069 -0.1999 -0.7037
   68SAPC  H16R 5761   3.315   2.797   7.642 -0.6427 -1.0467 -0.8196
   68SAPC  H16S 5762   3.282   2.877   7.479 -1.2760 -0.6199 -1.2554
   68SAPC  C217 5763   3.123   2.768   7.554 -0.4693  0.1267  0.3371
   68SAPC  H17R 5764   3.050   2.823   7.492 -0.4155 -1.9406 -1.6882
   68SAPC  H17S 5765   3.070   2.735   7.647 -0.2680 -2.8664 -0.5219
   68SAPC  C218 5766   3.154   2.653   7.462 -0.8324  0.3259 -0.1900
   68SAPC  H18R 5767   3.243   2.596   7.498 -1.0335 -0.8554 -1.4880
   68SAPC  H18S 5768   3.192   2.700   7.368 -0.5003 -0.1753 -0.3122
   68SAPC  C219 5769   3.027   2.571   7.433 -0.3597  0.2683  0.3144
   68SAPC  H19R 5770   2.957   2.631   7.370  0.8803  0.9196 -0.4835
   68SAPC  H19S 5771   2.977   2.538   7.526  1.4134 -0.9227  0.8822
   68SAPC  C220 5772   3.050   2.440   7.366 -0.3209 -0.0927 -0.3352
   68SAPC  H20R 5773   2.969   2.393   7.305 -2.9643 -1.2104  3.6695
   68SAPC  H20S 5774   3.079   2.362   7.439 -0.6155  0.9694  0.9506
   68SAPC  H20T 5775   3.138   2.453   7.299 -1.0592 -1.0600 -1.5599
   68SAPC   C33 5776   3.428   2.948   6.843  0.8208  0.3367 -0.6156
   68SAPC   H3X 5777   3.508   3.024   6.839 -0.2023  1.8420  3.0766
   68SAPC   H3Y 5778   3.451   2.885   6.932  1.1285  1.5916  0.2112
   68SAPC   C34 5779   3.289   3.009   6.861  0.1038 -0.0216  0.2338
   68SAPC   H4X 5780   3.208   2.940   6.893  0.0420 -0.1197 -0.1275
   68SAPC   H4Y 5781   3.257   3.033   6.757  0.3555  0.7665  0.3340
   68SAPC   C35 5782   3.285   3.140   6.935  0.0233 -0.7258  0.5051
   68SAPC   H5X 5783   3.192   3.193   6.904  0.3800  0.5034  1.4829
   68SAPC   H5Y 5784   3.358   3.208   6.888  0.0161 -0.6494  0.6055
   68SAPC   C36 5785   3.297   3.141   7.090 -0.2321 -0.7490  0.0264
   68SAPC   H6X 5786   3.231   3.061   7.129 -0.8423 -0.6276 -0.7264
   68SAPC   H6Y 5787   3.251   3.238   7.119 -0.1269 -0.5318 -0.5054
   68SAPC   C37 5788   3.444   3.119   7.144  0.4154  0.5713  0.3817
   68SAPC   H7X 5789   3.521   3.183   7.095  0.4040  0.4276  0.1768
   68SAPC   H7Y 5790   3.462   3.011   7.129 -2.1343  0.0461  0.7860
   68SAPC   C38 5791   3.462   3.121   7.300  0.9088  0.8002  0.3802
   68SAPC   H8X 5792   3.537   3.040   7.317 -0.4398 -0.7194 -0.5683
   68SAPC   H8Y 5793   3.374   3.067   7.341 -0.5905  2.8586  0.0224
   68SAPC   C39 5794   3.487   3.263   7.347 -0.1074  0.0832  0.2279
   68SAPC   H9X 5795   3.406   3.336   7.328 -0.1335  0.0770  0.3140
   68SAPC   H9Y 5796   3.575   3.303   7.292 -1.3759  0.5986 -1.4706
   68SAPC  C310 5797   3.498   3.281   7.503 -0.0658  0.3818  0.0143
   68SAPC  H10X 5798   3.423   3.219   7.556 -1.7323  0.3633 -2.2338
   68SAPC  H10Y 5799   3.476   3.386   7.530  0.0089  0.5749 -0.6592
   68SAPC  C311 5800   3.644   3.247   7.547  0.1016 -0.2551 -0.2165
   68SAPC  H11X 5801   3.719   3.323   7.515  0.6582  0.0477  1.6991
   68SAPC  H11Y 5802   3.673   3.152   7.497  1.9303  1.7088 -3.2692
   68SAPC  C312 5803   3.669   3.232   7.697  0.4016 -0.1725 -0.3020
   68SAPC  H12X 5804   3.638   3.324   7.749 -0.0441 -0.1920 -0.5297
   68SAPC  H12Y 5805   3.780   3.233   7.709  0.3645 -0.0723  0.0241
   68SAPC  C313 5806   3.601   3.113   7.751 -0.1578 -1.0414  0.1321
   68SAPC  H13X 5807   3.623   3.032   7.677 -0.0940  0.2402 -1.2924
   68SAPC  H13Y 5808   3.491   3.129   7.753 -0.1975 -1.3066  0.1401
   68SAPC  C314 5809   3.650   3.084   7.895  0.1660 -0.0154  0.7081
   68SAPC  H14X 5810   3.584   3.004   7.934 -1.6097  0.3349 -1.3570
   68SAPC  H14Y 5811   3.635   3.173   7.959  4.1012  0.5119  1.1615
   68SAPC  C315 5812   3.804   3.049   7.911 -0.1467 -0.0745 -0.7637
   68SAPC  H15X 5813   3.857   3.144   7.892  1.1572 -0.4876  0.6155
   68SAPC  H15Y 5814   3.839   2.971   7.841 -2.7927 -0.7389 -1.4861
   68SAPC  C316 5815   3.850   3.006   8.052  0.0939 -0.1496 -0.2399
   68SAPC  H16X 5816   3.830   3.081   8.131  1.1885  0.4969 -0.5592
   68SAPC  H16Y 5817   3.960   2.991   8.048  0.1304  0.0952 -0.1167
   68SAPC  C317 5818   3.784   2.887   8.112 -0.1117  0.1324 -0.1107
   68SAPC  H17X 5819   3.677   2.916   8.122 -0.6289 -0.8842 -2.1139
   68SAPC  H17Y 5820   3.817   2.870   8.216  0.9528  3.8233  0.3058
   68SAPC  C318 5821   3.798   2.760   8.034  0.0808  1.1469  0.0008
   68SAPC  H18X 5822   3.793   2.763   7.923  1.9164 -3.2686 -0.3745
   68SAPC  H18Y 5823   3.717   2.692   8.068 -0.6351  1.1759 -1.5672
   68SAPC  H18Z 5824   3.892   2.706   8.056 -1.0553 -0.1160  2.1604
   69SLPC     N 5825   3.980   6.128  11.044  0.0985 -0.4860 -0.0300
   69SLPC   C13 5826   3.860   6.049  11.039  0.3232 -0.5272  0.7574
   69SLPC  H13A 5827   3.835   6.008  10.942 -2.0809  1.3939  0.4692
   69SLPC  H13B 5828   3.874   5.962  11.101 -0.2361 -2.0818 -1.1661
   69SLPC  H13C 5829   3.780   6.112  11.074 -0.9191 -1.9427  0.5440
   69SLPC   C14 5830   4.093   6.049  10.981  0.2101 -0.3881  0.0733
   69SLPC  H14A 5831   4.075   6.025  10.878  1.2223 -2.1880  0.2686
   69SLPC  H14B 5832   4.183   6.108  10.983 -0.3052  0.5270 -1.6334
   69SLPC  H14C 5833   4.124   5.958  11.031 -0.8480 -1.1255 -0.5745
   69SLPC   C15 5834   4.015   6.146  11.196  0.6929 -0.2146  0.1775
   69SLPC  H15A 5835   4.023   6.047  11.239  0.5077 -1.6137 -2.7355
   69SLPC  H15B 5836   4.108   6.199  11.199  0.4337  0.2285  3.2696
   69SLPC  H15C 5837   3.936   6.202  11.244  2.5146  1.2590  1.5934
   69SLPC   C12 5838   3.962   6.256  10.980  0.1112 -0.6207  0.2798
   69SLPC  H12A 5839   3.920   6.231  10.884  0.8816 -3.0058  0.4960
   69SLPC  H12B 5840   4.061   6.296  10.966 -0.5613  0.4481 -1.8576
   69SLPC   C11 5841   3.869   6.368  11.048 -0.0580  0.2572 -0.3831
   69SLPC  H11A 5842   3.880   6.457  10.983  2.8404  0.9976  0.9611
   69SLPC  H11B 5843   3.915   6.391  11.146  0.1684 -0.0068 -0.4232
   69SLPC     P 5844   3.633   6.298  10.958  0.2381  0.1661 -0.1343
   69SLPC   O13 5845   3.557   6.179  10.995 -0.0831 -0.2481 -0.0192
   69SLPC   O14 5846   3.560   6.430  10.957  0.1078 -0.2440  0.6283
   69SLPC   O12 5847   3.738   6.314  11.070  0.0485  0.4174  0.6715
   69SLPC   O11 5848   3.712   6.267  10.823  0.1392  0.5551  0.0171
   69SLPC    C1 5849   3.645   6.277  10.699  0.1640 -0.7880 -0.1400
   69SLPC    HA 5850   3.605   6.177  10.670 -0.2197 -1.0874  1.3286
   69SLPC    HB 5851   3.545   6.326  10.706 -0.5897 -1.8552 -2.4027
   69SLPC    C2 5852   3.733   6.331  10.583 -0.3337 -0.4580 -0.0363
   69SLPC    HS 5853   3.664   6.372  10.506  0.3445 -0.3898 -0.6210
   69SLPC   O21 5854   3.823   6.230  10.524  0.4834 -0.0955  0.2465
   69SLPC   C21 5855   3.761   6.134  10.456  0.1193  0.0179 -0.2072
   69SLPC   O22 5856   3.639   6.120  10.447 -0.3440 -0.5753 -0.0577
   69SLPC   C22 5857   3.868   6.062  10.378  1.0514  0.0002  0.3817
   69SLPC   H2R 5858   3.943   6.126  10.328  3.3636 -0.8902  2.4572
   69SLPC   H2S 5859   3.929   6.011  10.456  1.7670  1.3459  0.7224
   69SLPC    C3 5860   3.818   6.463  10.619  0.3921 -0.9864  0.3039
   69SLPC    HX 5861   3.898   6.438  10.692  0.8042 -2.0236 -0.4676
   69SLPC    HY 5862   3.754   6.530  10.679 -0.1839 -0.5775 -0.7346
   69SLPC   O31 5863   3.865   6.532  10.500 -0.2965 -0.3182  1.1742
   69SLPC   C31 5864   3.993   6.581  10.505 -0.2189  0.1082  0.4879
   69SLPC   O32 5865   4.069   6.569  10.601  0.6299 -0.2255  0.0451
   69SLPC   C32 5866   4.030   6.650  10.379 -0.8882  0.7337 -0.0256
   69SLPC   H2X 5867   3.941   6.703  10.339 -0.0841  2.1093 -0.0415
   69SLPC   H2Y 5868   4.056   6.571  10.305  0.3795  0.9958  0.1286
   69SLPC   C23 5869   3.806   5.967  10.273  0.0252  0.9224 -0.5766
   69SLPC   H3R 5870   3.722   6.019  10.223 -1.6121 -1.0266  0.0384
   69SLPC   H3S 5871   3.769   5.881  10.332  1.2738  0.6072 -0.2139
   69SLPC   C24 5872   3.923   5.914  10.178  0.5030 -0.4493  0.5981
   69SLPC   H4R 5873   3.931   5.803  10.170  0.2171 -0.3744 -0.8514
   69SLPC   H4S 5874   4.025   5.947  10.206  0.1552  0.7526  0.5008
   69SLPC   C25 5875   3.887   5.965  10.038 -0.5115 -0.6920 -0.5113
   69SLPC   H5R 5876   3.859   6.072  10.042  1.0237 -0.2948  0.5884
   69SLPC   H5S 5877   3.802   5.906   9.997 -0.2791  0.6411 -3.1088
   69SLPC   C26 5878   3.997   5.952   9.932  0.3668  0.1203  0.3280
   69SLPC   H6R 5879   4.025   5.847   9.914 -1.4234 -0.4885  0.8167
   69SLPC   H6S 5880   4.081   6.009   9.978 -1.7850  1.5451  2.8050
   69SLPC   C27 5881   3.961   6.005   9.795 -0.8761 -0.0299  0.5874
   69SLPC   H7R 5882   3.949   6.116   9.797  1.8781  0.3413  0.2002
   69SLPC   H7S 5883   3.864   5.957   9.769 -0.3670 -2.4628  2.8116
   69SLPC   C28 5884   4.059   5.982   9.681 -0.1863  0.6643 -0.1261
   69SLPC   H8R 5885   4.080   5.876   9.653  1.4782  0.9648 -0.1062
   69SLPC   H8S 5886   4.165   6.002   9.707  0.4375  0.1474 -2.0474
   69SLPC   C29 5887   4.033   6.064   9.559  0.2552  0.0040 -0.4894
   69SLPC   H9R 5888   4.009   6.169   9.585 -2.3486 -0.7252  0.4149
   69SLPC  C210 5889   4.038   6.037   9.426  0.4255 -0.0659 -0.3011
   69SLPC  H10R 5890   4.025   6.116   9.350 -0.3687 -0.8514 -0.9965
   69SLPC  C211 5891   4.077   5.911   9.361  0.4743 -0.0873  0.8374
   69SLPC  H11R 5892   4.143   5.847   9.423  0.1270 -3.3434 -1.8676
   69SLPC  H11S 5893   4.142   5.931   9.273 -0.1911 -0.8221  0.1643
   69SLPC  C212 5894   3.960   5.841   9.321  0.2929  0.4507 -0.8922
   69SLPC  H12R 5895   3.920   5.789   9.410 -1.4266  0.0764 -1.8544
   69SLPC  C213 5896   3.896   5.835   9.200 -0.3711  0.4118  0.2758
   69SLPC  H13R 5897   3.809   5.769   9.186 -0.8868  1.3097 -0.8817
   69SLPC  C214 5898   3.931   5.899   9.066 -0.0021 -0.1758 -0.3474
   69SLPC  H14R 5899   3.978   5.998   9.085 -1.2100  0.6296 -1.3889
   69SLPC  H14S 5900   3.837   5.905   9.007 -0.2227 -1.1615 -0.1141
   69SLPC  C215 5901   4.027   5.829   8.974  0.0752  0.6039 -0.2387
   69SLPC  H15R 5902   3.970   5.743   8.933  0.4772  0.5950 -0.7913
   69SLPC  H15S 5903   4.123   5.791   9.014  0.1260 -0.2606 -1.1443
   69SLPC  C216 5904   4.066   5.919   8.857 -0.2844 -0.4646 -0.1350
   69SLPC  H16R 5905   4.087   6.019   8.900  1.0424 -0.3645 -0.9618
   69SLPC  H16S 5906   3.980   5.944   8.792  0.0239  1.4433  0.1351
   69SLPC  C217 5907   4.172   5.858   8.765  0.0244 -0.0176  0.5647
   69SLPC  H17R 5908   4.129   5.760   8.735  2.0448 -0.6850 -0.3598
   69SLPC  H17S 5909   4.269   5.838   8.816 -0.1351  1.3534  1.4811
   69SLPC  C218 5910   4.192   5.958   8.648 -0.4011  0.0415 -0.1381
   69SLPC  H18R 5911   4.267   5.911   8.581 -0.6360 -1.5647  0.6646
   69SLPC  H18S 5912   4.249   6.048   8.680  1.1867 -0.7525 -0.6450
   69SLPC  H18T 5913   4.092   5.976   8.602 -1.7121 -1.1222  2.0476
   69SLPC   C33 5914   4.140   6.761  10.374 -0.2098 -0.2237  0.4312
   69SLPC   H3X 5915   4.191   6.761  10.473  0.4909 -0.3915  0.0781
   69SLPC   H3Y 5916   4.091   6.860  10.362 -0.3490 -0.2580  0.7146
   69SLPC   C34 5917   4.242   6.749  10.258  0.5262 -1.0147 -0.1201
   69SLPC   H4X 5918   4.290   6.650  10.265  2.2949 -0.1635  0.4039
   69SLPC   H4Y 5919   4.323   6.824  10.274 -0.1805 -0.1284 -0.6195
   69SLPC   C35 5920   4.186   6.771  10.109  0.1120  0.0448  0.0636
   69SLPC   H5X 5921   4.146   6.874  10.095  0.6447  0.5550  2.0853
   69SLPC   H5Y 5922   4.108   6.692  10.099  0.8192 -0.4805 -1.6470
   69SLPC   C36 5923   4.297   6.759  10.007 -0.6448 -0.1639 -0.6236
   69SLPC   H6X 5924   4.355   6.665  10.013 -0.1756  0.0519 -1.6010
   69SLPC   H6Y 5925   4.371   6.841  10.022  2.5512 -2.4456 -2.6864
   69SLPC   C37 5926   4.243   6.776   9.861 -0.2596 -0.3139 -0.2688
   69SLPC   H7X 5927   4.191   6.875   9.864 -0.6113 -0.5146  1.3279
   69SLPC   H7Y 5928   4.160   6.704   9.843 -0.2063 -0.4737  0.1355
   69SLPC   C38 5929   4.343   6.764   9.742 -0.0589  0.2659 -0.1837
   69SLPC   H8X 5930   4.403   6.674   9.769  0.1377  0.1656 -0.9310
   69SLPC   H8Y 5931   4.421   6.844   9.743  0.7172 -0.4686 -0.5522
   69SLPC   C39 5932   4.284   6.751   9.604  0.4070 -0.2002 -0.7870
   69SLPC   H9X 5933   4.241   6.850   9.577  1.5264  0.2442 -0.9733
   69SLPC   H9Y 5934   4.202   6.677   9.591 -0.6393  0.5524  1.1666
   69SLPC  C310 5935   4.398   6.725   9.506  0.0316 -0.5718 -0.8222
   69SLPC  H10X 5936   4.427   6.622   9.537 -1.3981 -0.7899 -0.0841
   69SLPC  H10Y 5937   4.483   6.794   9.523 -0.8415  0.2852  0.2086
   69SLPC  C311 5938   4.337   6.723   9.363  0.4272 -0.7271  0.5506
   69SLPC  H11X 5939   4.305   6.826   9.337  2.4862 -0.3994 -0.9667
   69SLPC  H11Y 5940   4.252   6.653   9.371  0.3176 -0.8530 -1.2383
   69SLPC  C312 5941   4.439   6.679   9.248  0.1277  0.5169  0.0244
   69SLPC  H12X 5942   4.487   6.584   9.281  0.9066  0.4298 -1.2955
   69SLPC  H12Y 5943   4.520   6.754   9.238  0.1935  0.6213  1.1750
   69SLPC  C313 5944   4.369   6.664   9.116 -0.3582  0.4608  0.1313
   69SLPC  H13X 5945   4.284   6.732   9.092  0.3536  0.6638 -1.9251
   69SLPC  H13Y 5946   4.309   6.570   9.117  0.0319  0.0255 -3.5183
   69SLPC  C314 5947   4.469   6.656   8.999 -0.7545 -0.2996  0.3693
   69SLPC  H14X 5948   4.515   6.555   9.002 -2.1077 -0.9093  1.2517
   69SLPC  H14Y 5949   4.544   6.737   9.004 -1.5897  0.4484  1.0710
   69SLPC  C315 5950   4.398   6.676   8.864 -0.5777  0.0398 -0.1226
   69SLPC  H15X 5951   4.352   6.777   8.861  0.7453  0.9498  3.8072
   69SLPC  H15Y 5952   4.317   6.600   8.855 -0.5461 -0.0630  0.4465
   69SLPC  C316 5953   4.493   6.658   8.740  0.4631 -0.0822  0.6944
   69SLPC  H16X 5954   4.543   6.561   8.760 -1.4014 -1.2378  0.0477
   69SLPC  H16Y 5955   4.580   6.727   8.744 -0.5390  1.1671  2.3170
   69SLPC  C317 5956   4.426   6.676   8.599 -1.3394 -0.1206  0.3698
   69SLPC  H17X 5957   4.508   6.704   8.529 -1.7975  2.0441  0.6264
   69SLPC  H17Y 5958   4.364   6.768   8.610  2.3744  2.7704 -0.5490
   69SLPC  C318 5959   4.350   6.560   8.539  0.4822  0.2299 -0.8251
   69SLPC  H18X 5960   4.416   6.473   8.517  0.0874 -0.2890  0.0404
   69SLPC  H18Y 5961   4.300   6.581   8.441 -0.3382 -1.0336 -0.6997
   69SLPC  H18Z 5962   4.275   6.527   8.614  1.4524 -0.0036  0.0578
   70SLPC     N 5963   6.693   3.784  10.541  0.3517  0.5595  0.0571
   70SLPC   C13 5964   6.617   3.837  10.663  0.0828 -0.6458  0.0619
   70SLPC  H13A 5965   6.675   3.838  10.754  1.2907  0.1868 -0.6836
   70SLPC  H13B 5966   6.590   3.940  10.642  1.1662 -0.4394 -0.3696
   70SLPC  H13C 5967   6.536   3.771  10.690  0.2528 -0.0230  2.2808
   70SLPC   C14 5968   6.807   3.866  10.510 -0.7379 -0.2183  0.3030
   70SLPC  H14A 5969   6.773   3.965  10.482 -0.1031  0.3015  1.3337
   70SLPC  H14B 5970   6.889   3.863  10.580  0.1442 -1.3739 -0.7357
   70SLPC  H14C 5971   6.858   3.828  10.423  0.4903  0.2743  0.7848
   70SLPC   C15 5972   6.595   3.785  10.425 -0.2013 -0.2089 -0.4060
   70SLPC  H15A 5973   6.634   3.742  10.334  0.5967  0.0342 -0.1904
   70SLPC  H15B 5974   6.504   3.734  10.453  1.0000 -2.9848 -1.1592
   70SLPC  H15C 5975   6.587   3.889  10.400  1.6522 -0.0276 -0.3807
   70SLPC   C12 5976   6.740   3.647  10.575 -0.0602 -0.1829 -0.8693
   70SLPC  H12A 5977   6.796   3.605  10.493  0.2269  0.8965 -1.2433
   70SLPC  H12B 5978   6.649   3.590  10.584 -1.3454  2.0487  1.8603
   70SLPC   C11 5979   6.843   3.629  10.689 -0.4949  0.0445 -0.2096
   70SLPC  H11A 5980   6.863   3.521  10.706 -2.3286  0.2533  5.9314
   70SLPC  H11B 5981   6.792   3.657  10.784  0.4680  0.6560  0.1436
   70SLPC     P 5982   7.104   3.663  10.655 -0.4284  0.1414  0.1939
   70SLPC   O13 5983   7.175   3.780  10.590  0.1204  0.0390  0.3307
   70SLPC   O14 5984   7.163   3.591  10.774 -0.5862  0.1535 -0.1425
   70SLPC   O12 5985   6.957   3.712  10.689  0.4742 -0.1718  0.1609
   70SLPC   O11 5986   7.086   3.546  10.544  0.3775 -0.3082  0.2525
   70SLPC    C1 5987   7.169   3.536  10.426  0.4562  0.8742  0.3403
   70SLPC    HA 5988   7.251   3.611  10.419  0.8286  0.3069 -2.2208
   70SLPC    HB 5989   7.222   3.439  10.428 -1.8924 -0.4899 -0.5641
   70SLPC    C2 5990   7.086   3.537  10.294 -0.3253 -0.0274  0.2846
   70SLPC    HS 5991   7.161   3.520  10.214 -0.5049 -0.9239  0.2985
   70SLPC   O21 5992   7.030   3.675  10.279  0.0800  0.4038  0.0100
   70SLPC   C21 5993   7.122   3.765  10.229 -0.9218 -0.1729  0.3055
   70SLPC   O22 5994   7.226   3.736  10.172 -0.5925  0.0889  0.4325
   70SLPC   C22 5995   7.057   3.898  10.243  0.2965 -0.0635  0.3548
   70SLPC   H2R 5996   6.948   3.892  10.222  0.3104  1.1388 -0.1597
   70SLPC   H2S 5997   7.071   3.935  10.347 -0.8939 -1.4204  1.0276
   70SLPC    C3 5998   6.975   3.430  10.285  0.3609 -0.0729 -0.4849
   70SLPC    HX 5999   6.905   3.448  10.370 -0.0563 -1.0828 -0.6022
   70SLPC    HY 6000   7.012   3.325  10.287  0.3900 -0.0536  0.2668
   70SLPC   O31 6001   6.899   3.447  10.172  0.6198 -0.0205  0.4601
   70SLPC   C31 6002   6.939   3.382  10.058 -0.3912  0.0198 -0.1113
   70SLPC   O32 6003   7.048   3.329  10.048 -0.0204  0.0390 -0.0225
   70SLPC   C32 6004   6.822   3.374   9.959 -0.2112 -0.3075  0.3206
   70SLPC   H2X 6005   6.768   3.469   9.941  1.2403  0.6852  0.9710
   70SLPC   H2Y 6006   6.764   3.294  10.010  1.7951 -1.9028  0.2436
   70SLPC   C23 6007   7.127   4.004  10.145 -0.2281  0.5988 -0.1709
   70SLPC   H3R 6008   7.137   3.960  10.044 -1.6267 -1.5415  0.5427
   70SLPC   H3S 6009   7.227   4.029  10.186  0.6530 -0.5903 -1.4975
   70SLPC   C24 6010   7.054   4.139  10.111  0.0287  0.4764  0.6593
   70SLPC   H4R 6011   7.015   4.180  10.207 -1.3767 -1.6392  1.0872
   70SLPC   H4S 6012   6.962   4.119  10.052  0.6988 -0.8586  0.0219
   70SLPC   C25 6013   7.133   4.254  10.048  0.1993 -0.4659  0.0436
   70SLPC   H5R 6014   7.220   4.277  10.112 -0.1686 -1.5055  0.9477
   70SLPC   H5S 6015   7.076   4.350  10.046 -0.5643 -0.8410  1.8472
   70SLPC   C26 6016   7.178   4.235   9.899  0.3750 -0.1820 -0.0002
   70SLPC   H6R 6017   7.086   4.229   9.837 -0.8403  2.2189  1.4108
   70SLPC   H6S 6018   7.236   4.141   9.891 -0.4760 -0.7670  0.5818
   70SLPC   C27 6019   7.274   4.346   9.840  0.3996  0.6495 -0.2367
   70SLPC   H7R 6020   7.358   4.366   9.911 -1.2468  3.6151  1.0839
   70SLPC   H7S 6021   7.210   4.436   9.831  0.1830  0.4762 -0.4226
   70SLPC   C28 6022   7.334   4.299   9.706  0.3538  0.1160  0.1858
   70SLPC   H8R 6023   7.405   4.214   9.713  0.1408 -0.1298 -0.5823
   70SLPC   H8S 6024   7.386   4.392   9.673  0.4145  0.6327  1.6419
   70SLPC   C29 6025   7.225   4.262   9.604 -0.9785 -0.4072 -0.8297
   70SLPC   H9R 6026   7.149   4.191   9.639 -0.0932  0.6256  3.7631
   70SLPC  C210 6027   7.242   4.292   9.470  0.5738  0.0044 -0.4096
   70SLPC  H10R 6028   7.161   4.257   9.403  0.4009  0.0447 -0.2211
   70SLPC  C211 6029   7.348   4.372   9.400 -0.3302  0.7788  0.3730
   70SLPC  H11R 6030   7.451   4.372   9.440 -0.2738  1.7080  0.2444
   70SLPC  H11S 6031   7.318   4.478   9.386  0.8471  0.9572 -1.0906
   70SLPC  C212 6032   7.370   4.318   9.257  0.2795  0.2267 -0.2484
   70SLPC  H12R 6033   7.444   4.238   9.248 -0.1080 -0.1131 -0.4557
   70SLPC  C213 6034   7.316   4.358   9.139  0.6056 -1.1696 -0.9146
   70SLPC  H13R 6035   7.368   4.332   9.045  0.0214 -1.3035 -1.2096
   70SLPC  C214 6036   7.210   4.471   9.123  0.1680 -0.7612 -0.9426
   70SLPC  H14R 6037   7.192   4.540   9.209  1.9833  1.4132 -2.1759
   70SLPC  H14S 6038   7.107   4.430   9.126 -1.2393  2.4364 -0.6223
   70SLPC  C215 6039   7.236   4.573   9.009  0.0321  1.1575  0.1432
   70SLPC  H15R 6040   7.337   4.614   9.027  1.0908 -1.1269 -0.2529
   70SLPC  H15S 6041   7.156   4.649   9.017 -0.4311  0.8321 -1.0854
   70SLPC  C216 6042   7.219   4.505   8.872 -0.1778 -0.6993 -0.1080
   70SLPC  H16R 6043   7.127   4.443   8.878  0.4690 -1.6451  0.4534
   70SLPC  H16S 6044   7.302   4.435   8.847  1.9863  1.2092  1.3242
   70SLPC  C217 6045   7.217   4.597   8.748  0.1578  0.9635 -0.0643
   70SLPC  H17R 6046   7.317   4.645   8.741  1.2729 -1.3129 -0.7992
   70SLPC  H17S 6047   7.132   4.669   8.754 -0.2106  0.4759  0.6218
   70SLPC  C218 6048   7.205   4.527   8.613  0.5255  0.2607  0.0446
   70SLPC  H18R 6049   7.185   4.606   8.537  2.7235 -0.4521 -1.3785
   70SLPC  H18S 6050   7.118   4.461   8.630  1.8322 -1.3144  0.8958
   70SLPC  H18T 6051   7.289   4.462   8.583  0.2232  1.4931 -4.0672
   70SLPC   C33 6052   6.866   3.316   9.818 -0.9105 -0.4730  0.3343
   70SLPC   H3X 6053   6.789   3.270   9.752  0.1675 -0.7311 -0.7984
   70SLPC   H3Y 6054   6.940   3.235   9.831  2.0950  1.9088 -0.6942
   70SLPC   C34 6055   6.924   3.436   9.731 -0.3288  0.0242  0.3843
   70SLPC   H4X 6056   7.025   3.461   9.771  1.2387  0.4283 -3.3504
   70SLPC   H4Y 6057   6.849   3.518   9.731 -1.4739 -0.9689 -1.0261
   70SLPC   C35 6058   6.922   3.396   9.584 -0.4532  0.0947 -0.0465
   70SLPC   H5X 6059   6.825   3.348   9.558  0.0553 -0.0122 -1.8641
   70SLPC   H5Y 6060   7.004   3.322   9.573 -0.0938  0.3242  0.9629
   70SLPC   C36 6061   6.940   3.514   9.483 -0.4312 -0.1650  0.2015
   70SLPC   H6X 6062   7.034   3.564   9.513 -0.6341  0.3092  0.0436
   70SLPC   H6Y 6063   6.854   3.584   9.486 -0.8049 -0.2960 -3.4525
   70SLPC   C37 6064   6.968   3.464   9.340  0.2219 -0.8309  0.1637
   70SLPC   H7X 6065   6.887   3.389   9.322 -1.1495  0.1184  2.0319
   70SLPC   H7Y 6066   7.063   3.406   9.339  0.9554  0.3520 -0.0998
   70SLPC   C38 6067   6.955   3.571   9.240  0.1136  0.8647 -0.0916
   70SLPC   H8X 6068   7.016   3.662   9.260 -0.3661  1.2764 -0.4343
   70SLPC   H8Y 6069   6.847   3.596   9.227 -0.1199 -0.4363 -0.8474
   70SLPC   C39 6070   7.008   3.531   9.102 -0.4393  0.0778  0.5551
   70SLPC   H9X 6071   6.981   3.425   9.082 -0.4036  0.3397 -0.9436
   70SLPC   H9Y 6072   7.119   3.524   9.108 -0.0900  3.1952 -0.6472
   70SLPC  C310 6073   6.962   3.615   8.987  0.5859 -0.2483  0.5290
   70SLPC  H10X 6074   6.998   3.720   9.000 -1.1099  0.1359  2.6761
   70SLPC  H10Y 6075   6.852   3.628   8.979  0.6733  0.1898 -0.0423
   70SLPC  C311 6076   7.007   3.566   8.841  0.6844 -0.4002 -0.3141
   70SLPC  H11X 6077   6.945   3.476   8.823  1.8890 -1.2087 -0.5985
   70SLPC  H11Y 6078   7.113   3.541   8.862  0.9190  1.3221  0.7829
   70SLPC  C312 6079   7.027   3.678   8.736 -0.2579 -0.2871 -0.1241
   70SLPC  H12X 6080   7.068   3.767   8.787  1.8466  0.6841 -3.2350
   70SLPC  H12Y 6081   6.932   3.711   8.690 -0.5121 -0.8772 -0.0400
   70SLPC  C313 6082   7.133   3.644   8.641 -0.5298  0.5082  0.0917
   70SLPC  H13X 6083   7.224   3.606   8.695 -1.0285 -1.9256 -0.6424
   70SLPC  H13Y 6084   7.168   3.738   8.595  3.0159 -0.9636 -0.6092
   70SLPC  C314 6085   7.093   3.553   8.525  1.0723  0.5352  0.8093
   70SLPC  H14X 6086   7.003   3.586   8.469  0.4855 -0.2596  1.2641
   70SLPC  H14Y 6087   7.061   3.456   8.569 -1.2140  1.0720  0.4731
   70SLPC  C315 6088   7.208   3.533   8.417  0.1071  0.6247 -0.5966
   70SLPC  H15X 6089   7.186   3.454   8.342  2.1468 -1.2353  0.6260
   70SLPC  H15Y 6090   7.293   3.490   8.475 -1.7843  0.0713  1.9655
   70SLPC  C316 6091   7.261   3.659   8.341 -0.0061 -1.2296  0.1197
   70SLPC  H16X 6092   7.283   3.735   8.419 -0.0729 -0.4887 -0.5668
   70SLPC  H16Y 6093   7.171   3.699   8.288  0.5197  1.2517  0.9810
   70SLPC  C317 6094   7.374   3.633   8.240  0.5425 -0.4615 -0.1035
   70SLPC  H17X 6095   7.458   3.606   8.308  0.6848  0.8873  0.2720
   70SLPC  H17Y 6096   7.414   3.728   8.199 -1.4058  1.7007  2.7164
   70SLPC  C318 6097   7.340   3.523   8.140  0.1838 -0.0524  0.5098
   70SLPC  H18X 6098   7.417   3.517   8.061 -0.6644 -1.0188 -0.2720
   70SLPC  H18Y 6099   7.241   3.545   8.095 -1.9666 -1.5303  4.0931
   70SLPC  H18Z 6100   7.335   3.424   8.190  2.7802 -0.6326 -0.2294
   71SLPC     N 6101   0.428   1.308  11.017  1.5305  0.0331 -0.0067
   71SLPC   C13 6102   0.444   1.379  11.148 -0.0127 -0.4387 -0.3923
   71SLPC  H13A 6103   0.386   1.331  11.225 -2.4018  3.2870  0.4435
   71SLPC  H13B 6104   0.549   1.391  11.169 -0.4246  1.4670  0.9088
   71SLPC  H13C 6105   0.397   1.476  11.133  1.4102  0.6076  1.5350
   71SLPC   C14 6106   0.281   1.296  10.983 -0.0374 -0.3731 -0.4354
   71SLPC  H14A 6107   0.271   1.238  10.893  0.6833  0.5662 -1.1462
   71SLPC  H14B 6108   0.225   1.249  11.062  1.3126  0.4722  1.1002
   71SLPC  H14C 6109   0.239   1.395  10.972 -0.7736 -0.0466  3.6898
   71SLPC   C15 6110   0.469   1.163  11.028  0.3905 -0.3696  0.2843
   71SLPC  H15A 6111   0.434   1.102  10.946  0.6898  0.8349 -0.7735
   71SLPC  H15B 6112   0.577   1.156  11.034  0.4530  0.2178 -0.0975
   71SLPC  H15C 6113   0.439   1.110  11.117  2.9137 -1.1309  0.7742
   71SLPC   C12 6114   0.500   1.369  10.896  0.3312  0.2587  0.0163
   71SLPC  H12A 6115   0.460   1.468  10.878 -1.7061 -0.5880 -0.3849
   71SLPC  H12B 6116   0.472   1.320  10.804 -1.9565  0.1448  0.6954
   71SLPC   C11 6117   0.653   1.388  10.912 -0.9891 -0.5065 -0.3265
   71SLPC  H11A 6118   0.665   1.416  11.019 -2.8912 -2.2977  0.4248
   71SLPC  H11B 6119   0.687   1.458  10.832 -1.1258 -0.7299 -0.5824
   71SLPC     P 6120   0.795   1.209  10.765  0.1201 -0.2316  0.1594
   71SLPC   O13 6121   0.916   1.291  10.746 -0.0285 -0.0346 -0.2770
   71SLPC   O14 6122   0.806   1.061  10.763  0.0497  0.2519 -0.2569
   71SLPC   O12 6123   0.717   1.259  10.898  0.3039  0.1650  0.3865
   71SLPC   O11 6124   0.710   1.252  10.633 -0.2142 -0.2880 -0.0343
   71SLPC    C1 6125   0.774   1.310  10.523 -0.4511 -0.5018 -0.0241
   71SLPC    HA 6126   0.773   1.420  10.540 -1.0397 -0.5160  0.0686
   71SLPC    HB 6127   0.879   1.275  10.517  0.5676  1.7352  2.6340
   71SLPC    C2 6128   0.696   1.290  10.388 -0.0581 -0.6776  0.4140
   71SLPC    HS 6129   0.589   1.289  10.417  0.0378 -1.8053  0.8040
   71SLPC   O21 6130   0.737   1.170  10.312 -0.1998 -0.1090 -0.5756
   71SLPC   C21 6131   0.652   1.135  10.224 -0.3506  0.1757  0.4799
   71SLPC   O22 6132   0.531   1.161  10.224 -0.7844  0.3306  0.0338
   71SLPC   C22 6133   0.724   1.054  10.117  0.0115 -0.4094  0.5548
   71SLPC   H2R 6134   0.777   1.126  10.051 -1.8315 -0.4104 -1.0135
   71SLPC   H2S 6135   0.791   0.976  10.160 -1.3107 -2.2370 -0.5737
   71SLPC    C3 6136   0.720   1.419  10.300  0.3767 -0.3044  0.1774
   71SLPC    HX 6137   0.824   1.414  10.262  0.7884  0.6945  1.0972
   71SLPC    HY 6138   0.722   1.511  10.363 -3.5202  1.1261 -1.4728
   71SLPC   O31 6139   0.631   1.424  10.190  0.4008  0.5306  0.1761
   71SLPC   C31 6140   0.517   1.470  10.221  0.1695 -0.4973  0.8379
   71SLPC   O32 6141   0.484   1.522  10.326  0.3567 -0.4636 -0.0112
   71SLPC   C32 6142   0.429   1.459  10.104 -0.0187 -0.2845  0.0644
   71SLPC   H2X 6143   0.406   1.351  10.086 -3.6460  0.1422  1.4121
   71SLPC   H2Y 6144   0.483   1.523  10.031  1.8544 -1.3218  0.4764
   71SLPC   C23 6145   0.624   0.974  10.026  0.0664  0.4575  0.0869
   71SLPC   H3R 6146   0.535   0.941  10.083  0.2215 -0.3524 -0.1252
   71SLPC   H3S 6147   0.681   0.885   9.990 -2.2983 -1.2966  0.4187
   71SLPC   C24 6148   0.567   1.050   9.900  0.6227 -0.0008  0.1872
   71SLPC   H4R 6149   0.649   1.079   9.831  0.5549  1.9450  0.8664
   71SLPC   H4S 6150   0.541   1.153   9.933 -1.6801 -0.3733 -0.3050
   71SLPC   C25 6151   0.442   0.998   9.825  0.1511 -0.1666  0.1578
   71SLPC   H5R 6152   0.363   0.985   9.902  0.0578  1.2204  0.3260
   71SLPC   H5S 6153   0.474   0.897   9.791  0.8261 -0.6157  1.9659
   71SLPC   C26 6154   0.387   1.091   9.719 -0.3686  0.0975  0.2210
   71SLPC   H6R 6155   0.460   1.118   9.640 -2.3329  0.8340 -1.4311
   71SLPC   H6S 6156   0.375   1.187   9.772  1.4426  0.7486 -0.4639
   71SLPC   C27 6157   0.260   1.038   9.649  0.0943 -0.0497  1.0443
   71SLPC   H7R 6158   0.190   0.995   9.724 -0.2178 -0.3766  0.5758
   71SLPC   H7S 6159   0.301   0.959   9.582 -2.1682 -1.8204  1.5998
   71SLPC   C28 6160   0.195   1.141   9.556 -0.3425  0.5220 -0.4728
   71SLPC   H8R 6161   0.182   1.227   9.626  1.2613 -1.2974  2.2880
   71SLPC   H8S 6162   0.094   1.112   9.520 -0.7724  1.1345  0.1969
   71SLPC   C29 6163   0.289   1.182   9.444 -0.4563  0.0032  0.6867
   71SLPC   H9R 6164   0.366   1.255   9.472 -0.0848 -0.6218  1.2921
   71SLPC  C210 6165   0.299   1.122   9.326  0.0678  0.4195 -0.1122
   71SLPC  H10R 6166   0.362   1.169   9.249  1.0375  0.8966  0.9529
   71SLPC  C211 6167   0.223   0.999   9.284 -0.1718 -0.0699  0.4079
   71SLPC  H11R 6168   0.118   1.028   9.263  0.3817  1.8438  0.0914
   71SLPC  H11S 6169   0.207   0.930   9.369  1.2609 -0.1514  0.6215
   71SLPC  C212 6170   0.285   0.916   9.173  0.3127  0.7263 -0.0351
   71SLPC  H12R 6171   0.374   0.859   9.203 -0.1397 -1.0253 -1.8106
   71SLPC  C213 6172   0.230   0.894   9.056  0.9296  0.6770 -0.4014
   71SLPC  H13R 6173   0.288   0.821   8.999  0.6387 -1.2184  1.5832
   71SLPC  C214 6174   0.102   0.957   9.000  0.2543 -0.4390  0.0623
   71SLPC  H14R 6175   0.067   1.040   9.065  0.2065 -0.8599  0.5754
   71SLPC  H14S 6176   0.030   0.872   8.999  1.3784 -1.4310  0.6480
   71SLPC  C215 6177   0.104   1.011   8.858 -0.4555  0.4764 -0.3582
   71SLPC  H15R 6178   0.145   1.114   8.858  1.2167 -0.1074 -2.6993
   71SLPC  H15S 6179   0.002   1.007   8.814 -0.5926 -0.3259  0.0122
   71SLPC  C216 6180   0.189   0.920   8.767  0.1253  0.2767  0.3394
   71SLPC  H16R 6181   0.152   0.815   8.766 -2.1983  1.0286  0.9157
   71SLPC  H16S 6182   0.295   0.903   8.794  0.1592 -1.8106 -0.9127
   71SLPC  C217 6183   0.188   0.960   8.616 -0.8537 -0.6314  0.1457
   71SLPC  H17R 6184   0.233   1.062   8.610 -0.5673 -0.6344  1.6627
   71SLPC  H17S 6185   0.081   0.977   8.591 -0.2633 -0.8429 -2.9147
   71SLPC  C218 6186   0.258   0.862   8.526 -0.5131  0.6357 -0.3419
   71SLPC  H18R 6187   0.252   0.889   8.418  1.7383  2.3978 -0.1115
   71SLPC  H18S 6188   0.222   0.758   8.541  1.7712 -0.4925 -1.9449
   71SLPC  H18T 6189   0.368   0.864   8.544 -0.4310 -0.2237 -0.6855
   71SLPC   C33 6190   0.289   1.520  10.127 -0.9469 -0.0358  0.5452
   71SLPC   H3X 6191   0.299   1.631  10.134  1.5418  0.1002 -2.7185
   71SLPC   H3Y 6192   0.243   1.476  10.218 -1.1008 -1.0564 -0.0065
   71SLPC   C34 6193   0.195   1.503  10.010  0.3653  0.6325 -0.1736
   71SLPC   H4X 6194   0.234   1.570   9.931  0.4186  0.9939  0.1571
   71SLPC   H4Y 6195   0.097   1.532  10.056 -0.8684 -1.0070 -1.6485
   71SLPC   C35 6196   0.170   1.364   9.964  0.2923 -0.3588  0.4114
   71SLPC   H5X 6197   0.115   1.302  10.038  0.8208  0.5905  1.6239
   71SLPC   H5Y 6198   0.268   1.327   9.928  0.9063  1.8846 -0.4217
   71SLPC   C36 6199   0.085   1.355   9.828 -0.2284  0.5982  0.4324
   71SLPC   H6X 6200   0.085   1.246   9.808 -0.8169  0.4990  0.9171
   71SLPC   H6Y 6201   0.139   1.410   9.748  0.0284 -0.2225  0.0238
   71SLPC   C37 6202  -0.054   1.425   9.823  0.2852 -0.1426 -0.0386
   71SLPC   H7X 6203  -0.050   1.530   9.859  2.6940  0.1900 -1.0653
   71SLPC   H7Y 6204  -0.129   1.364   9.879  1.4757 -0.7000  1.0053
   71SLPC   C38 6205  -0.091   1.421   9.675 -0.0442 -0.4563  0.1719
   71SLPC   H8X 6206  -0.093   1.317   9.638 -1.4314 -0.7037  0.8655
   71SLPC   H8Y 6207  -0.015   1.487   9.628  0.0850  0.0266  1.0340
   71SLPC   C39 6208  -0.230   1.501   9.658 -0.1228  0.3518 -0.3368
   71SLPC   H9X 6209  -0.222   1.604   9.698  0.5821  0.0508  0.3327
   71SLPC   H9Y 6210  -0.309   1.446   9.715  1.8143 -1.6628  0.5465
   71SLPC  C310 6211  -0.281   1.511   9.512 -0.0926  0.2885  0.2474
   71SLPC  H10X 6212  -0.331   1.416   9.484  1.2466  0.5551 -3.7775
   71SLPC  H10Y 6213  -0.192   1.523   9.447  0.8455  0.0481  1.4515
   71SLPC  C311 6214  -0.368   1.632   9.470  0.4018 -0.1390  0.0307
   71SLPC  H11X 6215  -0.302   1.722   9.471  0.8406 -0.4203 -1.2989
   71SLPC  H11Y 6216  -0.455   1.621   9.538  0.0032 -4.4577 -0.9322
   71SLPC  C312 6217  -0.427   1.608   9.330  0.0710 -0.1110  0.0004
   71SLPC  H12X 6218  -0.506   1.685   9.313 -1.5261 -1.8783 -0.9521
   71SLPC  H12Y 6219  -0.482   1.512   9.322  0.4245 -0.2213 -1.2361
   71SLPC  C313 6220  -0.323   1.605   9.216  0.1816 -0.0549  0.5261
   71SLPC  H13X 6221  -0.267   1.509   9.215 -0.0516 -0.2114  1.4517
   71SLPC  H13Y 6222  -0.237   1.673   9.234  0.2766 -0.4587  1.6737
   71SLPC  C314 6223  -0.374   1.639   9.076  0.9726 -0.3664 -0.9219
   71SLPC  H14X 6224  -0.461   1.571   9.067 -0.0614  0.5884  1.1495
   71SLPC  H14Y 6225  -0.291   1.616   9.005  2.1611  1.7142 -0.2881
   71SLPC  C315 6226  -0.415   1.776   9.045 -0.2853 -0.1213 -0.1674
   71SLPC  H15X 6227  -0.327   1.838   9.070 -0.7017  0.2502  0.4069
   71SLPC  H15Y 6228  -0.496   1.783   9.121  0.0713  0.7649  0.1399
   71SLPC  C316 6229  -0.460   1.804   8.905  0.0528 -0.6206  0.1623
   71SLPC  H16X 6230  -0.559   1.758   8.885 -0.6864  1.1697 -0.4547
   71SLPC  H16Y 6231  -0.395   1.752   8.832  0.0305 -0.9851  0.4007
   71SLPC  C317 6232  -0.450   1.958   8.885 -0.0127 -0.0418 -0.0968
   71SLPC  H17X 6233  -0.361   1.996   8.939  0.2315 -0.9949  0.1920
   71SLPC  H17Y 6234  -0.528   2.016   8.939 -0.4280  1.1235 -1.8403
   71SLPC  C318 6235  -0.449   1.996   8.737 -0.0990  0.0499  0.1155
   71SLPC  H18X 6236  -0.349   1.969   8.696  0.9240  1.2263  1.7327
   71SLPC  H18Y 6237  -0.461   2.103   8.712  1.1017  0.1536 -0.0637
   71SLPC  H18Z 6238  -0.534   1.950   8.682  0.4874  0.1579 -0.8908
   72SLPC     N 6239   6.449   2.865  11.147 -0.1739  0.2553  0.8210
   72SLPC   C13 6240   6.484   2.732  11.199 -0.5604  0.3009 -0.6385
   72SLPC  H13A 6241   6.397   2.679  11.235  0.8263 -1.5431  0.1596
   72SLPC  H13B 6242   6.533   2.671  11.125  0.8198 -0.2460  0.6673
   72SLPC  H13C 6243   6.557   2.738  11.279 -0.7652  0.2312 -0.4475
   72SLPC   C14 6244   6.575   2.942  11.129  0.1777  0.1213  0.0087
   72SLPC  H14A 6245   6.551   3.044  11.103  0.7926  0.0722 -0.7734
   72SLPC  H14B 6246   6.632   2.952  11.221  0.8662  0.1362 -0.4131
   72SLPC  H14C 6247   6.627   2.887  11.052 -3.6389 -2.5367 -0.9732
   72SLPC   C15 6248   6.369   2.940  11.251  0.0620 -0.6205  0.1418
   72SLPC  H15A 6249   6.313   3.018  11.202 -0.1475  0.2556  1.6972
   72SLPC  H15B 6250   6.291   2.881  11.298 -2.9278  2.1654 -0.9698
   72SLPC  H15C 6251   6.431   2.976  11.332 -0.8575  1.5489 -0.0595
   72SLPC   C12 6252   6.375   2.845  11.020 -0.0455  0.9201  0.0140
   72SLPC  H12A 6253   6.274   2.809  11.035 -0.2554  1.5856  0.2466
   72SLPC  H12B 6254   6.425   2.767  10.965 -0.1349  2.3276 -2.1913
   72SLPC   C11 6255   6.364   2.969  10.925 -0.1608 -0.3953 -0.0658
   72SLPC  H11A 6256   6.317   3.056  10.977  1.7664  1.0375 -0.5917
   72SLPC  H11B 6257   6.289   2.940  10.849 -0.7834 -0.1471  0.4409
   72SLPC     P 6258   6.556   2.946  10.743  0.3676 -0.0800 -0.0440
   72SLPC   O13 6259   6.665   3.037  10.701 -0.0982 -0.2579 -0.2814
   72SLPC   O14 6260   6.601   2.808  10.776  0.3808  0.9144 -0.2319
   72SLPC   O12 6261   6.492   3.012  10.870 -0.2993 -0.9328  0.1703
   72SLPC   O11 6262   6.438   2.938  10.650 -0.0700 -0.1176 -0.2188
   72SLPC    C1 6263   6.411   3.044  10.555  0.3724 -0.2029  0.5701
   72SLPC    HA 6264   6.303   3.044  10.533  0.2183 -0.1342  1.2991
   72SLPC    HB 6265   6.439   3.147  10.588  0.4401 -0.0448  0.0259
   72SLPC    C2 6266   6.488   3.024  10.420 -0.0477 -0.3114 -0.2988
   72SLPC    HS 6267   6.595   3.036  10.448 -0.8118  2.1672  1.9683
   72SLPC   O21 6268   6.433   3.125  10.336  0.1572 -0.5772 -0.0266
   72SLPC   C21 6269   6.507   3.160  10.237  0.4252  0.0614 -0.8925
   72SLPC   O22 6270   6.632   3.157  10.240  0.5317  0.4979 -0.1444
   72SLPC   C22 6271   6.419   3.232  10.132  0.0188 -0.5218 -0.3412
   72SLPC   H2R 6272   6.355   3.156  10.081 -3.2009  1.3350  0.6633
   72SLPC   H2S 6273   6.348   3.300  10.183 -0.1268 -1.2404  0.4476
   72SLPC    C3 6274   6.459   2.882  10.371 -0.4029 -0.1087  0.5687
   72SLPC    HX 6275   6.348   2.889  10.370 -0.4926 -0.3028  3.1090
   72SLPC    HY 6276   6.490   2.816  10.455 -0.0279 -0.8757 -0.1523
   72SLPC   O31 6277   6.517   2.859  10.242 -0.2868 -0.5192 -0.0007
   72SLPC   C31 6278   6.621   2.767  10.233  0.1323 -1.2425  0.6284
   72SLPC   O32 6279   6.670   2.698  10.319 -0.1659  0.5122 -0.5311
   72SLPC   C32 6280   6.688   2.764  10.088 -0.6707  0.7466 -0.3208
   72SLPC   H2X 6281   6.732   2.864  10.068 -0.8926  0.4794 -2.3832
   72SLPC   H2Y 6282   6.600   2.748  10.022  0.1705 -1.4465 -0.9868
   72SLPC   C23 6283   6.500   3.309  10.023  0.5059 -0.1458  0.0200
   72SLPC   H3R 6284   6.564   3.236   9.968  1.4731  1.8816 -1.6595
   72SLPC   H3S 6285   6.571   3.374  10.078  0.4146  2.4827 -2.7169
   72SLPC   C24 6286   6.407   3.393   9.926 -0.4889  0.0216  0.2899
   72SLPC   H4R 6287   6.332   3.453   9.981 -0.9471 -0.4380  0.1763
   72SLPC   H4S 6288   6.360   3.326   9.851  1.0011  1.3549 -1.9769
   72SLPC   C25 6289   6.499   3.484   9.849 -0.1993  0.5415  0.5100
   72SLPC   H5R 6290   6.588   3.427   9.814 -0.9303  0.8183 -1.9931
   72SLPC   H5S 6291   6.528   3.570   9.913 -0.5390  1.8535 -1.0256
   72SLPC   C26 6292   6.442   3.549   9.730 -0.2101 -0.0663 -0.5682
   72SLPC   H6R 6293   6.355   3.610   9.763 -1.5201 -0.9673 -2.1924
   72SLPC   H6S 6294   6.409   3.474   9.655 -2.9691  0.1102  0.3523
   72SLPC   C27 6295   6.549   3.644   9.670  0.8457 -1.1490  0.5914
   72SLPC   H7R 6296   6.631   3.577   9.638  1.0926 -0.9338  0.7626
   72SLPC   H7S 6297   6.603   3.710   9.742  0.7085 -2.2490  1.7448
   72SLPC   C28 6298   6.490   3.730   9.562  0.1009  0.8328  0.4704
   72SLPC   H8R 6299   6.422   3.806   9.605 -1.7447 -0.5877  0.2176
   72SLPC   H8S 6300   6.422   3.668   9.500 -0.4099 -0.3803  2.1697
   72SLPC   C29 6301   6.597   3.795   9.474 -0.3209 -0.0083 -0.7303
   72SLPC   H9R 6302   6.696   3.749   9.463 -0.2212  0.3858 -1.4671
   72SLPC  C210 6303   6.572   3.902   9.395  0.2757 -0.1990  0.1433
   72SLPC  H10R 6304   6.651   3.942   9.330 -0.3587 -3.0687 -2.6350
   72SLPC  C211 6305   6.440   3.978   9.378  0.5659 -0.1562 -0.3379
   72SLPC  H11R 6306   6.351   3.930   9.424  0.5275  0.1747 -0.0632
   72SLPC  H11S 6307   6.420   3.978   9.269 -0.7223  2.1540 -0.1460
   72SLPC  C212 6308   6.458   4.123   9.432 -0.1188 -0.1265  0.0045
   72SLPC  H12R 6309   6.475   4.134   9.540 -1.1878  3.7255 -0.0434
   72SLPC  C213 6310   6.459   4.236   9.356 -0.4460 -0.0411  0.6973
   72SLPC  H13R 6311   6.483   4.334   9.401  2.3021 -0.4947  0.4172
   72SLPC  C214 6312   6.445   4.243   9.203  0.0617 -0.3966  0.3824
   72SLPC  H14R 6313   6.512   4.167   9.156  0.7029  0.6760 -0.4844
   72SLPC  H14S 6314   6.474   4.342   9.161 -0.2782  0.5145  2.2186
   72SLPC  C215 6315   6.301   4.214   9.146  0.7052 -0.5826  0.7695
   72SLPC  H15R 6316   6.222   4.268   9.204  0.3307 -1.0024  0.6508
   72SLPC  H15S 6317   6.274   4.108   9.166 -0.9674  0.1522  2.8623
   72SLPC  C216 6318   6.284   4.245   8.991 -0.1870  0.3871  0.6465
   72SLPC  H16R 6319   6.370   4.197   8.940 -0.7671 -0.0337  0.0550
   72SLPC  H16S 6320   6.297   4.355   8.995  0.3892  0.3022  1.2769
   72SLPC  C217 6321   6.145   4.209   8.928  0.4836  0.4167 -0.1733
   72SLPC  H17R 6322   6.142   4.224   8.818 -2.3745 -1.2414 -0.4253
   72SLPC  H17S 6323   6.064   4.275   8.967 -1.4701 -1.5011 -0.8276
   72SLPC  C218 6324   6.097   4.065   8.959 -0.1022 -0.0427 -0.0239
   72SLPC  H18R 6325   6.077   4.037   9.065  0.8685  0.8589  0.4235
   72SLPC  H18S 6326   6.166   3.989   8.915 -1.7977 -1.7751  0.2031
   72SLPC  H18T 6327   5.992   4.049   8.928  0.1945  0.8591 -1.6385
   72SLPC   C33 6328   6.804   2.661  10.089 -0.1763 -0.0275  1.0886
   72SLPC   H3X 6329   6.770   2.556  10.088  0.9163 -0.4839 -2.1950
   72SLPC   H3Y 6330   6.870   2.676  10.177  1.5364 -2.6186  0.3617
   72SLPC   C34 6331   6.882   2.681   9.958 -0.4264 -0.6199  0.0314
   72SLPC   H4X 6332   6.964   2.606   9.972 -1.9474 -2.3341  0.0831
   72SLPC   H4Y 6333   6.924   2.783   9.956 -1.8547  0.0425  1.4156
   72SLPC   C35 6334   6.817   2.646   9.825  0.0167  0.3040 -0.6246
   72SLPC   H5X 6335   6.716   2.693   9.826 -0.5552 -0.8121 -2.1363
   72SLPC   H5Y 6336   6.817   2.536   9.813  1.2272  0.2948 -0.6576
   72SLPC   C36 6337   6.894   2.697   9.703  0.2243  0.0720  0.1848
   72SLPC   H6X 6338   7.002   2.675   9.693  0.7933  1.4319  2.4916
   72SLPC   H6Y 6339   6.886   2.808   9.703 -1.0409  0.0001 -0.2700
   72SLPC   C37 6340   6.829   2.656   9.567  0.0936 -0.1323  0.2589
   72SLPC   H7X 6341   6.720   2.674   9.582  0.0872  1.4952 -1.4867
   72SLPC   H7Y 6342   6.847   2.547   9.551 -0.0713 -0.0313 -0.6554
   72SLPC   C38 6343   6.870   2.727   9.440 -0.3544  0.3288 -0.3160
   72SLPC   H8X 6344   6.955   2.678   9.388 -0.4966 -1.5782  1.1651
   72SLPC   H8Y 6345   6.890   2.835   9.456 -0.4721  0.2690  0.2578
   72SLPC   C39 6346   6.769   2.718   9.325 -0.2197  0.2662  0.1981
   72SLPC   H9X 6347   6.670   2.757   9.358 -0.8133 -0.4441 -0.6859
   72SLPC   H9Y 6348   6.753   2.615   9.288 -0.2792  0.1998  0.4058
   72SLPC  C310 6349   6.809   2.805   9.203  0.9715 -0.6385 -0.3146
   72SLPC  H10X 6350   6.907   2.766   9.167  1.1908  2.4254 -3.6008
   72SLPC  H10Y 6351   6.815   2.912   9.230 -2.3978 -0.6500  0.9171
   72SLPC  C311 6352   6.711   2.781   9.085  0.1893  0.2876  0.9143
   72SLPC  H11X 6353   6.609   2.808   9.120  0.2234  0.3380  0.9743
   72SLPC  H11Y 6354   6.710   2.674   9.055  3.6779 -0.1152  1.8952
   72SLPC  C312 6355   6.748   2.872   8.968  0.6481  0.4911  0.4456
   72SLPC  H12X 6356   6.846   2.836   8.930  1.7803  0.7871  2.8466
   72SLPC  H12Y 6357   6.772   2.976   9.000  0.9486 -0.3025  3.0861
   72SLPC  C313 6358   6.641   2.847   8.861  0.4787  0.2691 -0.1475
   72SLPC  H13X 6359   6.544   2.880   8.904  0.0845 -1.3102  0.2439
   72SLPC  H13Y 6360   6.625   2.741   8.833  0.7017  0.7429 -2.1974
   72SLPC  C314 6361   6.667   2.920   8.729  0.1463  0.6271  0.0340
   72SLPC  H14X 6362   6.589   2.892   8.656  0.3993 -0.4298  0.1457
   72SLPC  H14Y 6363   6.763   2.881   8.689  0.6186  1.1911  0.5943
   72SLPC  C315 6364   6.689   3.068   8.736 -0.0847 -0.4017 -0.6524
   72SLPC  H15X 6365   6.688   3.122   8.639  0.6469 -3.0481 -2.2178
   72SLPC  H15Y 6366   6.787   3.076   8.788 -0.9645  1.4731  0.8627
   72SLPC  C316 6367   6.594   3.142   8.837 -0.5283  0.2362 -0.1574
   72SLPC  H16X 6368   6.591   3.091   8.935  1.2597  0.9624  0.3133
   72SLPC  H16Y 6369   6.495   3.141   8.786 -1.4708  0.7303  1.6006
   72SLPC  C317 6370   6.627   3.287   8.865 -0.6355 -0.8085 -0.1363
   72SLPC  H17X 6371   6.537   3.334   8.909 -0.3931  0.1354 -0.6329
   72SLPC  H17Y 6372   6.650   3.334   8.767 -1.0343 -1.9493 -0.7962
   72SLPC  C318 6373   6.747   3.315   8.962 -0.2072  0.0683  0.3183
   72SLPC  H18X 6374   6.832   3.249   8.932  0.1642  0.7844 -0.2402
   72SLPC  H18Y 6375   6.724   3.302   9.070  1.7363  1.0560  0.8994
   72SLPC  H18Z 6376   6.785   3.419   8.958 -2.9889  1.1774  0.5782
   73SLPC     N 6377   1.815   0.400  11.093 -0.0190 -0.1484 -0.0019
   73SLPC   C13 6378   1.852   0.441  11.232  0.7317 -0.3342  0.1789
   73SLPC  H13A 6379   1.954   0.417  11.257  1.7039  1.5423 -1.7008
   73SLPC  H13B 6380   1.822   0.543  11.251 -0.8213 -0.6271 -0.5448
   73SLPC  H13C 6381   1.799   0.381  11.305 -0.7909 -2.3116 -2.3851
   73SLPC   C14 6382   1.674   0.439  11.067 -0.0432 -0.1346 -0.4807
   73SLPC  H14A 6383   1.613   0.385  11.138  0.8139  0.4310  0.7248
   73SLPC  H14B 6384   1.656   0.545  11.078 -2.1329 -0.4021 -0.9579
   73SLPC  H14C 6385   1.652   0.420  10.963  0.7123 -0.6080 -0.5601
   73SLPC   C15 6386   1.830   0.250  11.091 -0.0479 -0.8567  0.1426
   73SLPC  H15A 6387   1.764   0.218  11.170 -0.5007 -0.4040 -0.0434
   73SLPC  H15B 6388   1.798   0.220  10.992 -3.0108  1.4071  0.2551
   73SLPC  H15C 6389   1.930   0.215  11.110  0.5813  0.4602 -0.5809
   73SLPC   C12 6390   1.905   0.456  10.990 -0.4639  0.0491 -0.0979
   73SLPC  H12A 6391   2.007   0.431  11.015 -0.7105 -1.7048 -0.6520
   73SLPC  H12B 6392   1.909   0.563  10.982 -0.6269 -0.0269 -1.4303
   73SLPC   C11 6393   1.873   0.423  10.837 -0.5763 -0.7084 -0.8218
   73SLPC  H11A 6394   1.865   0.313  10.833 -0.3402 -0.8253  0.9216
   73SLPC  H11B 6395   1.964   0.458  10.783 -1.3606  0.7483 -1.2666
   73SLPC     P 6396   1.743   0.632  10.747 -0.3000 -0.2005  0.2502
   73SLPC   O13 6397   1.605   0.668  10.721  0.3854 -0.6371 -0.1544
   73SLPC   O14 6398   1.828   0.716  10.838  0.2612 -0.0824  0.5036
   73SLPC   O12 6399   1.746   0.486  10.799 -0.3438  0.5049 -0.5551
   73SLPC   O11 6400   1.825   0.607  10.611 -0.0765 -0.5376  0.9949
   73SLPC    C1 6401   1.790   0.509  10.506  0.0088  0.2703  0.5416
   73SLPC    HA 6402   1.868   0.502  10.427  0.9626 -1.9053  1.5880
   73SLPC    HB 6403   1.790   0.408  10.554 -1.6481  0.5237  1.1413
   73SLPC    C2 6404   1.653   0.539  10.437 -1.1216 -0.2955  0.9288
   73SLPC    HS 6405   1.577   0.539  10.518 -3.0174 -1.2071 -0.7457
   73SLPC   O21 6406   1.615   0.438  10.336  0.4106 -0.4338 -0.0385
   73SLPC   C21 6407   1.488   0.446  10.301  0.3719 -0.4852 -0.3589
   73SLPC   O22 6408   1.407   0.521  10.353  0.6889  0.3591 -0.5253
   73SLPC   C22 6409   1.457   0.356  10.181 -0.0153 -0.7029 -0.1795
   73SLPC   H2R 6410   1.546   0.337  10.117 -0.9231 -3.0385 -0.8602
   73SLPC   H2S 6411   1.437   0.259  10.231  2.3902 -2.5443 -2.5212
   73SLPC    C3 6412   1.668   0.690  10.369  0.2305  0.2172 -0.1827
   73SLPC    HX 6413   1.685   0.749  10.462 -1.5805  1.0905 -0.3486
   73SLPC    HY 6414   1.572   0.724  10.324  0.0847  1.0579  0.7099
   73SLPC   O31 6415   1.777   0.694  10.270  0.4107  0.6362 -0.4554
   73SLPC   C31 6416   1.742   0.658  10.147 -0.6485 -0.2893 -0.3070
   73SLPC   O32 6417   1.638   0.612  10.108 -0.0667 -0.3860 -0.1469
   73SLPC   C32 6418   1.866   0.681  10.052 -0.5505 -0.5418  0.0675
   73SLPC   H2X 6419   1.956   0.629  10.089 -0.2832 -0.6026 -0.6431
   73SLPC   H2Y 6420   1.889   0.788  10.035 -0.5266 -0.7688 -1.4678
   73SLPC   C23 6421   1.330   0.408  10.116  0.2883  0.0155  0.0417
   73SLPC   H3R 6422   1.350   0.509  10.074  1.8859 -0.4737 -0.4438
   73SLPC   H3S 6423   1.242   0.412  10.184 -0.9600  1.2211 -1.5820
   73SLPC   C24 6424   1.281   0.316   9.996  0.0018  0.0574 -0.0846
   73SLPC   H4R 6425   1.239   0.228  10.050 -1.2195  0.5264 -0.2313
   73SLPC   H4S 6426   1.368   0.283   9.935  1.2748  3.0457 -0.0403
   73SLPC   C25 6427   1.171   0.381   9.908 -0.5556 -0.6823  0.0842
   73SLPC   H5R 6428   1.213   0.484   9.899  0.5323 -1.0537  0.6708
   73SLPC   H5S 6429   1.074   0.377   9.961 -0.3484  1.9550  0.7862
   73SLPC   C26 6430   1.154   0.322   9.770 -0.0777  0.7501 -0.0463
   73SLPC   H6R 6431   1.120   0.216   9.771  1.8645  0.0317 -1.5453
   73SLPC   H6S 6432   1.255   0.313   9.722 -0.5574  1.3009 -1.2005
   73SLPC   C27 6433   1.058   0.396   9.681  0.7375 -0.4128  0.0881
   73SLPC   H7R 6434   1.077   0.505   9.684  1.6856 -0.5348 -0.9466
   73SLPC   H7S 6435   0.958   0.384   9.727  1.1614 -0.9980  0.8677
   73SLPC   C28 6436   1.061   0.355   9.531  0.7520  0.4029  0.2078
   73SLPC   H8R 6437   1.029   0.249   9.518  0.6698  0.6226 -1.6529
   73SLPC   H8S 6438   1.153   0.366   9.470 -0.1567  0.3450 -1.2442
   73SLPC   C29 6439   0.948   0.439   9.476 -0.3807 -0.0224 -0.1041
   73SLPC   H9R 6440   0.851   0.433   9.527 -0.4139  0.6277 -0.0810
   73SLPC  C210 6441   0.941   0.513   9.364 -0.0535 -1.1669 -0.3453
   73SLPC  H10R 6442   0.853   0.576   9.346  1.2721  1.9613  2.8523
   73SLPC  C211 6443   1.040   0.511   9.252 -0.1406  0.7057 -0.7830
   73SLPC  H11R 6444   1.101   0.418   9.264 -2.1537 -0.4115  1.8839
   73SLPC  H11S 6445   1.108   0.598   9.262  0.7930 -0.2029  1.5954
   73SLPC  C212 6446   0.988   0.499   9.115  0.3420  0.6842  0.5452
   73SLPC  H12R 6447   0.898   0.436   9.106  0.5897  0.3258  0.5981
   73SLPC  C213 6448   1.032   0.559   8.999  0.8805 -0.1948 -0.1638
   73SLPC  H13R 6449   0.986   0.515   8.909 -0.6661  2.0114 -0.5514
   73SLPC  C214 6450   1.154   0.643   8.986  0.0912  0.0857  0.2856
   73SLPC  H14R 6451   1.215   0.616   9.075 -1.0147 -2.2683  0.3951
   73SLPC  H14S 6452   1.133   0.752   8.987  3.7797  0.9384 -0.5394
   73SLPC  C215 6453   1.241   0.600   8.871 -0.3931 -0.5971  0.4437
   73SLPC  H15R 6454   1.274   0.495   8.879  0.3823 -0.2797  1.8924
   73SLPC  H15S 6455   1.331   0.663   8.887 -1.2737  1.1472 -1.1462
   73SLPC  C216 6456   1.183   0.619   8.737  0.3620 -0.9022  0.2556
   73SLPC  H16R 6457   1.175   0.725   8.705 -0.7861 -0.5885  1.4998
   73SLPC  H16S 6458   1.081   0.581   8.715  0.7129 -1.0506 -1.2686
   73SLPC  C217 6459   1.269   0.547   8.636  0.4770  0.5227  0.1437
   73SLPC  H17R 6460   1.241   0.440   8.638  1.3388  0.3062  1.3154
   73SLPC  H17S 6461   1.378   0.560   8.654  1.0108  0.1085 -2.3698
   73SLPC  C218 6462   1.249   0.608   8.495  0.1306 -0.2923 -0.1469
   73SLPC  H18R 6463   1.330   0.581   8.424  1.4170 -0.8839  1.4829
   73SLPC  H18S 6464   1.255   0.718   8.512 -0.6480 -0.3589  0.6193
   73SLPC  H18T 6465   1.150   0.584   8.451  0.3282  1.1098 -1.4298
   73SLPC   C33 6466   1.831   0.608   9.924  0.5183 -0.3334 -0.1533
   73SLPC   H3X 6467   1.756   0.672   9.873 -1.2870  1.8131  4.6500
   73SLPC   H3Y 6468   1.788   0.507   9.941  1.5989 -0.6410  0.8649
   73SLPC   C34 6469   1.957   0.582   9.847 -0.2190 -0.6511  0.6230
   73SLPC   H4X 6470   2.030   0.529   9.911  1.8785 -0.1440 -1.2273
   73SLPC   H4Y 6471   2.001   0.678   9.813  2.3191 -1.1721  2.1615
   73SLPC   C35 6472   1.924   0.491   9.725  0.3798 -1.0690 -0.2542
   73SLPC   H5X 6473   1.849   0.550   9.668  0.7322 -2.1105 -1.8436
   73SLPC   H5Y 6474   1.868   0.410   9.775 -0.1685 -0.7900 -0.4105
   73SLPC   C36 6475   2.036   0.433   9.649 -0.5337  0.3770 -0.5698
   73SLPC   H6X 6476   2.102   0.398   9.731 -1.5770  0.1133  0.1743
   73SLPC   H6Y 6477   2.093   0.508   9.590  3.2896  0.3294  2.6593
   73SLPC   C37 6478   1.995   0.310   9.576 -0.3290  0.3063  0.4373
   73SLPC   H7X 6479   1.911   0.326   9.504  0.6613 -0.6031 -0.9938
   73SLPC   H7Y 6480   1.948   0.235   9.644 -2.4344 -0.2877 -1.4996
   73SLPC   C38 6481   2.103   0.238   9.487 -0.3477 -0.3835  0.2175
   73SLPC   H8X 6482   2.184   0.207   9.557  1.0024  2.5041  0.0600
   73SLPC   H8Y 6483   2.162   0.298   9.415  1.3004 -2.8475 -0.6245
   73SLPC   C39 6484   2.053   0.118   9.414  0.0172  0.1073  0.0721
   73SLPC   H9X 6485   1.981   0.153   9.337 -2.0919 -4.2775 -0.2864
   73SLPC   H9Y 6486   1.996   0.052   9.483  0.6938  0.2419  0.7763
   73SLPC  C310 6487   2.172   0.037   9.355  0.0644  0.4871  0.1896
   73SLPC  H10X 6488   2.127  -0.061   9.326  0.8010  0.7071 -1.8218
   73SLPC  H10Y 6489   2.239   0.019   9.441  0.6412  0.0721 -0.3345
   73SLPC  C311 6490   2.237   0.102   9.237  0.1585  0.4575  0.0665
   73SLPC  H11X 6491   2.299   0.179   9.288  1.1130  1.5599 -2.5680
   73SLPC  H11Y 6492   2.164   0.139   9.161 -1.5410 -1.0239  0.9193
   73SLPC  C312 6493   2.322  -0.002   9.165 -0.6258  0.0254 -0.0832
   73SLPC  H12X 6494   2.410  -0.025   9.230 -0.2516 -0.0876 -0.6243
   73SLPC  H12Y 6495   2.360   0.051   9.076  0.2009  4.1719  2.4737
   73SLPC  C313 6496   2.240  -0.126   9.121 -0.2028 -0.4834 -0.6651
   73SLPC  H13X 6497   2.144  -0.083   9.086  0.8950  1.8095 -1.0409
   73SLPC  H13Y 6498   2.219  -0.195   9.205 -2.4531 -1.7095 -2.1411
   73SLPC  C314 6499   2.304  -0.183   8.994  0.1022 -0.0870  0.6390
   73SLPC  H14X 6500   2.407  -0.223   9.011  0.2611  0.1351  0.2150
   73SLPC  H14Y 6501   2.307  -0.103   8.916 -3.3171 -0.6106 -0.1683
   73SLPC  C315 6502   2.227  -0.306   8.935  0.0654  0.4137 -0.2230
   73SLPC  H15X 6503   2.254  -0.304   8.827  1.3601 -0.8459  0.0426
   73SLPC  H15Y 6504   2.117  -0.290   8.935  0.0538  0.4896  1.1892
   73SLPC  C316 6505   2.270  -0.442   8.987  0.5455 -0.3206  0.4406
   73SLPC  H16X 6506   2.322  -0.447   9.085  0.5047  2.3155  0.6825
   73SLPC  H16Y 6507   2.338  -0.496   8.918  0.3932 -0.3410  0.3057
   73SLPC  C317 6508   2.150  -0.537   8.988  0.1963  0.2009 -0.7618
   73SLPC  H17X 6509   2.099  -0.513   8.892 -0.7954 -1.2977 -0.6639
   73SLPC  H17Y 6510   2.085  -0.507   9.074  0.9701  1.9542 -0.7554
   73SLPC  C318 6511   2.171  -0.685   9.012  0.1622 -1.1353 -0.2263
   73SLPC  H18X 6512   2.257  -0.688   9.083  0.1230  0.7467 -0.0548
   73SLPC  H18Y 6513   2.189  -0.743   8.919 -0.2074 -1.8099  0.1125
   73SLPC  H18Z 6514   2.073  -0.729   9.042 -0.2306 -0.5800 -0.6764
   74SLPC     N 6515   1.198   2.947  10.986 -0.8469  0.0973  1.0131
   74SLPC   C13 6516   1.192   2.959  11.130  0.1438  0.0105 -0.3624
   74SLPC  H13A 6517   1.107   3.020  11.159 -0.2355 -0.9321  0.5706
   74SLPC  H13B 6518   1.182   2.869  11.188  0.0395  1.0235  1.2745
   74SLPC  H13C 6519   1.284   2.995  11.174  1.5742  0.1519 -3.2621
   74SLPC   C14 6520   1.081   2.867  10.928 -0.3679  0.5819 -0.0723
   74SLPC  H14A 6521   1.086   2.770  10.975  2.1929  0.2030 -0.9661
   74SLPC  H14B 6522   0.993   2.922  10.957  0.7927  1.5529  1.7868
   74SLPC  H14C 6523   1.093   2.856  10.821 -0.7957 -0.7107 -0.0053
   74SLPC   C15 6524   1.321   2.870  10.966  0.0333 -0.1414 -0.4784
   74SLPC  H15A 6525   1.398   2.912  11.029 -0.1709 -2.8411  1.7782
   74SLPC  H15B 6526   1.315   2.763  10.978  1.9465 -0.3714 -1.3308
   74SLPC  H15C 6527   1.347   2.879  10.862  0.2945  0.6250 -0.3544
   74SLPC   C12 6528   1.203   3.085  10.919  0.0252  0.2608 -0.3608
   74SLPC  H12A 6529   1.288   3.137  10.959 -0.0304  0.7269 -0.8427
   74SLPC  H12B 6530   1.116   3.135  10.956  0.1008 -0.3903  0.7391
   74SLPC   C11 6531   1.206   3.090  10.767 -0.6097 -0.7243  0.5495
   74SLPC  H11A 6532   1.203   3.195  10.730  0.4116 -0.2597  1.7079
   74SLPC  H11B 6533   1.112   3.042  10.730 -1.0414 -1.3626  2.3694
   74SLPC     P 6534   1.460   3.095  10.721 -0.1453  0.1025  0.2986
   74SLPC   O13 6535   1.466   3.170  10.849 -0.2951  0.2842  0.1602
   74SLPC   O14 6536   1.560   2.986  10.706 -0.6483  0.9650  0.0774
   74SLPC   O12 6537   1.319   3.026  10.714  0.1631 -0.0677 -0.0266
   74SLPC   O11 6538   1.467   3.192  10.596  0.1949  0.4366 -0.4738
   74SLPC    C1 6539   1.401   3.174  10.475 -0.8113 -0.3497 -0.8191
   74SLPC    HA 6540   1.314   3.105  10.483  0.3335 -1.8474 -1.0028
   74SLPC    HB 6541   1.362   3.273  10.444 -0.2630  0.8041  1.9118
   74SLPC    C2 6542   1.493   3.137  10.354 -0.4093 -0.0392  0.1944
   74SLPC    HS 6543   1.552   3.047  10.382  0.3186  0.6485  0.9392
   74SLPC   O21 6544   1.583   3.248  10.326  0.0290  0.3902 -0.3713
   74SLPC   C21 6545   1.711   3.216  10.331 -0.7973  0.5418  0.2483
   74SLPC   O22 6546   1.755   3.103  10.343 -0.6172  0.5038  0.4392
   74SLPC   C22 6547   1.805   3.331  10.325  0.2727 -0.1182  0.1775
   74SLPC   H2R 6548   1.749   3.416  10.281 -0.3446 -0.2941  0.6189
   74SLPC   H2S 6549   1.846   3.361  10.424 -0.1949  2.2696 -0.2884
   74SLPC    C3 6550   1.406   3.105  10.227 -0.1741  0.5074 -0.4097
   74SLPC    HX 6551   1.359   3.203  10.205 -0.4935  0.7233  1.1207
   74SLPC    HY 6552   1.327   3.034  10.261 -0.4858 -0.4319 -2.9041
   74SLPC   O31 6553   1.475   3.050  10.113 -0.2910 -0.2214  0.1229
   74SLPC   C31 6554   1.508   2.921  10.131  0.5422  0.1808  0.5629
   74SLPC   O32 6555   1.508   2.866  10.240  0.3021  0.2002 -0.6371
   74SLPC   C32 6556   1.549   2.851   9.997  0.6749 -0.4176 -0.3012
   74SLPC   H2X 6557   1.604   2.757  10.018  1.0484  0.3525  2.5867
   74SLPC   H2Y 6558   1.629   2.901   9.939 -0.3252 -1.5019 -2.7523
   74SLPC   C23 6559   1.936   3.299  10.241 -0.9144 -0.1087 -0.7908
   74SLPC   H3R 6560   1.969   3.195  10.259 -1.3290 -0.2055 -0.5563
   74SLPC   H3S 6561   2.029   3.350  10.273  0.8010 -2.4191 -1.8361
   74SLPC   C24 6562   1.915   3.322  10.095  0.0113 -0.7666  0.4535
   74SLPC   H4R 6563   2.010   3.286  10.051  0.6920 -1.3629  2.3336
   74SLPC   H4S 6564   1.901   3.431  10.074 -1.9639 -0.5409  2.5173
   74SLPC   C25 6565   1.799   3.243  10.035 -0.2031  0.1348  0.0935
   74SLPC   H5R 6566   1.704   3.283  10.078 -0.8151 -1.2861  0.1255
   74SLPC   H5S 6567   1.806   3.141  10.079  0.1146 -0.0287 -0.3325
   74SLPC   C26 6568   1.798   3.236   9.884 -0.1807 -0.5401  0.5735
   74SLPC   H6R 6569   1.886   3.179   9.847 -1.2522 -2.1348  0.3917
   74SLPC   H6S 6570   1.801   3.343   9.857  1.7144 -0.4227  1.1201
   74SLPC   C27 6571   1.676   3.171   9.818 -0.4398  1.0753 -0.0682
   74SLPC   H7R 6572   1.586   3.194   9.879  0.0807  1.3156  0.6222
   74SLPC   H7S 6573   1.686   3.061   9.826 -1.6736  0.8318 -1.3677
   74SLPC   C28 6574   1.639   3.207   9.672 -0.2873  0.2102  0.5077
   74SLPC   H8R 6575   1.623   3.317   9.666 -0.4529  0.2733  1.8523
   74SLPC   H8S 6576   1.540   3.164   9.648 -0.4300  1.3566 -1.1121
   74SLPC   C29 6577   1.747   3.165   9.574  0.6999  0.4464 -1.1120
   74SLPC   H9R 6578   1.850   3.180   9.609  0.2058 -1.5127  1.4640
   74SLPC  C210 6579   1.723   3.101   9.456  0.3975 -0.4560 -0.2854
   74SLPC  H10R 6580   1.805   3.085   9.385 -0.5767 -0.8521 -1.3606
   74SLPC  C211 6581   1.584   3.069   9.397 -0.7510  0.0736  0.5802
   74SLPC  H11R 6582   1.517   3.157   9.401 -1.2367 -0.2561 -0.0191
   74SLPC  H11S 6583   1.533   2.987   9.453 -0.6797  0.2487  0.8984
   74SLPC  C212 6584   1.600   3.016   9.254  0.3172  0.0651 -0.8173
   74SLPC  H12R 6585   1.633   2.911   9.265  0.8541  0.3681  0.5902
   74SLPC  C213 6586   1.577   3.071   9.131 -0.2390 -0.0852 -0.5419
   74SLPC  H13R 6587   1.573   2.998   9.050 -1.2393  1.3408 -1.8361
   74SLPC  C214 6588   1.530   3.216   9.095 -0.2012 -0.2840 -0.4232
   74SLPC  H14R 6589   1.593   3.300   9.131 -2.2660  0.2448  2.2338
   74SLPC  H14S 6590   1.426   3.229   9.131  0.5272 -1.8838  2.5963
   74SLPC  C215 6591   1.518   3.229   8.941  0.3210 -0.7619  0.3940
   74SLPC  H15R 6592   1.493   3.335   8.923  0.4018 -0.9826 -1.1425
   74SLPC  H15S 6593   1.438   3.169   8.893 -0.3073  0.1467  0.2797
   74SLPC  C216 6594   1.651   3.195   8.861 -0.2713 -0.0389  0.0173
   74SLPC  H16R 6595   1.663   3.084   8.864 -0.6737 -0.1115 -0.6103
   74SLPC  H16S 6596   1.731   3.245   8.918  1.4416 -2.1865 -0.3767
   74SLPC  C217 6597   1.654   3.234   8.710 -0.0496  0.3404 -0.5668
   74SLPC  H17R 6598   1.765   3.238   8.700  0.0938  1.4811  1.1923
   74SLPC  H17S 6599   1.627   3.340   8.695  0.7397  0.6219 -0.0844
   74SLPC  C218 6600   1.573   3.137   8.623 -0.0744  0.2495 -0.0408
   74SLPC  H18R 6601   1.465   3.144   8.644 -0.0040 -0.6559  0.7162
   74SLPC  H18S 6602   1.602   3.032   8.648  2.5770  1.3285  1.9098
   74SLPC  H18T 6603   1.596   3.151   8.515  1.1860  0.2135  0.1989
   74SLPC   C33 6604   1.422   2.814   9.913 -0.2039  0.6253 -0.3750
   74SLPC   H3X 6605   1.368   2.907   9.885 -1.7776 -0.6827 -1.8997
   74SLPC   H3Y 6606   1.352   2.758   9.978 -0.6932  0.0682 -1.3786
   74SLPC   C34 6607   1.468   2.743   9.785  0.4477  0.2572 -0.4186
   74SLPC   H4X 6608   1.524   2.652   9.814  0.4588  0.2918 -0.3314
   74SLPC   H4Y 6609   1.544   2.809   9.739  1.7958 -0.1804  1.0822
   74SLPC   C35 6610   1.353   2.729   9.683  0.2464 -0.5662 -0.2133
   74SLPC   H5X 6611   1.318   2.826   9.641  2.1678  0.0521 -0.4979
   74SLPC   H5Y 6612   1.262   2.674   9.714 -0.8996  1.3058 -0.1247
   74SLPC   C36 6613   1.404   2.670   9.549  0.1375 -0.6139 -0.0293
   74SLPC   H6X 6614   1.452   2.571   9.561 -1.3118 -1.0912  2.6878
   74SLPC   H6Y 6615   1.485   2.738   9.514  1.2002 -0.4786  2.5245
   74SLPC   C37 6616   1.293   2.650   9.432 -0.3610 -0.2425 -0.1190
   74SLPC   H7X 6617   1.233   2.740   9.409 -1.4653 -0.5321  1.4888
   74SLPC   H7Y 6618   1.221   2.583   9.483 -1.3278  0.9448  0.1078
   74SLPC   C38 6619   1.349   2.576   9.314  0.7106  0.5577  0.3517
   74SLPC   H8X 6620   1.278   2.504   9.270  2.7206 -1.4482  0.1842
   74SLPC   H8Y 6621   1.439   2.515   9.337  0.2299 -0.0042  0.7708
   74SLPC   C39 6622   1.367   2.675   9.200 -0.0019  0.4698  0.1136
   74SLPC   H9X 6623   1.438   2.749   9.243  0.2186  0.6965 -0.6204
   74SLPC   H9Y 6624   1.271   2.716   9.161  0.7448  1.9423 -0.2504
   74SLPC  C310 6625   1.441   2.615   9.077  0.2200 -0.2876  0.2694
   74SLPC  H10X 6626   1.380   2.529   9.042  0.3903 -0.0490 -0.6452
   74SLPC  H10Y 6627   1.540   2.575   9.109 -0.1757  0.6964  3.0088
   74SLPC  C311 6628   1.456   2.712   8.964 -0.3612  0.6890 -0.2417
   74SLPC  H11X 6629   1.511   2.804   8.995  0.4583  0.4071 -0.8099
   74SLPC  H11Y 6630   1.358   2.740   8.919  0.2030  2.7644 -0.2932
   74SLPC  C312 6631   1.538   2.639   8.848  0.5683  0.3203 -0.5139
   74SLPC  H12X 6632   1.485   2.546   8.818  0.4365  0.1280  0.3064
   74SLPC  H12Y 6633   1.639   2.617   8.889 -0.4988 -0.9227  1.5981
   74SLPC  C313 6634   1.556   2.716   8.715  0.3557 -0.0607 -0.7013
   74SLPC  H13X 6635   1.620   2.803   8.739  1.4556 -1.2474  0.8912
   74SLPC  H13Y 6636   1.464   2.743   8.659  1.5076  0.8124 -2.2565
   74SLPC  C314 6637   1.643   2.636   8.612  0.2675 -0.7204  0.3511
   74SLPC  H14X 6638   1.593   2.549   8.564  0.7326 -1.2798  0.8661
   74SLPC  H14Y 6639   1.733   2.600   8.666  1.1778  1.7061  0.6059
   74SLPC  C315 6640   1.682   2.734   8.506 -0.4595 -0.4036  0.1594
   74SLPC  H15X 6641   1.771   2.790   8.541  0.4772 -0.6813 -1.6568
   74SLPC  H15Y 6642   1.599   2.805   8.488  0.4050  1.0507  1.6485
   74SLPC  C316 6643   1.723   2.650   8.385 -0.0980  0.2695  0.0682
   74SLPC  H16X 6644   1.637   2.588   8.352 -0.9522  1.7951 -0.6588
   74SLPC  H16Y 6645   1.809   2.588   8.419 -1.4233 -1.3568  0.5808
   74SLPC  C317 6646   1.769   2.732   8.269  0.2222 -0.0414  0.4315
   74SLPC  H17X 6647   1.698   2.815   8.253  1.0012  0.6265  0.3860
   74SLPC  H17Y 6648   1.763   2.669   8.177  1.1495 -2.5678  2.0086
   74SLPC  C318 6649   1.915   2.787   8.281  0.9866 -0.2380  0.0810
   74SLPC  H18X 6650   1.915   2.853   8.370  1.3303 -1.0237  0.6811
   74SLPC  H18Y 6651   1.949   2.841   8.191  1.0420  0.4774  0.5234
   74SLPC  H18Z 6652   1.994   2.710   8.297  1.3811  0.1930  0.2032
   75SLPC     N 6653   2.729   3.754   6.362  0.0700  0.2367 -0.2772
   75SLPC   C13 6654   2.639   3.862   6.330  0.0308 -1.4182  0.0652
   75SLPC  H13A 6655   2.659   3.944   6.396  2.6669 -1.0424 -1.0832
   75SLPC  H13B 6656   2.649   3.903   6.231 -1.4348 -0.5593  0.2429
   75SLPC  H13C 6657   2.534   3.839   6.325 -0.3799  0.1359  0.8590
   75SLPC   C14 6658   2.709   3.727   6.514  0.6306 -0.6078  0.2828
   75SLPC  H14A 6659   2.607   3.695   6.534  0.2492  0.8260  0.7126
   75SLPC  H14B 6660   2.771   3.644   6.546  1.6471  0.9039  2.4337
   75SLPC  H14C 6661   2.727   3.819   6.567 -1.4626 -0.4213  0.7576
   75SLPC   C15 6662   2.875   3.799   6.337 -0.8817  0.4391  0.7406
   75SLPC  H15A 6663   2.936   3.716   6.304 -2.2496 -0.0164 -0.7309
   75SLPC  H15B 6664   2.890   3.867   6.255  1.1964  0.3696  1.0053
   75SLPC  H15C 6665   2.925   3.835   6.426  0.8348 -1.3357  0.5824
   75SLPC   C12 6666   2.694   3.639   6.276  0.5183  0.4584  0.1409
   75SLPC  H12A 6667   2.752   3.549   6.282  0.7839  0.6193  0.0384
   75SLPC  H12B 6668   2.724   3.672   6.177 -1.4788 -0.7271 -0.9241
   75SLPC   C11 6669   2.537   3.617   6.246  0.0957  0.9946 -0.0138
   75SLPC  H11A 6670   2.517   3.512   6.215  1.0249  0.8830 -0.2537
   75SLPC  H11B 6671   2.506   3.678   6.159 -0.0671  1.8827  0.6493
   75SLPC     P 6672   2.379   3.527   6.437 -0.1842  0.2425 -0.1225
   75SLPC   O13 6673   2.238   3.520   6.395  0.0921  0.3844  1.0049
   75SLPC   O14 6674   2.457   3.399   6.431 -0.0334 -0.4297  0.2007
   75SLPC   O12 6675   2.449   3.642   6.355  0.5746  0.1834  0.4523
   75SLPC   O11 6676   2.370   3.581   6.583 -0.3763 -0.1789  0.0533
   75SLPC    C1 6677   2.294   3.698   6.616  0.1398 -0.2576 -0.0263
   75SLPC    HA 6678   2.224   3.735   6.538  1.8816  0.6049 -1.2185
   75SLPC    HB 6679   2.225   3.674   6.700  1.4200 -0.5846  0.9577
   75SLPC    C2 6680   2.380   3.816   6.667 -0.8134  0.2722 -0.3895
   75SLPC    HS 6681   2.480   3.803   6.621 -0.1757  0.3850  0.9172
   75SLPC   O21 6682   2.373   3.816   6.812 -0.1083  0.5480  0.6513
   75SLPC   C21 6683   2.499   3.806   6.868  0.7953  0.6675  0.1591
   75SLPC   O22 6684   2.597   3.829   6.806 -0.5438 -0.2722  0.0328
   75SLPC   C22 6685   2.493   3.791   7.018 -0.2356 -0.0123  0.6251
   75SLPC   H2R 6686   2.466   3.889   7.063 -1.5399 -0.3918  0.6925
   75SLPC   H2S 6687   2.412   3.719   7.042 -0.6943  0.9928  2.2151
   75SLPC    C3 6688   2.318   3.942   6.614 -0.9081 -0.7675 -0.0444
   75SLPC    HX 6689   2.215   3.936   6.654 -0.5671  0.0212  0.9760
   75SLPC    HY 6690   2.320   3.934   6.503  0.2325  0.3787 -0.1363
   75SLPC   O31 6691   2.382   4.070   6.670  0.1901 -0.4330  0.0442
   75SLPC   C31 6692   2.482   4.116   6.606 -0.5349 -0.0184 -0.0667
   75SLPC   O32 6693   2.526   4.083   6.499  0.1803  0.2210 -0.0556
   75SLPC   C32 6694   2.542   4.213   6.703 -0.5792 -0.8855 -0.2060
   75SLPC   H2X 6695   2.506   4.199   6.808 -0.6773  1.5757  0.1367
   75SLPC   H2Y 6696   2.529   4.315   6.663 -0.8885 -1.7965 -2.5504
   75SLPC   C23 6697   2.622   3.741   7.086  0.3474 -0.7543 -0.1170
   75SLPC   H3R 6698   2.716   3.797   7.068 -0.0240  0.0225  0.3285
   75SLPC   H3S 6699   2.652   3.640   7.052  2.6453 -0.2954  0.3837
   75SLPC   C24 6700   2.614   3.729   7.236  0.6663 -0.0350  0.2478
   75SLPC   H4R 6701   2.528   3.670   7.275  0.8890  1.7184  3.7825
   75SLPC   H4S 6702   2.592   3.829   7.280  0.6127  0.1545 -0.2124
   75SLPC   C25 6703   2.729   3.662   7.313 -0.2357 -0.6070 -0.7633
   75SLPC   H5R 6704   2.820   3.723   7.291 -0.4735 -0.1834 -0.5780
   75SLPC   H5S 6705   2.756   3.557   7.288  1.4511  0.2111 -2.6816
   75SLPC   C26 6706   2.709   3.674   7.465 -0.4890  0.2535 -0.2805
   75SLPC   H6R 6707   2.643   3.591   7.496  0.5484 -0.2039  0.8047
   75SLPC   H6S 6708   2.652   3.762   7.503 -2.0001 -0.8503  0.1005
   75SLPC   C27 6709   2.841   3.656   7.548 -0.4004 -0.2327 -0.1140
   75SLPC   H7R 6710   2.916   3.736   7.527 -0.1376 -0.5551 -0.4253
   75SLPC   H7S 6711   2.891   3.557   7.540 -0.7930 -0.8295  3.2814
   75SLPC   C28 6712   2.804   3.668   7.700  0.0196 -0.2023  0.8916
   75SLPC   H8R 6713   2.730   3.589   7.722  0.5616 -0.7914  0.6193
   75SLPC   H8S 6714   2.744   3.759   7.726 -3.8536 -2.8998  2.3697
   75SLPC   C29 6715   2.919   3.665   7.790  0.1511  0.0958 -0.3392
   75SLPC   H9R 6716   3.002   3.721   7.746  0.1113  2.3218  2.1864
   75SLPC  C210 6717   2.928   3.618   7.918 -0.5214  0.7040 -0.3462
   75SLPC  H10R 6718   3.020   3.635   7.975 -1.5883 -0.8264  1.9692
   75SLPC  C211 6719   2.828   3.557   8.009  0.4230 -0.2389  0.5094
   75SLPC  H11R 6720   2.744   3.629   8.021 -0.3500 -0.7591 -1.4370
   75SLPC  H11S 6721   2.889   3.547   8.102 -0.5066  1.0419  1.2912
   75SLPC  C212 6722   2.766   3.423   7.977  0.8853  0.1704  0.4540
   75SLPC  H12R 6723   2.781   3.390   7.873  2.8422  0.2529  0.6706
   75SLPC  C213 6724   2.691   3.351   8.058  0.5192  0.1453 -0.2784
   75SLPC  H13R 6725   2.652   3.256   8.018  0.3331 -0.2150  0.7225
   75SLPC  C214 6726   2.672   3.383   8.200  0.0909  0.1339  0.7660
   75SLPC  H14R 6727   2.570   3.358   8.239 -0.2965 -2.1184 -1.4010
   75SLPC  H14S 6728   2.674   3.490   8.231  1.1420 -0.0968  1.5386
   75SLPC  C215 6729   2.768   3.296   8.282  0.1828 -0.2562 -0.5491
   75SLPC  H15R 6730   2.864   3.348   8.297  1.7430 -3.0573 -0.0536
   75SLPC  H15S 6731   2.804   3.204   8.230  2.5983  1.4149 -2.0055
   75SLPC  C216 6732   2.708   3.264   8.418 -0.3119  0.4485 -0.8701
   75SLPC  H16R 6733   2.784   3.206   8.474 -1.6614 -0.9393 -0.3999
   75SLPC  H16S 6734   2.614   3.204   8.411  0.3635 -0.9686  1.2048
   75SLPC  C217 6735   2.672   3.379   8.509 -0.5337 -0.0008 -0.7312
   75SLPC  H17R 6736   2.610   3.455   8.456 -0.8238  1.5486  1.6790
   75SLPC  H17S 6737   2.770   3.423   8.536 -2.6422  3.6705  1.8097
   75SLPC  C218 6738   2.593   3.334   8.639 -0.2788 -0.1208 -0.2372
   75SLPC  H18R 6739   2.648   3.257   8.697  1.0343  1.2067  0.3501
   75SLPC  H18S 6740   2.494   3.301   8.602 -0.2369 -0.3439 -0.1547
   75SLPC  H18T 6741   2.567   3.418   8.707 -0.0038 -0.6254  0.5040
   75SLPC   C33 6742   2.697   4.195   6.722  0.0298  0.7197  0.5352
   75SLPC   H3X 6743   2.718   4.088   6.743 -1.1572  1.1005  4.3840
   75SLPC   H3Y 6744   2.747   4.221   6.626  0.3961  0.2447  0.5967
   75SLPC   C34 6745   2.760   4.261   6.842 -0.3083 -0.1207 -0.1642
   75SLPC   H4X 6746   2.724   4.365   6.854 -2.8466 -0.9713  0.1289
   75SLPC   H4Y 6747   2.870   4.272   6.828 -0.6082  1.8684 -1.2025
   75SLPC   C35 6748   2.739   4.187   6.975 -0.1199  0.0611 -0.1397
   75SLPC   H5X 6749   2.803   4.096   6.976  0.5456  0.5239  0.2613
   75SLPC   H5Y 6750   2.637   4.146   6.983 -0.3191  0.7255  0.9924
   75SLPC   C36 6751   2.772   4.270   7.099  0.0578 -0.0601  0.2155
   75SLPC   H6X 6752   2.679   4.329   7.111 -0.7286 -0.4148 -3.1069
   75SLPC   H6Y 6753   2.860   4.334   7.076 -1.6986  1.4559 -2.9316
   75SLPC   C37 6754   2.782   4.186   7.234 -0.4418  0.2392  0.3495
   75SLPC   H7X 6755   2.875   4.125   7.230  1.6225  3.0738  1.7793
   75SLPC   H7Y 6756   2.697   4.116   7.225  1.3517 -1.7986 -3.0364
   75SLPC   C38 6757   2.771   4.272   7.362 -0.1947  0.0028 -0.3534
   75SLPC   H8X 6758   2.687   4.343   7.351 -0.4674 -0.2587  0.0490
   75SLPC   H8Y 6759   2.868   4.327   7.366  0.7414 -1.4713 -1.6691
   75SLPC   C39 6760   2.739   4.197   7.491 -0.5545 -0.2002  0.3605
   75SLPC   H9X 6761   2.678   4.104   7.486 -0.5583 -0.2035  0.4731
   75SLPC   H9Y 6762   2.681   4.264   7.558 -0.2777  1.4930 -1.0201
   75SLPC  C310 6763   2.870   4.142   7.557  0.3405 -0.4308  0.2429
   75SLPC  H10X 6764   2.936   4.231   7.568 -0.9766  0.6506 -0.2334
   75SLPC  H10Y 6765   2.918   4.071   7.486 -1.7841 -0.9527 -0.7608
   75SLPC  C311 6766   2.850   4.104   7.704 -0.8914 -0.0432 -0.2497
   75SLPC  H11X 6767   2.786   4.014   7.698  2.0426 -2.2769 -0.2079
   75SLPC  H11Y 6768   2.795   4.181   7.763  0.3632  0.1282  0.7425
   75SLPC  C312 6769   2.981   4.081   7.782  0.2457 -0.2901 -0.1418
   75SLPC  H12X 6770   3.032   4.179   7.796 -0.7635  0.4398 -1.3399
   75SLPC  H12Y 6771   3.049   4.012   7.729  0.6609 -0.4198  0.5428
   75SLPC  C313 6772   2.956   4.039   7.929 -0.0263  0.6489  0.8085
   75SLPC  H13X 6773   2.899   3.944   7.916 -0.2385  1.1297 -2.6159
   75SLPC  H13Y 6774   2.891   4.112   7.982  0.5141  0.6440  1.4988
   75SLPC  C314 6775   3.083   3.998   8.003 -0.1780  0.1409 -0.3961
   75SLPC  H14X 6776   3.154   4.084   8.011 -0.2754  0.0939  1.4307
   75SLPC  H14Y 6777   3.138   3.916   7.952  2.4374  0.8321  1.0582
   75SLPC  C315 6778   3.070   3.975   8.153  0.2917 -0.0643 -0.6289
   75SLPC  H15X 6779   3.004   3.885   8.157  0.0494  0.1713  2.0861
   75SLPC  H15Y 6780   3.010   4.054   8.202 -0.9127 -0.3657 -1.5568
   75SLPC  C316 6781   3.193   3.933   8.233  0.2687 -0.6072  0.8023
   75SLPC  H16X 6782   3.264   4.018   8.242  1.0909 -1.2189  0.3180
   75SLPC  H16Y 6783   3.241   3.860   8.164  0.4314 -0.8570  1.1746
   75SLPC  C317 6784   3.166   3.894   8.379 -0.0491 -0.3694 -0.2271
   75SLPC  H17X 6785   3.110   3.975   8.429  1.2305 -0.2482  1.0728
   75SLPC  H17Y 6786   3.263   3.902   8.432  0.3591  3.9903 -1.2767
   75SLPC  C318 6787   3.096   3.757   8.400 -0.2873 -0.1047  0.7497
   75SLPC  H18X 6788   3.117   3.726   8.505  4.2612  0.7867  0.2722
   75SLPC  H18Y 6789   3.129   3.682   8.324 -1.1595  0.4636 -0.2083
   75SLPC  H18Z 6790   2.985   3.757   8.398 -0.3046  1.2526 -2.0481
   76SLPC     N 6791   6.417   2.799   5.734  0.4247 -0.0281 -0.2406
   76SLPC   C13 6792   6.454   2.687   5.642  0.3787  0.1994 -0.6613
   76SLPC  H13A 6793   6.489   2.618   5.719  1.6623  2.7170  1.1522
   76SLPC  H13B 6794   6.370   2.645   5.589 -1.2638  0.1859  1.7495
   76SLPC  H13C 6795   6.540   2.701   5.579  1.2769  2.4760  0.9374
   76SLPC   C14 6796   6.336   2.900   5.655 -0.2909  0.2786 -0.3166
   76SLPC  H14A 6797   6.251   2.852   5.608  0.3484 -2.6312  1.2722
   76SLPC  H14B 6798   6.290   2.973   5.720 -0.8558  1.1080 -1.5989
   76SLPC  H14C 6799   6.399   2.946   5.579  2.4642  0.7049  2.0256
   76SLPC   C15 6800   6.554   2.856   5.768  0.2657 -0.2019  0.0595
   76SLPC  H15A 6801   6.620   2.780   5.808  0.8171  0.7553  1.0217
   76SLPC  H15B 6802   6.600   2.911   5.687 -3.0789  2.1021 -0.4651
   76SLPC  H15C 6803   6.545   2.925   5.850 -0.2271 -0.6117  0.3564
   76SLPC   C12 6804   6.349   2.755   5.861 -0.3627 -0.1810 -0.3049
   76SLPC  H12A 6805   6.409   2.681   5.912 -0.3059  0.1486  0.1078
   76SLPC  H12B 6806   6.259   2.704   5.830 -0.2432 -0.7692  0.2978
   76SLPC   C11 6807   6.317   2.854   5.979 -1.2393 -0.8612 -0.3307
   76SLPC  H11A 6808   6.274   2.793   6.062 -0.9530 -1.8353 -0.8781
   76SLPC  H11B 6809   6.229   2.915   5.949 -0.3532  1.5045  1.5588
   76SLPC     P 6810   6.454   3.076   6.027 -0.1753  0.5251  0.1144
   76SLPC   O13 6811   6.600   3.096   6.044  0.0626  0.0264  0.0496
   76SLPC   O14 6812   6.400   3.131   5.900  0.0852  0.0736 -0.1965
   76SLPC   O12 6813   6.431   2.918   6.044  0.4787  0.3060 -0.2516
   76SLPC   O11 6814   6.378   3.125   6.150  0.8299  0.4891 -0.1133
   76SLPC    C1 6815   6.306   3.053   6.257 -0.2171 -0.2809  0.4160
   76SLPC    HA 6816   6.213   3.107   6.286  0.0520  0.8949 -0.8031
   76SLPC    HB 6817   6.264   2.955   6.225 -3.7719  0.0875  3.2003
   76SLPC    C2 6818   6.387   3.035   6.388  0.2894  0.0943 -0.2828
   76SLPC    HS 6819   6.329   2.957   6.442  0.0742  1.4942  1.6288
   76SLPC   O21 6820   6.387   3.154   6.453  0.1411 -0.4921  0.5029
   76SLPC   C21 6821   6.287   3.178   6.539  0.4887 -0.2416  0.2980
   76SLPC   O22 6822   6.180   3.121   6.545 -0.3433 -0.4117  0.3221
   76SLPC   C22 6823   6.327   3.300   6.618 -0.1747 -0.6553  0.2631
   76SLPC   H2R 6824   6.433   3.278   6.641  1.0101  1.3635 -2.7241
   76SLPC   H2S 6825   6.324   3.386   6.548 -1.6972  0.2038  1.3144
   76SLPC    C3 6826   6.537   2.990   6.370 -0.1119 -0.6220 -0.2099
   76SLPC    HX 6827   6.581   3.068   6.305  1.2371 -0.0511  1.3255
   76SLPC    HY 6828   6.531   2.894   6.315 -1.4619 -0.3228 -0.6282
   76SLPC   O31 6829   6.603   2.981   6.495  0.3490 -0.0312 -0.0953
   76SLPC   C31 6830   6.730   3.016   6.507  0.0163  0.5946  0.0980
   76SLPC   O32 6831   6.801   3.045   6.411 -0.1589  0.8706 -0.1899
   76SLPC   C32 6832   6.773   3.009   6.656 -0.2509 -0.3885 -0.1764
   76SLPC   H2X 6833   6.853   3.083   6.677 -2.6702  2.1370  0.7102
   76SLPC   H2Y 6834   6.807   2.904   6.669 -2.2484 -1.1489 -0.7246
   76SLPC   C23 6835   6.232   3.336   6.732  0.3248 -0.2983  1.3548
   76SLPC   H3R 6836   6.128   3.333   6.693  1.1766 -1.5154 -1.0733
   76SLPC   H3S 6837   6.255   3.440   6.761 -0.9702  0.6411 -0.7580
   76SLPC   C24 6838   6.258   3.263   6.865  0.4847  0.4107 -0.1724
   76SLPC   H4R 6839   6.367   3.246   6.881  0.3171 -2.9222 -1.6746
   76SLPC   H4S 6840   6.213   3.162   6.862  1.3076 -0.0014  0.7704
   76SLPC   C25 6841   6.193   3.342   6.984  0.6575  0.0882  0.0820
   76SLPC   H5R 6842   6.083   3.347   6.968  0.1614 -2.3461  2.1464
   76SLPC   H5S 6843   6.237   3.444   6.980  1.2455 -0.1161  1.0329
   76SLPC   C26 6844   6.219   3.273   7.120  0.1873 -0.1944 -0.1619
   76SLPC   H6R 6845   6.329   3.261   7.125  0.4925  1.9139 -0.7811
   76SLPC   H6S 6846   6.179   3.170   7.117 -0.9072  0.2195 -0.2732
   76SLPC   C27 6847   6.173   3.355   7.243 -0.0679  0.7106 -0.0779
   76SLPC   H7R 6848   6.065   3.377   7.252  0.0960  1.8330 -0.6109
   76SLPC   H7S 6849   6.230   3.450   7.229  0.3348  0.4150 -0.4780
   76SLPC   C28 6850   6.238   3.304   7.368  0.3394  0.7739 -0.0630
   76SLPC   H8R 6851   6.176   3.212   7.378 -1.7330  1.9821 -1.0932
   76SLPC   H8S 6852   6.346   3.280   7.354 -0.5152 -2.3296 -2.8459
   76SLPC   C29 6853   6.211   3.390   7.489  0.2766  0.1216 -0.4501
   76SLPC   H9R 6854   6.276   3.478   7.501 -0.6037  0.6324  0.7936
   76SLPC  C210 6855   6.099   3.395   7.562 -0.0625 -0.1775  0.1301
   76SLPC  H10R 6856   6.085   3.476   7.634 -1.0641  1.1610 -1.5078
   76SLPC  C211 6857   5.970   3.320   7.559  0.8763  0.4192 -0.1913
   76SLPC  H11R 6858   5.963   3.224   7.502 -0.3363 -0.3904  1.2429
   76SLPC  H11S 6859   5.894   3.385   7.512  2.5169  3.8341  1.5474
   76SLPC  C212 6860   5.921   3.284   7.696 -0.0895 -0.2687 -0.0085
   76SLPC  H12R 6861   6.006   3.271   7.763  0.4169 -0.0077 -0.5870
   76SLPC  C213 6862   5.797   3.277   7.744 -0.1533  0.5209 -0.0691
   76SLPC  H13R 6863   5.774   3.263   7.851 -0.7161 -0.0422 -0.2542
   76SLPC  C214 6864   5.670   3.293   7.664 -0.4251  0.1823 -0.9019
   76SLPC  H14R 6865   5.687   3.289   7.555  1.9493 -2.7118 -0.5404
   76SLPC  H14S 6866   5.611   3.380   7.701 -1.8289 -1.2782  0.4996
   76SLPC  C215 6867   5.576   3.176   7.684  0.3489 -0.2899  0.3080
   76SLPC  H15R 6868   5.525   3.179   7.782 -0.1335  0.5298  0.0450
   76SLPC  H15S 6869   5.633   3.080   7.687 -1.0379 -1.1329  2.7047
   76SLPC  C216 6870   5.477   3.151   7.577 -0.3085  0.5441 -0.5191
   76SLPC  H16R 6871   5.412   3.066   7.608  1.3402 -1.6067 -2.5945
   76SLPC  H16S 6872   5.518   3.110   7.483 -0.0918 -0.6934  0.0968
   76SLPC  C217 6873   5.398   3.272   7.528 -0.0352  0.3077 -0.6457
   76SLPC  H17R 6874   5.465   3.355   7.495  0.1920  0.6948  0.7451
   76SLPC  H17S 6875   5.340   3.307   7.616  0.8250 -0.8372  0.4098
   76SLPC  C218 6876   5.294   3.237   7.414  0.7230  0.3020 -0.2248
   76SLPC  H18R 6877   5.347   3.181   7.334  2.2136  1.3332  0.0074
   76SLPC  H18S 6878   5.249   3.333   7.379 -1.0411  0.2467  1.6869
   76SLPC  H18T 6879   5.215   3.170   7.455  0.2802  1.1209  0.3035
   76SLPC   C33 6880   6.658   3.032   6.760  0.1856  0.5275 -0.3923
   76SLPC   H3X 6881   6.578   2.961   6.730 -0.6171  1.1653  0.2064
   76SLPC   H3Y 6882   6.620   3.136   6.758  1.1205  0.9033  0.2575
   76SLPC   C34 6883   6.706   3.009   6.906  0.5628  0.1580  0.1046
   76SLPC   H4X 6884   6.812   3.043   6.903  0.8512 -0.7359  0.0002
   76SLPC   H4Y 6885   6.700   2.899   6.920 -0.6216  0.2490  0.4081
   76SLPC   C35 6886   6.608   3.063   7.011  0.0613  0.0248  0.1004
   76SLPC   H5X 6887   6.506   3.067   6.968  0.8100 -0.7063 -1.8708
   76SLPC   H5Y 6888   6.624   3.173   7.018 -2.3957  0.3608  1.1799
   76SLPC   C36 6889   6.609   2.987   7.143 -0.3196 -0.3484 -0.1293
   76SLPC   H6X 6890   6.703   2.996   7.202 -0.5637 -1.2199  0.4003
   76SLPC   H6Y 6891   6.597   2.879   7.119  0.5475  0.0647 -2.8219
   76SLPC   C37 6892   6.498   3.029   7.237  0.3699 -0.2817 -0.1031
   76SLPC   H7X 6893   6.398   3.034   7.189  0.0860 -0.0684  0.4968
   76SLPC   H7Y 6894   6.519   3.135   7.266  0.5740 -0.8652  2.0123
   76SLPC   C38 6895   6.485   2.935   7.359  0.4604  0.4778 -0.0675
   76SLPC   H8X 6896   6.590   2.921   7.391  0.4420  1.4797  0.4932
   76SLPC   H8Y 6897   6.442   2.840   7.324 -0.8345  0.9596  0.1630
   76SLPC   C39 6898   6.396   2.992   7.469  0.6057 -0.5207 -0.5259
   76SLPC   H9X 6899   6.299   3.035   7.437 -0.2730 -0.0509  2.5005
   76SLPC   H9Y 6900   6.449   3.081   7.509 -1.2019 -0.1408  1.1509
   76SLPC  C310 6901   6.378   2.902   7.594 -0.1047  0.2602  0.3469
   76SLPC  H10X 6902   6.475   2.866   7.637  0.3144  0.4927 -0.3847
   76SLPC  H10Y 6903   6.325   2.815   7.549  0.4971  0.3873 -0.6574
   76SLPC  C311 6904   6.285   2.957   7.708  0.3073  1.1492  0.7469
   76SLPC  H11X 6905   6.192   2.980   7.653  1.4513 -0.5220 -2.0852
   76SLPC  H11Y 6906   6.341   3.045   7.746  0.6628  0.7862  1.0754
   76SLPC  C312 6907   6.269   2.856   7.826  0.4834 -0.1031 -0.0774
   76SLPC  H12X 6908   6.365   2.830   7.876 -0.4937 -1.2093  1.2767
   76SLPC  H12Y 6909   6.233   2.763   7.778 -0.0075  0.0138  0.0641
   76SLPC  C313 6910   6.162   2.910   7.923  0.2398 -0.3507  0.2946
   76SLPC  H13X 6911   6.056   2.917   7.889 -0.0118  2.8007  1.4384
   76SLPC  H13Y 6912   6.193   3.016   7.932  0.9888 -0.3197 -2.0140
   76SLPC  C314 6913   6.161   2.836   8.058 -0.1807 -0.4838 -0.9864
   76SLPC  H14X 6914   6.079   2.883   8.116 -1.5949 -1.2753 -2.2935
   76SLPC  H14Y 6915   6.256   2.854   8.114 -0.5528 -3.9059  1.0159
   76SLPC  C315 6916   6.144   2.689   8.039 -0.2149 -0.1923 -0.0351
   76SLPC  H15X 6917   6.248   2.664   8.008 -0.2167 -1.6767  1.0359
   76SLPC  H15Y 6918   6.079   2.649   7.958  1.1645 -0.3417 -1.1112
   76SLPC  C316 6919   6.107   2.601   8.160 -0.4371  0.5055 -0.7452
   76SLPC  H16X 6920   6.155   2.643   8.251  1.1271 -3.3927  0.4389
   76SLPC  H16Y 6921   6.158   2.502   8.158 -2.0145 -0.4100  0.7731
   76SLPC  C317 6922   5.957   2.566   8.190  0.2562 -0.6553  0.8521
   76SLPC  H17X 6923   5.928   2.502   8.103 -0.1200  2.6717 -1.6716
   76SLPC  H17Y 6924   5.897   2.660   8.193  1.1440 -0.0278 -0.4062
   76SLPC  C318 6925   5.941   2.483   8.316  0.3663 -0.0503  0.4494
   76SLPC  H18X 6926   6.003   2.391   8.309  0.8312  0.3062 -0.2814
   76SLPC  H18Y 6927   5.834   2.462   8.335  0.2100  0.0140 -0.3420
   76SLPC  H18Z 6928   5.984   2.538   8.403  1.5887  1.5085 -1.0388
   77SLPC     N 6929   6.233   1.250   6.199  0.2196 -0.0626  0.1265
   77SLPC   C13 6930   6.291   1.323   6.319 -0.2128 -0.6388  0.2910
   77SLPC  H13A 6931   6.371   1.390   6.293 -2.1468  1.9700  0.5769
   77SLPC  H13B 6932   6.216   1.384   6.367  1.6621  1.4876  0.6396
   77SLPC  H13C 6933   6.315   1.251   6.396 -0.7115 -1.3632 -0.2136
   77SLPC   C14 6934   6.333   1.153   6.143 -0.1671  0.2031  1.1103
   77SLPC  H14A 6935   6.311   1.112   6.045  1.8718  1.8600 -0.1471
   77SLPC  H14B 6936   6.431   1.198   6.135 -0.7339  1.1579 -1.5777
   77SLPC  H14C 6937   6.347   1.072   6.213  0.6611 -1.8031 -1.2006
   77SLPC   C15 6938   6.205   1.350   6.085  0.3637  0.1875  0.3283
   77SLPC  H15A 6939   6.126   1.309   6.024 -1.9253  1.7131  2.0996
   77SLPC  H15B 6940   6.147   1.435   6.119  1.7466  0.8461  1.1291
   77SLPC  H15C 6941   6.295   1.379   6.032  0.5675 -0.0733  0.5325
   77SLPC   C12 6942   6.104   1.173   6.236 -0.6104 -0.1180  0.0227
   77SLPC  H12A 6943   6.131   1.093   6.303 -3.1627 -1.0026  0.0914
   77SLPC  H12B 6944   6.059   1.130   6.148 -1.4026 -0.3059  0.5109
   77SLPC   C11 6945   5.994   1.254   6.304  0.0034  0.4481 -0.5357
   77SLPC  H11A 6946   6.041   1.281   6.402  0.6605 -1.6661 -0.2307
   77SLPC  H11B 6947   5.916   1.180   6.330  0.4858  0.7744  2.1294
   77SLPC     P 6948   5.870   1.482   6.306 -0.3387  0.1504  0.1857
   77SLPC   O13 6949   5.968   1.589   6.329  0.3482 -0.1196 -0.0018
   77SLPC   O14 6950   5.752   1.527   6.232  0.0945  0.3175 -0.1023
   77SLPC   O12 6951   5.947   1.368   6.231 -0.0912 -0.1739 -0.4099
   77SLPC   O11 6952   5.822   1.403   6.434 -0.5189  0.1076  0.3655
   77SLPC    C1 6953   5.728   1.455   6.533 -0.1330  0.0754  0.0452
   77SLPC    HA 6954   5.662   1.528   6.481  0.3379  0.1410 -0.4741
   77SLPC    HB 6955   5.673   1.372   6.582  0.0315  0.0840  0.2443
   77SLPC    C2 6956   5.804   1.514   6.652 -1.1190  0.5988 -0.2493
   77SLPC    HS 6957   5.872   1.597   6.622  1.2533 -1.1722 -0.1417
   77SLPC   O21 6958   5.881   1.406   6.712  0.1436  0.2642  0.8522
   77SLPC   C21 6959   5.997   1.425   6.776  0.3524  0.1226 -0.6447
   77SLPC   O22 6960   6.053   1.539   6.787  0.1236  0.9312 -0.4820
   77SLPC   C22 6961   6.048   1.295   6.842 -0.8106 -0.1822  0.0478
   77SLPC   H2R 6962   5.984   1.210   6.813  0.7654 -1.2443 -0.4550
   77SLPC   H2S 6963   6.153   1.282   6.809  0.4343  1.2257  2.9999
   77SLPC    C3 6964   5.701   1.569   6.753 -0.5553 -0.6291 -0.3870
   77SLPC    HX 6965   5.640   1.480   6.779  1.5038 -2.1316 -0.4176
   77SLPC    HY 6966   5.642   1.640   6.692  1.3328 -0.4371 -2.0888
   77SLPC   O31 6967   5.761   1.642   6.866  0.0471 -0.5844  0.5056
   77SLPC   C31 6968   5.784   1.561   6.971 -0.8356 -0.3805  0.4972
   77SLPC   O32 6969   5.746   1.448   6.982 -0.3907  0.0167  0.3699
   77SLPC   C32 6970   5.857   1.625   7.085  0.5965 -0.3318  0.0477
   77SLPC   H2X 6971   5.946   1.562   7.105  0.2705 -0.6694  0.4565
   77SLPC   H2Y 6972   5.796   1.619   7.178  1.2967 -3.1304  0.4096
   77SLPC   C23 6973   6.049   1.309   7.000  0.7941 -0.1293  0.8427
   77SLPC   H3R 6974   5.942   1.300   7.030 -0.3939 -0.0333 -2.9214
   77SLPC   H3S 6975   6.090   1.408   7.030 -0.0880  0.6935 -0.5538
   77SLPC   C24 6976   6.126   1.197   7.066 -0.0506 -0.7005 -0.7364
   77SLPC   H4R 6977   6.224   1.186   7.016 -0.1925 -1.7431 -0.8094
   77SLPC   H4S 6978   6.068   1.103   7.053 -0.4205 -0.6187  0.2751
   77SLPC   C25 6979   6.138   1.205   7.226 -0.4095  0.0029 -0.8322
   77SLPC   H5R 6980   6.188   1.301   7.246  0.2379  0.3209 -3.5820
   77SLPC   H5S 6981   6.206   1.123   7.258 -1.9144 -0.6805  0.8178
   77SLPC   C26 6982   6.001   1.183   7.293  0.0334 -0.2605 -0.1748
   77SLPC   H6R 6983   5.947   1.090   7.263 -0.2239  0.6971 -2.9903
   77SLPC   H6S 6984   5.927   1.259   7.258  1.0846 -0.0862 -2.1931
   77SLPC   C27 6985   6.009   1.200   7.448 -0.4704  0.5327 -0.6704
   77SLPC   H7R 6986   6.038   1.305   7.468 -2.5346  1.0664 -0.1865
   77SLPC   H7S 6987   6.093   1.135   7.481 -0.0241  1.0799 -0.7344
   77SLPC   C28 6988   5.880   1.168   7.524 -0.0834 -1.2303 -0.2216
   77SLPC   H8R 6989   5.804   1.226   7.467  1.9243  1.6188 -0.2233
   77SLPC   H8S 6990   5.874   1.221   7.622 -3.0926 -2.4724  0.3968
   77SLPC   C29 6991   5.849   1.024   7.543 -0.0329 -0.0543  0.2060
   77SLPC   H9R 6992   5.837   0.964   7.452 -1.0712  0.1943  0.1734
   77SLPC  C210 6993   5.821   0.960   7.658  0.9946  0.8189 -0.5795
   77SLPC  H10R 6994   5.791   0.854   7.654  1.1366  0.7773 -0.5601
   77SLPC  C211 6995   5.816   1.018   7.792 -0.4098  0.6370 -0.0656
   77SLPC  H11R 6996   5.778   1.123   7.796  0.1201  0.8898 -1.2682
   77SLPC  H11S 6997   5.920   1.016   7.830 -0.2264 -2.7572 -0.4168
   77SLPC  C212 6998   5.736   0.937   7.886  0.6686  0.0101 -0.4746
   77SLPC  H12R 6999   5.797   0.862   7.939 -1.3195 -1.3146  0.0547
   77SLPC  C213 7000   5.599   0.922   7.899  0.2099 -0.0991  0.0212
   77SLPC  H13R 7001   5.553   0.854   7.971  0.3397 -0.9266 -0.6530
   77SLPC  C214 7002   5.495   1.004   7.815 -0.1394 -0.0328 -0.0046
   77SLPC  H14R 7003   5.407   0.939   7.794 -2.3748  2.4491  1.0670
   77SLPC  H14S 7004   5.528   1.041   7.715 -1.7736  1.6071 -0.0052
   77SLPC  C215 7005   5.451   1.124   7.899 -0.2878  0.2697  0.2430
   77SLPC  H15R 7006   5.396   1.194   7.832  0.1457  0.0995 -0.2867
   77SLPC  H15S 7007   5.536   1.184   7.938 -1.2288  1.3357  0.7123
   77SLPC  C216 7008   5.359   1.083   8.015 -0.1839 -0.1691  0.4621
   77SLPC  H16R 7009   5.304   0.987   8.006 -1.2400  0.4472  0.1800
   77SLPC  H16S 7010   5.284   1.165   8.023  0.3476  0.1708  2.3813
   77SLPC  C217 7011   5.436   1.070   8.144  0.2060  0.3809 -0.2644
   77SLPC  H17R 7012   5.440   1.157   8.213 -1.3768  1.5557 -1.5728
   77SLPC  H17S 7013   5.539   1.049   8.110  0.0034  1.3045 -1.4798
   77SLPC  C218 7014   5.391   0.947   8.221  0.6023  1.3397  0.3711
   77SLPC  H18R 7015   5.289   0.962   8.264  0.3967  1.4944 -0.1727
   77SLPC  H18S 7016   5.465   0.920   8.299  0.0389 -2.3865 -0.2214
   77SLPC  H18T 7017   5.382   0.863   8.150 -2.2456  1.5454  0.3737
   77SLPC   C33 7018   5.901   1.772   7.056 -0.5986 -0.1885 -0.4501
   77SLPC   H3X 7019   5.816   1.828   7.012 -0.9645 -1.0239 -0.8332
   77SLPC   H3Y 7020   5.982   1.773   6.979  0.3625 -0.1198  0.5466
   77SLPC   C34 7021   5.965   1.855   7.168 -0.2336 -0.5093 -1.0129
   77SLPC   H4X 7022   6.019   1.942   7.124  0.4057 -1.2884 -1.8002
   77SLPC   H4Y 7023   6.044   1.792   7.213 -0.4419 -0.2100 -0.2236
   77SLPC   C35 7024   5.868   1.890   7.281  0.4345  0.8957 -0.4264
   77SLPC   H5X 7025   5.869   1.801   7.347 -0.0295 -0.3865 -2.0822
   77SLPC   H5Y 7026   5.766   1.913   7.244  0.1004  0.1442  0.0144
   77SLPC   C36 7027   5.907   2.003   7.370  0.2797 -0.3532 -0.0257
   77SLPC   H6X 7028   5.824   2.031   7.439 -0.4889 -1.7674 -0.3481
   77SLPC   H6Y 7029   5.931   2.095   7.311  0.3417 -0.1352  0.3341
   77SLPC   C37 7030   6.021   1.970   7.467 -0.1832 -1.4607  0.2040
   77SLPC   H7X 7031   6.061   2.064   7.511 -0.7775 -1.1532  0.1008
   77SLPC   H7Y 7032   6.106   1.931   7.408  0.0049  2.6384 -2.6851
   77SLPC   C38 7033   5.990   1.892   7.593 -0.1149  0.2304 -0.7267
   77SLPC   H8X 7034   5.973   1.786   7.563 -0.5878  0.5574 -1.6634
   77SLPC   H8Y 7035   5.903   1.946   7.636  0.9933  1.3454  0.1978
   77SLPC   C39 7036   6.105   1.892   7.693 -0.1073 -0.3844  0.4829
   77SLPC   H9X 7037   6.119   2.000   7.713 -3.9551  0.4193 -0.2355
   77SLPC   H9Y 7038   6.192   1.863   7.631 -1.1432  1.3275 -1.9053
   77SLPC  C310 7039   6.081   1.805   7.816  0.0483 -0.0761  0.5146
   77SLPC  H10X 7040   6.067   1.699   7.787  0.1330  0.6207 -2.3497
   77SLPC  H10Y 7041   5.995   1.854   7.867  1.3077  2.0068  0.7989
   77SLPC  C311 7042   6.212   1.808   7.903  0.1411  0.1695  0.4745
   77SLPC  H11X 7043   6.227   1.916   7.927 -1.6253  0.0117  2.6331
   77SLPC  H11Y 7044   6.294   1.764   7.843 -1.6184  1.4035 -3.1382
   77SLPC  C312 7045   6.193   1.741   8.043  0.1291  0.3505 -0.2374
   77SLPC  H12X 7046   6.169   1.633   8.037  0.1463  0.1972  1.8608
   77SLPC  H12Y 7047   6.116   1.808   8.087  0.7464  1.1497 -0.3322
   77SLPC  C313 7048   6.329   1.755   8.117  0.1618 -0.5412  0.4049
   77SLPC  H13X 7049   6.364   1.860   8.112  0.8072 -0.6658  1.8308
   77SLPC  H13Y 7050   6.408   1.697   8.066 -0.5448 -0.2956 -1.0154
   77SLPC  C314 7051   6.307   1.718   8.259  0.0977 -0.0889 -0.1149
   77SLPC  H14X 7052   6.259   1.618   8.269 -1.2935  0.5198 -0.5172
   77SLPC  H14Y 7053   6.231   1.786   8.302  2.2457  0.2726  3.6090
   77SLPC  C315 7054   6.431   1.727   8.356  0.3061 -0.0458  0.9779
   77SLPC  H15X 7055   6.390   1.709   8.458 -1.8919  0.1250  0.1934
   77SLPC  H15Y 7056   6.469   1.830   8.349 -0.9858  0.4672  1.1481
   77SLPC  C316 7057   6.532   1.614   8.323 -0.5396 -0.0078  0.1186
   77SLPC  H16X 7058   6.557   1.628   8.215 -0.6684 -3.4273 -0.4793
   77SLPC  H16Y 7059   6.477   1.519   8.336  0.0313 -0.1297  1.8835
   77SLPC  C317 7060   6.668   1.604   8.392 -0.1033 -0.4332 -0.1801
   77SLPC  H17X 7061   6.656   1.592   8.502 -1.2569  1.3483 -0.0560
   77SLPC  H17Y 7062   6.715   1.702   8.367  0.0331  0.6155  3.5752
   77SLPC  C318 7063   6.754   1.486   8.346 -0.3584  0.8063  0.1403
   77SLPC  H18X 7064   6.758   1.484   8.235 -1.8195 -2.3761  0.0157
   77SLPC  H18Y 7065   6.695   1.395   8.372  0.5584  0.0971 -0.1928
   77SLPC  H18Z 7066   6.846   1.493   8.406 -1.4575 -1.0686  2.1710
   78SLPC     N 7067   0.478   3.237   5.922  0.2339  0.0928 -0.3160
   78SLPC   C13 7068   0.384   3.135   5.867 -0.2689 -0.0439  0.0803
   78SLPC  H13A 7069   0.389   3.141   5.759  0.9678 -1.7767  0.0098
   78SLPC  H13B 7070   0.406   3.034   5.896  0.0978 -0.0760 -0.2973
   78SLPC  H13C 7071   0.284   3.158   5.902 -1.7969 -2.2939 -2.4265
   78SLPC   C14 7072   0.451   3.373   5.858  0.3571  0.3383 -0.1363
   78SLPC  H14A 7073   0.471   3.377   5.752 -0.6373  0.9037 -0.3206
   78SLPC  H14B 7074   0.351   3.403   5.885  0.7863  0.9954  0.7747
   78SLPC  H14C 7075   0.506   3.457   5.898 -0.3496  1.1972 -0.8937
   78SLPC   C15 7076   0.612   3.193   5.900 -0.1836  0.0291  0.0059
   78SLPC  H15A 7077   0.628   3.090   5.929  1.9390  0.5875  1.0073
   78SLPC  H15B 7078   0.638   3.184   5.796 -0.0698 -2.0676  0.1719
   78SLPC  H15C 7079   0.680   3.257   5.955 -0.5965 -0.3470  0.9696
   78SLPC   C12 7080   0.463   3.259   6.069  0.3967 -0.7821 -0.0299
   78SLPC  H12A 7081   0.515   3.348   6.099 -1.1842  0.8467 -1.8211
   78SLPC  H12B 7082   0.514   3.182   6.124  2.5490  1.3410  1.1175
   78SLPC   C11 7083   0.320   3.283   6.127  0.0374  0.6850 -0.2538
   78SLPC  H11A 7084   0.337   3.286   6.236  1.9446 -1.9901 -0.3687
   78SLPC  H11B 7085   0.262   3.193   6.097  0.3818 -0.0546  1.2278
   78SLPC     P 7086   0.269   3.532   6.166  0.1372 -0.0924 -0.4179
   78SLPC   O13 7087   0.408   3.582   6.171  0.0172 -0.1780  0.1536
   78SLPC   O14 7088   0.173   3.630   6.110  0.2179 -1.0548 -0.0679
   78SLPC   O12 7089   0.259   3.402   6.079  0.5862 -0.1208 -0.5585
   78SLPC   O11 7090   0.222   3.490   6.308 -0.3678 -0.5360 -0.5215
   78SLPC    C1 7091   0.084   3.449   6.331 -0.0962 -0.5963 -0.2013
   78SLPC    HA 7092   0.021   3.514   6.267  0.3720 -1.2934 -1.4021
   78SLPC    HB 7093   0.071   3.344   6.297  1.4243 -1.0226  0.4216
   78SLPC    C2 7094   0.045   3.465   6.482 -0.2486 -0.9397  0.0522
   78SLPC    HS 7095   0.039   3.576   6.488  0.3935 -0.7113 -2.4310
   78SLPC   O21 7096   0.155   3.408   6.557 -0.7650 -0.5898 -0.0359
   78SLPC   C21 7097   0.174   3.471   6.666 -0.5409 -0.4949 -0.8254
   78SLPC   O22 7098   0.123   3.575   6.705  0.3918 -0.1261  0.1598
   78SLPC   C22 7099   0.270   3.388   6.757  0.6707 -0.9827 -0.1754
   78SLPC   H2R 7100   0.329   3.337   6.678  0.9128  0.3260 -0.8724
   78SLPC   H2S 7101   0.337   3.453   6.817 -0.4779 -0.5058  0.6375
   78SLPC    C3 7102  -0.086   3.399   6.515 -0.0150  0.0110  0.1383
   78SLPC    HX 7103  -0.076   3.292   6.488 -1.3236  0.3017 -1.7042
   78SLPC    HY 7104  -0.170   3.439   6.453  0.0607  0.9659  0.6363
   78SLPC   O31 7105  -0.116   3.404   6.657  0.6747  0.3153 -0.0360
   78SLPC   C31 7106  -0.195   3.505   6.692 -0.3240  0.5951  0.1874
   78SLPC   O32 7107  -0.236   3.591   6.613  0.4341  0.9192  0.3513
   78SLPC   C32 7108  -0.215   3.498   6.843  0.6203 -0.6107 -0.5511
   78SLPC   H2X 7109  -0.115   3.510   6.889  0.3050 -0.2227  0.0464
   78SLPC   H2Y 7110  -0.262   3.403   6.876 -0.1064 -0.3551 -0.8306
   78SLPC   C23 7111   0.206   3.290   6.854  0.0131 -0.3190  0.3897
   78SLPC   H3R 7112   0.289   3.233   6.899  1.0314 -0.8591 -2.0221
   78SLPC   H3S 7113   0.128   3.217   6.824  0.5184 -1.1097  0.9737
   78SLPC   C24 7114   0.163   3.373   6.984 -0.6051  0.4425 -0.5449
   78SLPC   H4R 7115   0.078   3.444   6.970 -0.3496  0.9705  0.4769
   78SLPC   H4S 7116   0.251   3.430   7.023 -1.9989  1.9285  0.5738
   78SLPC   C25 7117   0.110   3.272   7.096 -0.0228  0.4969  0.1639
   78SLPC   H5R 7118   0.181   3.186   7.098 -0.9183 -0.3109 -1.1879
   78SLPC   H5S 7119   0.016   3.228   7.056  1.4325 -2.1297 -0.5792
   78SLPC   C26 7120   0.092   3.321   7.244  0.2837 -0.2822 -0.6234
   78SLPC   H6R 7121   0.043   3.420   7.243  0.7452 -0.0444 -0.2951
   78SLPC   H6S 7122   0.193   3.330   7.290 -0.1433 -0.5957  0.4059
   78SLPC   C27 7123   0.006   3.229   7.320 -0.3578 -0.8909 -0.3542
   78SLPC   H7R 7124   0.061   3.134   7.336  0.4204 -0.2505  1.0115
   78SLPC   H7S 7125  -0.079   3.208   7.252 -0.6042 -1.8535  0.2258
   78SLPC   C28 7126  -0.037   3.282   7.462  0.5169 -0.0113  0.0223
   78SLPC   H8R 7127  -0.147   3.265   7.469  0.4317  0.8447  1.1460
   78SLPC   H8S 7128  -0.028   3.392   7.450 -1.7393  0.2522  0.3157
   78SLPC   C29 7129   0.043   3.228   7.579 -0.5902  0.3610  0.6665
   78SLPC   H9R 7130   0.150   3.251   7.572 -0.3161 -1.0944 -0.5871
   78SLPC  C210 7131  -0.004   3.162   7.688 -0.2851  0.2814  0.0977
   78SLPC  H10R 7132   0.068   3.113   7.755 -1.3669 -1.9247 -0.2740
   78SLPC  C211 7133  -0.148   3.124   7.709 -0.5365  0.9893  0.6604
   78SLPC  H11R 7134  -0.147   3.021   7.750  3.7534  0.8975  0.6896
   78SLPC  H11S 7135  -0.187   3.122   7.605 -0.9190  1.2057  0.7964
   78SLPC  C212 7136  -0.221   3.223   7.799 -0.8835 -0.1846  0.8016
   78SLPC  H12R 7137  -0.241   3.322   7.756  0.8483  1.2839  3.1646
   78SLPC  C213 7138  -0.261   3.202   7.922  0.0528  0.2083 -0.4302
   78SLPC  H13R 7139  -0.322   3.271   7.982  0.4575 -0.1478  0.4078
   78SLPC  C214 7140  -0.249   3.065   7.988 -0.3324  0.2065  0.0867
   78SLPC  H14R 7141  -0.154   3.013   7.964  0.2381  0.2431  2.0962
   78SLPC  H14S 7142  -0.333   3.001   7.951 -0.6445  1.2878 -1.1628
   78SLPC  C215 7143  -0.249   3.068   8.143  0.3035  0.0785  1.0204
   78SLPC  H15R 7144  -0.162   3.132   8.169 -0.4665  1.7948 -0.4045
   78SLPC  H15S 7145  -0.229   2.968   8.185 -2.2252 -0.0307  2.1156
   78SLPC  C216 7146  -0.391   3.121   8.201 -0.7873  0.3569 -0.0813
   78SLPC  H16R 7147  -0.474   3.102   8.129 -2.4427  2.7833  1.0332
   78SLPC  H16S 7148  -0.381   3.230   8.220  0.3039  0.6215 -1.9792
   78SLPC  C217 7149  -0.422   3.057   8.338  0.0288  0.2740 -0.2133
   78SLPC  H17R 7150  -0.332   3.055   8.403 -0.9933 -2.5976  1.2765
   78SLPC  H17S 7151  -0.435   2.950   8.311  1.0102  0.3879 -1.1914
   78SLPC  C218 7152  -0.537   3.122   8.420 -1.0404 -0.1503 -0.0053
   78SLPC  H18R 7153  -0.535   3.077   8.521  0.8870  0.7725  0.4183
   78SLPC  H18S 7154  -0.635   3.114   8.367 -1.3339  1.7920  0.1610
   78SLPC  H18T 7155  -0.507   3.229   8.417  1.3026 -0.7009  1.5137
   78SLPC   C33 7156  -0.293   3.624   6.885 -0.0782 -0.4029  0.8455
   78SLPC   H3X 7157  -0.386   3.632   6.826  0.9083 -1.2625 -0.9153
   78SLPC   H3Y 7158  -0.231   3.715   6.870 -0.7155 -0.3716 -2.2365
   78SLPC   C34 7159  -0.338   3.618   7.035  0.7577  0.0069  0.0962
   78SLPC   H4X 7160  -0.387   3.520   7.054  1.5883 -0.4580 -0.1293
   78SLPC   H4Y 7161  -0.409   3.700   7.059 -0.7630 -0.9184 -1.0373
   78SLPC   C35 7162  -0.224   3.616   7.139  0.1461 -0.3980  0.4510
   78SLPC   H5X 7163  -0.148   3.695   7.121  1.3118 -1.1359  1.8920
   78SLPC   H5Y 7164  -0.172   3.519   7.119  2.5990  0.9325 -0.1105
   78SLPC   C36 7165  -0.278   3.628   7.280 -0.1928 -0.4142 -0.5185
   78SLPC   H6X 7166  -0.324   3.531   7.310 -0.9418  0.8949  3.0141
   78SLPC   H6Y 7167  -0.343   3.718   7.287  1.9232  1.0735  1.1360
   78SLPC   C37 7168  -0.172   3.643   7.389 -0.4886  0.3037 -0.0338
   78SLPC   H7X 7169  -0.131   3.746   7.385 -0.4318  0.4131  2.1385
   78SLPC   H7Y 7170  -0.093   3.573   7.355  0.9482  0.8033  2.0905
   78SLPC   C38 7171  -0.217   3.614   7.538  0.1238 -1.1023  0.9947
   78SLPC   H8X 7172  -0.137   3.665   7.596  0.6847 -1.0002  0.1583
   78SLPC   H8Y 7173  -0.232   3.508   7.566  1.5589 -0.8364  3.0234
   78SLPC   C39 7174  -0.334   3.698   7.582  0.5501 -0.1554  0.0736
   78SLPC   H9X 7175  -0.412   3.707   7.503 -0.2660  0.1909  0.8913
   78SLPC   H9Y 7176  -0.290   3.799   7.597 -1.4828  0.6566  0.9584
   78SLPC  C310 7177  -0.395   3.646   7.713 -0.8528 -0.1499 -0.3538
   78SLPC  H10X 7178  -0.443   3.549   7.685 -1.0076  0.4923 -2.4036
   78SLPC  H10Y 7179  -0.462   3.730   7.739  0.6126  0.7324  0.7206
   78SLPC  C311 7180  -0.285   3.635   7.831  0.2578  0.0665 -0.5473
   78SLPC  H11X 7181  -0.228   3.731   7.830 -0.5542  0.5799  0.5147
   78SLPC  H11Y 7182  -0.209   3.554   7.822 -1.2781 -1.7184  1.5106
   78SLPC  C312 7183  -0.355   3.622   7.973 -0.2855 -0.5096  1.1813
   78SLPC  H12X 7184  -0.397   3.521   7.990 -0.6606 -0.4725  0.4984
   78SLPC  H12Y 7185  -0.445   3.686   7.960 -0.3403 -0.9887 -1.1956
   78SLPC  C313 7186  -0.271   3.667   8.087 -1.1066  0.1090 -0.1467
   78SLPC  H13X 7187  -0.342   3.691   8.169 -0.5764 -0.8521  0.6046
   78SLPC  H13Y 7188  -0.211   3.760   8.075 -0.3318  0.3777  4.1978
   78SLPC  C314 7189  -0.190   3.540   8.147 -0.7541 -0.3975 -0.1573
   78SLPC  H14X 7190  -0.109   3.513   8.076 -1.6381 -0.9079 -0.9914
   78SLPC  H14Y 7191  -0.261   3.458   8.168  1.5623 -2.0124  1.9667
   78SLPC  C315 7192  -0.124   3.584   8.280  0.1257 -1.1189  0.4779
   78SLPC  H15X 7193  -0.065   3.676   8.262 -1.0211 -0.5599 -0.6430
   78SLPC  H15Y 7194  -0.047   3.510   8.311  0.6266 -0.7602  0.0976
   78SLPC  C316 7195  -0.214   3.583   8.401 -0.5284  0.4887  0.0709
   78SLPC  H16X 7196  -0.265   3.485   8.410 -0.6138  0.4111 -1.0285
   78SLPC  H16Y 7197  -0.299   3.654   8.388  0.2612  1.0488 -2.9714
   78SLPC  C317 7198  -0.128   3.617   8.521  0.3626 -0.0599 -0.1213
   78SLPC  H17X 7199  -0.051   3.695   8.499 -1.2000  1.3314 -0.8464
   78SLPC  H17Y 7200  -0.070   3.528   8.553 -2.1306 -1.1607  1.5715
   78SLPC  C318 7201  -0.209   3.669   8.639  0.3709 -0.6906 -0.2220
   78SLPC  H18X 7202  -0.240   3.776   8.633  1.1566 -0.2455  2.5178
   78SLPC  H18Y 7203  -0.159   3.658   8.737  0.0454 -0.1646  0.0084
   78SLPC  H18Z 7204  -0.303   3.610   8.637 -0.9218  1.1763  1.1517
   79SLPC     N 7205   0.136   3.947   6.453  1.0165  0.3525 -0.2948
   79SLPC   C13 7206   0.002   3.889   6.494 -0.7664  0.4198  0.4411
   79SLPC  H13A 7207  -0.074   3.955   6.454  1.1276  2.9062  0.6848
   79SLPC  H13B 7208  -0.002   3.787   6.459  0.4356  0.2835  0.6398
   79SLPC  H13C 7209  -0.006   3.890   6.602  0.2606  0.3669  0.5301
   79SLPC   C14 7210   0.239   3.869   6.526 -0.3029  0.1257 -0.0499
   79SLPC  H14A 7211   0.241   3.762   6.510  1.7152 -0.5204  3.4483
   79SLPC  H14B 7212   0.339   3.905   6.509 -0.7803  2.3106  1.3342
   79SLPC  H14C 7213   0.234   3.882   6.633  0.6980  3.8509 -0.3283
   79SLPC   C15 7214   0.154   4.090   6.490 -0.1740  0.2385 -0.1671
   79SLPC  H15A 7215   0.248   4.124   6.449 -0.1958 -0.2601 -0.6330
   79SLPC  H15B 7216   0.073   4.152   6.454  0.3183  1.7884  1.2731
   79SLPC  H15C 7217   0.139   4.105   6.596  1.2129 -2.0031  0.4005
   79SLPC   C12 7218   0.149   3.929   6.303 -0.4113 -0.2162 -0.2844
   79SLPC  H12A 7219   0.094   4.007   6.253  0.0729  0.2228 -0.1275
   79SLPC  H12B 7220   0.094   3.843   6.268  0.1928 -0.4369 -0.7064
   79SLPC   C11 7221   0.285   3.927   6.240 -0.6122 -0.3535 -0.1280
   79SLPC  H11A 7222   0.275   3.908   6.131 -0.1660  1.7016 -0.5588
   79SLPC  H11B 7223   0.344   3.842   6.283  0.4303 -0.3268 -1.4476
   79SLPC     P 7224   0.490   4.085   6.319  0.2761 -0.2529  0.3342
   79SLPC   O13 7225   0.590   4.066   6.212  0.6044 -0.1137 -0.1590
   79SLPC   O14 7226   0.473   4.223   6.377 -0.2599  0.2107 -0.0153
   79SLPC   O12 7227   0.342   4.060   6.271 -0.1211 -0.7335 -0.0362
   79SLPC   O11 7228   0.516   3.975   6.431 -0.3842 -0.0059 -0.1247
   79SLPC    C1 7229   0.612   4.004   6.535  0.0968 -0.4619 -0.4420
   79SLPC    HA 7230   0.692   3.927   6.535  2.6560  2.0141 -1.1883
   79SLPC    HB 7231   0.673   4.096   6.527  0.7631 -0.0492  5.1442
   79SLPC    C2 7232   0.558   4.017   6.684 -0.3278  0.3633  0.7599
   79SLPC    HS 7233   0.643   4.050   6.748 -0.6742  0.5347  1.1366
   79SLPC   O21 7234   0.502   3.889   6.735 -0.8489 -0.7271  0.5687
   79SLPC   C21 7235   0.596   3.807   6.784 -0.0679 -0.5020  0.1552
   79SLPC   O22 7236   0.714   3.825   6.803 -0.2880  0.0165 -0.0287
   79SLPC   C22 7237   0.525   3.669   6.812 -0.3890 -0.0167  0.2041
   79SLPC   H2R 7238   0.420   3.679   6.775 -0.5062 -1.1821  0.1819
   79SLPC   H2S 7239   0.568   3.591   6.746 -0.7563 -0.0414 -0.0126
   79SLPC    C3 7240   0.449   4.126   6.695  0.4807 -0.3461  1.0612
   79SLPC    HX 7241   0.368   4.098   6.624  1.1664  0.3465 -0.0186
   79SLPC    HY 7242   0.501   4.216   6.656 -2.0906  0.6889 -0.2141
   79SLPC   O31 7243   0.415   4.138   6.831  0.0223  0.5861  0.0723
   79SLPC   C31 7244   0.307   4.076   6.879  0.3611  0.2176  0.4277
   79SLPC   O32 7245   0.239   3.997   6.819  0.3068  0.1628  0.0038
   79SLPC   C32 7246   0.271   4.127   7.020  0.8192  0.3810  0.4382
   79SLPC   H2X 7247   0.218   4.225   7.013 -0.0165 -0.1582 -1.3287
   79SLPC   H2Y 7248   0.368   4.146   7.071  0.6856 -0.1343  0.8895
   79SLPC   C23 7249   0.549   3.619   6.947 -0.1395 -0.5879  0.4374
   79SLPC   H3R 7250   0.641   3.668   6.987  0.4264 -0.3763 -1.0617
   79SLPC   H3S 7251   0.557   3.508   6.941  1.9012 -0.4670  0.2243
   79SLPC   C24 7252   0.438   3.654   7.049 -0.1811 -0.6314 -0.0176
   79SLPC   H4R 7253   0.340   3.621   7.010  0.0093 -0.8506 -0.3054
   79SLPC   H4S 7254   0.405   3.760   7.055 -0.6052 -0.6044 -2.1723
   79SLPC   C25 7255   0.467   3.613   7.189 -0.4951  0.7727  0.3819
   79SLPC   H5R 7256   0.566   3.647   7.227 -0.6069  0.3834  1.0388
   79SLPC   H5S 7257   0.466   3.502   7.195 -0.3556  0.7513  0.0071
   79SLPC   C26 7258   0.372   3.674   7.288  0.3807 -0.9092 -0.4254
   79SLPC   H6R 7259   0.272   3.628   7.273 -0.9224  0.5480  2.8971
   79SLPC   H6S 7260   0.366   3.785   7.285 -0.6323 -0.9517 -0.2300
   79SLPC   C27 7261   0.407   3.643   7.438  0.5776 -0.3021 -0.0066
   79SLPC   H7R 7262   0.333   3.689   7.507  2.3179  2.9730 -0.0881
   79SLPC   H7S 7263   0.510   3.675   7.466 -0.0605 -0.1341  2.3534
   79SLPC   C28 7264   0.420   3.493   7.466  0.8466 -0.3632 -0.0393
   79SLPC   H8R 7265   0.510   3.460   7.410  0.1964 -0.1942 -1.2225
   79SLPC   H8S 7266   0.333   3.441   7.421 -0.1026  0.4158  0.8557
   79SLPC   C29 7267   0.421   3.454   7.610 -0.2936  0.2110  0.6536
   79SLPC   H9R 7268   0.320   3.428   7.646 -2.2260  1.7672 -3.0737
   79SLPC  C210 7269   0.529   3.476   7.684 -0.0123  0.3029  0.3012
   79SLPC  H10R 7270   0.533   3.435   7.786 -0.0622  0.6469  0.4438
   79SLPC  C211 7271   0.664   3.524   7.634  0.3021  0.4207  0.0489
   79SLPC  H11R 7272   0.706   3.547   7.734 -0.6208  0.6355  0.3929
   79SLPC  H11S 7273   0.666   3.628   7.595 -0.4742  0.4403  0.0518
   79SLPC  C212 7274   0.748   3.429   7.564  0.3838  0.5925  0.2656
   79SLPC  H12R 7275   0.729   3.329   7.605 -1.6662  0.6990 -0.3175
   79SLPC  C213 7276   0.830   3.452   7.461 -0.7421 -0.1845 -0.2001
   79SLPC  H13R 7277   0.900   3.373   7.429 -0.5523  0.4176 -1.3062
   79SLPC  C214 7278   0.853   3.589   7.411 -0.2030 -0.0822  0.0903
   79SLPC  H14R 7279   0.907   3.640   7.493 -0.9362 -1.3299  1.3836
   79SLPC  H14S 7280   0.764   3.655   7.405  1.0941  1.6296 -1.9695
   79SLPC  C215 7281   0.939   3.598   7.277  0.0086 -0.0572  0.5374
   79SLPC  H15R 7282   0.930   3.700   7.235  1.2473  0.1903  0.8594
   79SLPC  H15S 7283   0.908   3.525   7.198  0.2492 -0.6120  0.9497
   79SLPC  C216 7284   1.094   3.579   7.303 -0.2475 -0.7021  0.2350
   79SLPC  H16R 7285   1.121   3.509   7.385  2.8568 -1.5542 -1.3752
   79SLPC  H16S 7286   1.124   3.678   7.342 -0.7374 -0.7937  0.8689
   79SLPC  C217 7287   1.187   3.554   7.184  0.0180 -0.1786  0.0505
   79SLPC  H17R 7288   1.285   3.557   7.236 -1.5199 -0.6466  3.2522
   79SLPC  H17S 7289   1.183   3.635   7.108  3.0740 -0.2344 -0.3093
   79SLPC  C218 7290   1.171   3.425   7.098  0.4168  0.4503  0.8375
   79SLPC  H18R 7291   1.179   3.331   7.157 -4.1290 -1.1342 -0.6117
   79SLPC  H18S 7292   1.252   3.424   7.023 -1.4702  0.1208 -1.3020
   79SLPC  H18T 7293   1.070   3.409   7.054  0.1627  1.0883  1.1717
   79SLPC   C33 7294   0.181   4.019   7.094 -0.4219 -0.1736  0.0290
   79SLPC   H3X 7295   0.257   3.938   7.091  2.1032  2.0683 -0.6213
   79SLPC   H3Y 7296   0.088   4.011   7.034 -2.4408  3.2719  2.3374
   79SLPC   C34 7297   0.140   4.060   7.235  1.0469  0.1471  0.0135
   79SLPC   H4X 7298   0.071   4.147   7.247  1.3706  0.2549  1.1310
   79SLPC   H4Y 7299   0.237   4.079   7.284  2.6345 -1.9589 -2.0676
   79SLPC   C35 7300   0.076   3.946   7.311 -0.1175  0.4865 -0.1659
   79SLPC   H5X 7301   0.147   3.860   7.311  1.8264  1.9791  1.3353
   79SLPC   H5Y 7302  -0.020   3.918   7.263 -0.9495  0.8218  1.2569
   79SLPC   C36 7303   0.033   3.985   7.456  0.3036 -0.3518  0.0182
   79SLPC   H6X 7304  -0.014   3.896   7.502  2.0161  0.0233  2.6833
   79SLPC   H6Y 7305  -0.050   4.058   7.450 -0.6101 -1.2250  1.5427
   79SLPC   C37 7306   0.137   4.050   7.549  0.3183 -0.2097 -0.3036
   79SLPC   H7X 7307   0.169   4.146   7.504  0.4905 -0.2709 -0.3106
   79SLPC   H7Y 7308   0.225   3.985   7.568  0.4987  0.6255  1.9337
   79SLPC   C38 7309   0.080   4.081   7.687  0.6403  0.1123  0.8830
   79SLPC   H8X 7310  -0.011   4.142   7.667  0.8248 -0.1592 -1.0613
   79SLPC   H8Y 7311   0.154   4.136   7.749  1.1504  0.0356  0.3525
   79SLPC   C39 7312   0.022   3.951   7.760  0.4133 -0.0655 -0.0191
   79SLPC   H9X 7313  -0.054   3.905   7.694  0.3279  1.5871 -1.1372
   79SLPC   H9Y 7314  -0.034   3.998   7.843  2.0520 -0.7529  1.5634
   79SLPC  C310 7315   0.125   3.854   7.806 -0.1891 -0.3172 -0.5730
   79SLPC  H10X 7316   0.209   3.903   7.860 -1.7187  0.7601  0.8976
   79SLPC  H10Y 7317   0.164   3.801   7.716  0.3668  0.3960 -0.7629
   79SLPC  C311 7318   0.075   3.759   7.918  0.1415 -0.2297 -1.0505
   79SLPC  H11X 7319  -0.027   3.716   7.902 -0.3105 -1.0593  2.9377
   79SLPC  H11Y 7320   0.074   3.824   8.008 -0.0820 -1.2580 -0.2842
   79SLPC  C312 7321   0.178   3.645   7.950 -0.0600  0.4923  0.2591
   79SLPC  H12X 7322   0.179   3.620   8.059  0.5211 -0.6495  0.0088
   79SLPC  H12Y 7323   0.279   3.683   7.927  0.4318 -0.1488  1.2543
   79SLPC  C313 7324   0.163   3.512   7.869 -0.6511  0.3012 -0.2595
   79SLPC  H13X 7325   0.192   3.532   7.764 -2.4218  0.7395 -0.6983
   79SLPC  H13Y 7326   0.061   3.475   7.846 -0.9435  0.3905  0.8101
   79SLPC  C314 7327   0.219   3.382   7.939  0.1455  0.1568  1.0592
   79SLPC  H14X 7328   0.326   3.387   7.969  1.0415 -0.4016 -1.7307
   79SLPC  H14Y 7329   0.223   3.302   7.862  0.9159  0.3762  0.8605
   79SLPC  C315 7330   0.138   3.334   8.055  0.0188  0.2801  0.1164
   79SLPC  H15X 7331   0.040   3.288   8.030 -0.2163 -0.0830  1.5905
   79SLPC  H15Y 7332   0.117   3.418   8.124 -0.2584 -0.3376  0.8053
   79SLPC  C316 7333   0.224   3.231   8.129 -0.2798 -0.0296  0.6720
   79SLPC  H16X 7334   0.333   3.247   8.120 -0.1882 -1.1370 -0.3334
   79SLPC  H16Y 7335   0.206   3.131   8.084  0.4463  0.2013 -0.1612
   79SLPC  C317 7336   0.179   3.219   8.273  0.3178  1.2950 -0.8696
   79SLPC  H17X 7337   0.071   3.194   8.278 -0.1822  3.2923 -0.9309
   79SLPC  H17Y 7338   0.181   3.317   8.325 -2.6671  0.8890  0.1576
   79SLPC  C318 7339   0.264   3.124   8.359 -0.4537 -0.3203  0.6082
   79SLPC  H18X 7340   0.246   3.017   8.331 -0.8786  0.3091 -1.7103
   79SLPC  H18Y 7341   0.232   3.146   8.463 -1.1968 -0.4155  0.4069
   79SLPC  H18Z 7342   0.371   3.151   8.352 -0.0374 -0.9035  3.5563
   80SLPC     N 7343   0.886   1.024   6.159  0.4263  0.1068 -0.3816
   80SLPC   C13 7344   0.941   0.942   6.271  0.4458 -0.5929 -0.3080
   80SLPC  H13A 7345   0.989   1.019   6.328  0.0326  0.7624 -1.7247
   80SLPC  H13B 7346   0.859   0.904   6.331 -1.3057  2.0124 -0.8752
   80SLPC  H13C 7347   1.007   0.870   6.225 -0.5163 -0.4341 -2.0305
   80SLPC   C14 7348   0.796   0.941   6.075  0.4111 -0.1498  0.2010
   80SLPC  H14A 7349   0.745   1.006   6.005 -1.0842 -0.5689  0.8569
   80SLPC  H14B 7350   0.850   0.869   6.016 -0.5622 -0.1074 -0.7808
   80SLPC  H14C 7351   0.710   0.907   6.131  0.8129 -3.0746 -0.8155
   80SLPC   C15 7352   0.994   1.071   6.068 -0.2694 -0.0818  0.0042
   80SLPC  H15A 7353   1.053   0.982   6.051 -0.8115 -0.1276 -1.8323
   80SLPC  H15B 7354   0.960   1.104   5.972 -1.4444 -0.0445  0.4152
   80SLPC  H15C 7355   1.058   1.142   6.120  1.8815 -3.3055  2.1619
   80SLPC   C12 7356   0.817   1.147   6.210  0.0908 -0.3538 -0.4888
   80SLPC  H12A 7357   0.771   1.196   6.125  1.1283  0.9649 -0.3392
   80SLPC  H12B 7358   0.885   1.218   6.255  1.7617 -2.4423  0.4693
   80SLPC   C11 7359   0.711   1.128   6.314 -0.8966 -0.0231 -0.1006
   80SLPC  H11A 7360   0.696   1.232   6.351  4.5695  0.8819  0.3745
   80SLPC  H11B 7361   0.746   1.064   6.398  0.2201  0.5453 -0.1151
   80SLPC     P 7362   0.482   1.147   6.193  0.1381 -0.3102 -0.2884
   80SLPC   O13 7363   0.545   1.261   6.125  0.1924  0.6219  0.2455
   80SLPC   O14 7364   0.402   1.055   6.104  0.7121 -0.5963  0.3945
   80SLPC   O12 7365   0.594   1.067   6.258  0.0279  0.4432 -0.1970
   80SLPC   O11 7366   0.396   1.201   6.322  0.1626 -0.7319  0.2628
   80SLPC    C1 7367   0.359   1.339   6.350 -0.4928 -0.5545  0.8197
   80SLPC    HA 7368   0.355   1.411   6.266 -1.2233  0.1424  1.4366
   80SLPC    HB 7369   0.255   1.358   6.384 -0.9059  1.4939 -1.3274
   80SLPC    C2 7370   0.448   1.385   6.470  0.9152 -0.4145 -0.3795
   80SLPC    HS 7371   0.389   1.477   6.492  3.3691  1.1675 -0.0976
   80SLPC   O21 7372   0.584   1.420   6.427 -0.1006 -0.0852  0.3653
   80SLPC   C21 7373   0.619   1.545   6.465 -0.3137 -0.7912  0.0207
   80SLPC   O22 7374   0.544   1.630   6.511 -0.1448  0.1460  0.2695
   80SLPC   C22 7375   0.768   1.560   6.441 -0.2320  0.3675  0.0420
   80SLPC   H2R 7376   0.818   1.483   6.504 -2.9132 -0.2383  1.5872
   80SLPC   H2S 7377   0.787   1.529   6.336 -1.2237 -0.4431  0.0956
   80SLPC    C3 7378   0.438   1.282   6.582 -0.1397  0.5731 -0.2587
   80SLPC    HX 7379   0.488   1.195   6.535 -1.0946  0.3650 -0.9057
   80SLPC    HY 7380   0.332   1.268   6.613 -0.4635  1.6017 -0.8648
   80SLPC   O31 7381   0.518   1.323   6.698  0.8079 -1.0069 -0.1199
   80SLPC   C31 7382   0.503   1.245   6.801 -0.3814  0.1371  0.2821
   80SLPC   O32 7383   0.453   1.135   6.799 -0.0861 -0.1522  0.1726
   80SLPC   C32 7384   0.578   1.307   6.912  0.2165 -0.2312  0.2445
   80SLPC   H2X 7385   0.565   1.417   6.914  0.0187 -0.2596  1.5993
   80SLPC   H2Y 7386   0.687   1.286   6.908  0.3840  0.5713  0.4217
   80SLPC   C23 7387   0.820   1.695   6.487 -0.3923  0.0980 -0.0251
   80SLPC   H3R 7388   0.738   1.761   6.452  1.3219  0.5933 -3.5898
   80SLPC   H3S 7389   0.911   1.726   6.432  0.3645 -0.9407  0.5890
   80SLPC   C24 7390   0.826   1.726   6.641 -0.1436 -0.0055  0.4113
   80SLPC   H4R 7391   0.736   1.697   6.700 -0.0744  1.0198  1.0439
   80SLPC   H4S 7392   0.824   1.836   6.655  0.7377  0.0810 -0.0787
   80SLPC   C25 7393   0.949   1.652   6.704 -0.3078  0.2487 -0.5091
   80SLPC   H5R 7394   1.041   1.687   6.653 -0.7794  0.2641 -1.3751
   80SLPC   H5S 7395   0.941   1.542   6.692  3.1903 -0.2219  0.5237
   80SLPC   C26 7396   0.962   1.685   6.849 -0.0173  0.0469 -0.3392
   80SLPC   H6R 7397   0.957   1.794   6.868  0.1866  0.2337 -1.3165
   80SLPC   H6S 7398   1.058   1.645   6.889 -2.3319 -2.8795  2.9606
   80SLPC   C27 7399   0.839   1.624   6.923  0.6843  0.0588 -0.3094
   80SLPC   H7R 7400   0.808   1.532   6.870  2.3493 -0.8315  0.2050
   80SLPC   H7S 7401   0.753   1.695   6.924  2.9524  2.9954  1.3269
   80SLPC   C28 7402   0.871   1.579   7.073 -0.6374 -0.8847  0.1993
   80SLPC   H8R 7403   0.777   1.550   7.125 -1.4440 -0.6086 -1.0467
   80SLPC   H8S 7404   0.902   1.672   7.126 -0.4583 -1.5446  1.2753
   80SLPC   C29 7405   0.972   1.471   7.088 -0.3345  0.2811  0.4152
   80SLPC   H9R 7406   0.941   1.384   7.029  1.5278 -0.4079  0.3727
   80SLPC  C210 7407   1.084   1.462   7.163 -0.3808 -0.5182 -0.3168
   80SLPC  H10R 7408   1.138   1.366   7.159  0.8178 -0.0055  2.1660
   80SLPC  C211 7409   1.148   1.563   7.252 -0.0650 -0.1213 -0.4119
   80SLPC  H11R 7410   1.068   1.634   7.279  0.4608 -0.1589  1.3781
   80SLPC  H11S 7411   1.230   1.617   7.199 -0.4228  0.8867  0.0473
   80SLPC  C212 7412   1.192   1.504   7.383  0.5945  0.1856  0.0523
   80SLPC  H12R 7413   1.166   1.398   7.402  3.8900 -0.3427  2.3876
   80SLPC  C213 7414   1.275   1.566   7.465  0.7772  0.1745 -0.3610
   80SLPC  H13R 7415   1.312   1.511   7.552 -0.9537 -2.5830 -1.2343
   80SLPC  C214 7416   1.336   1.701   7.444 -0.0874 -0.6208 -0.3107
   80SLPC  H14R 7417   1.262   1.768   7.396  1.3561  1.1163 -0.2406
   80SLPC  H14S 7418   1.432   1.708   7.389 -1.4304  0.9233 -2.6153
   80SLPC  C215 7419   1.373   1.780   7.575  0.6122  0.0582 -0.1307
   80SLPC  H15R 7420   1.306   1.759   7.661  2.7239 -0.7613  1.4402
   80SLPC  H15S 7421   1.380   1.886   7.544  1.1155 -0.1434 -0.7314
   80SLPC  C216 7422   1.518   1.729   7.616 -0.5856  0.4154 -0.1649
   80SLPC  H16R 7423   1.578   1.718   7.523  0.2035 -2.1031  0.5631
   80SLPC  H16S 7424   1.494   1.632   7.665 -0.7192 -0.8436 -2.5532
   80SLPC  C217 7425   1.588   1.821   7.722  0.4250  0.6546  0.9217
   80SLPC  H17R 7426   1.519   1.856   7.802 -1.7187 -0.6099 -0.2623
   80SLPC  H17S 7427   1.617   1.917   7.675  1.3573  0.3113  0.7680
   80SLPC  C218 7428   1.706   1.744   7.789 -0.0387 -0.4601  0.1620
   80SLPC  H18R 7429   1.674   1.671   7.867  0.5592 -0.3256  0.5388
   80SLPC  H18S 7430   1.766   1.824   7.839 -1.7771  2.4633 -2.0824
   80SLPC  H18T 7431   1.771   1.707   7.707 -0.4909  0.6274 -0.7181
   80SLPC   C33 7432   0.523   1.250   7.047  0.3940  0.3021 -0.7413
   80SLPC   H3X 7433   0.523   1.139   7.055  0.6724  0.3339 -0.2039
   80SLPC   H3Y 7434   0.415   1.270   7.057  0.6270  1.1523  0.2439
   80SLPC   C34 7435   0.588   1.325   7.164 -0.2763  1.0587 -0.0371
   80SLPC   H4X 7436   0.563   1.431   7.146 -2.9840  0.5277  0.1610
   80SLPC   H4Y 7437   0.696   1.302   7.174 -0.7815 -1.0952  1.1238
   80SLPC   C35 7438   0.530   1.288   7.297 -0.0727 -0.0783 -0.1621
   80SLPC   H5X 7439   0.536   1.179   7.317  0.6607  0.6524  4.9359
   80SLPC   H5Y 7440   0.423   1.316   7.286  0.3393  2.1634  1.0608
   80SLPC   C36 7441   0.612   1.355   7.413 -0.4380 -0.4831 -0.4407
   80SLPC   H6X 7442   0.717   1.323   7.393  0.2869  1.4462  0.0507
   80SLPC   H6Y 7443   0.582   1.317   7.513  1.1427 -0.6325  0.0118
   80SLPC   C37 7444   0.600   1.508   7.426 -0.6501  0.1677  0.7354
   80SLPC   H7X 7445   0.491   1.523   7.444 -0.4564  1.5956  0.8198
   80SLPC   H7Y 7446   0.601   1.560   7.328 -2.1328 -1.4944 -0.2105
   80SLPC   C38 7447   0.693   1.577   7.521  0.2622  0.4677 -0.7456
   80SLPC   H8X 7448   0.714   1.524   7.616 -1.0220 -0.8072 -1.1463
   80SLPC   H8Y 7449   0.645   1.672   7.551 -1.1693 -0.4513 -0.0039
   80SLPC   C39 7450   0.822   1.615   7.447  0.3862 -0.3436 -0.2262
   80SLPC   H9X 7451   0.810   1.653   7.343 -0.9541  1.3297  0.4830
   80SLPC   H9Y 7452   0.879   1.523   7.421  1.0127  0.4756 -1.8978
   80SLPC  C310 7453   0.906   1.717   7.537  0.5129 -1.0291  0.1885
   80SLPC  H10X 7454   0.849   1.812   7.544 -1.6245 -2.3291  1.5747
   80SLPC  H10Y 7455   1.000   1.724   7.479  0.8490 -3.0106  0.4037
   80SLPC  C311 7456   0.937   1.691   7.680 -0.1146 -0.1987 -0.4993
   80SLPC  H11X 7457   1.003   1.602   7.668 -0.9018 -1.0178  0.9071
   80SLPC  H11Y 7458   0.845   1.662   7.735 -1.5960  1.0852 -2.1927
   80SLPC  C312 7459   1.013   1.804   7.753  0.5766 -0.3914  0.1392
   80SLPC  H12X 7460   0.936   1.879   7.782  1.3803  0.5790 -0.1533
   80SLPC  H12Y 7461   1.079   1.864   7.686 -1.1014  0.8315 -0.4930
   80SLPC  C313 7462   1.084   1.747   7.877 -0.5625  0.0697 -0.9540
   80SLPC  H13X 7463   1.143   1.655   7.858 -0.9591 -0.5821  0.7601
   80SLPC  H13Y 7464   1.007   1.714   7.950  0.9365  2.2336  1.8042
   80SLPC  C314 7465   1.162   1.865   7.933 -0.5471  0.1389  0.1048
   80SLPC  H14X 7466   1.089   1.937   7.974  0.4115  0.6402  0.9777
   80SLPC  H14Y 7467   1.227   1.915   7.859  0.6191 -0.9610  0.3432
   80SLPC  C315 7468   1.255   1.803   8.042  0.5246  0.6493  0.4686
   80SLPC  H15X 7469   1.293   1.704   8.008  0.9213  0.5792  1.1029
   80SLPC  H15Y 7470   1.199   1.780   8.135 -2.3897 -0.4369 -1.4197
   80SLPC  C316 7471   1.384   1.886   8.074 -0.3358  0.3910 -0.1220
   80SLPC  H16X 7472   1.359   1.968   8.144  0.2882 -0.2774  0.9149
   80SLPC  H16Y 7473   1.399   1.927   7.972  0.0074 -0.6138 -0.4872
   80SLPC  C317 7474   1.504   1.805   8.135 -0.1265  0.3006  0.5052
   80SLPC  H17X 7475   1.536   1.720   8.072  0.2208  1.9510 -1.6701
   80SLPC  H17Y 7476   1.461   1.749   8.222  3.0023 -1.6682  0.9278
   80SLPC  C318 7477   1.625   1.892   8.176 -0.3109 -0.2140  0.5032
   80SLPC  H18X 7478   1.612   1.959   8.264 -1.1382  2.4535 -1.5409
   80SLPC  H18Y 7479   1.650   1.960   8.092  1.9075 -1.0842  0.3816
   80SLPC  H18Z 7480   1.714   1.826   8.178  1.8641  2.3283 -2.7375
   81SAPS     N 7481   6.371   4.744  10.868  1.0654  0.5735  0.2145
   81SAPS   HN1 7482   6.381   4.641  10.877  2.0154  0.7070  0.7884
   81SAPS   HN2 7483   6.311   4.759  10.784  1.2372 -1.1382 -0.2493
   81SAPS   HN3 7484   6.466   4.783  10.847  0.5628  0.9493 -1.5572
   81SAPS   C12 7485   6.302   4.811  10.987  0.2554 -0.1960  0.2549
   81SAPS  H12A 7486   6.199   4.781  10.985 -0.1641  1.2109 -0.4670
   81SAPS   C13 7487   6.371   4.787  11.122  0.0773  0.0562 -0.0781
   81SAPS  O13A 7488   6.487   4.738  11.121 -0.3313  0.8499 -0.4127
   81SAPS  O13B 7489   6.335   4.843  11.230 -0.0490  0.4348  0.4849
   81SAPS   C11 7490   6.301   4.962  10.953 -0.3744  0.1605 -0.3726
   81SAPS  H11A 7491   6.395   4.988  10.901  1.1583  0.8641  2.5107
   81SAPS  H11B 7492   6.283   5.021  11.045 -1.1796 -1.9952  0.9348
   81SAPS     P 7493   6.126   5.107  10.847  0.0240 -0.0591  0.4270
   81SAPS   O13 7494   6.001   5.093  10.774 -0.2151 -0.0239  0.6722
   81SAPS   O14 7495   6.125   5.182  10.975 -0.5828  0.1046  0.7740
   81SAPS   O12 7496   6.192   4.970  10.868 -0.4206  0.7944  0.0306
   81SAPS   O11 7497   6.224   5.178  10.746  0.0800 -0.2980  0.3111
   81SAPS    C1 7498   6.190   5.158  10.606 -0.1370 -0.2618  0.4137
   81SAPS    HA 7499   6.284   5.165  10.547  0.1746 -1.1028  0.8057
   81SAPS    HB 7500   6.153   5.060  10.569 -0.6270  0.5462 -1.3505
   81SAPS    C2 7501   6.104   5.272  10.544  0.3650 -0.6993  0.5312
   81SAPS    HS 7502   5.995   5.253  10.555  0.3673  0.2341  2.6319
   81SAPS   O21 7503   6.140   5.303  10.405 -0.5227  0.0361 -0.1388
   81SAPS   C21 7504   6.073   5.239  10.311  0.0507 -0.5878  0.6914
   81SAPS   O22 7505   5.991   5.152  10.328 -0.0438 -0.2402  0.3117
   81SAPS   C22 7506   6.115   5.288  10.172 -0.5253 -0.3957 -0.9744
   81SAPS   H2R 7507   6.040   5.360  10.132  1.0864  1.2607 -1.1567
   81SAPS   H2S 7508   6.215   5.335  10.177 -1.0241  0.8876 -2.0008
   81SAPS    C3 7509   6.130   5.402  10.624  0.1220 -0.6749 -0.8191
   81SAPS    HX 7510   6.239   5.422  10.633 -0.1025 -0.4234  2.2999
   81SAPS    HY 7511   6.097   5.395  10.730  1.2880  1.4106 -0.2717
   81SAPS   O31 7512   6.063   5.521  10.566  0.2428 -0.0696  0.2837
   81SAPS   C31 7513   5.945   5.558  10.622 -1.1039  0.2428  0.7420
   81SAPS   O32 7514   5.889   5.491  10.710 -0.1625  0.1493 -0.6314
   81SAPS   C32 7515   5.912   5.701  10.573 -1.6603  0.4397 -0.1344
   81SAPS   H2X 7516   6.007   5.759  10.574 -1.1792 -0.3184  1.0859
   81SAPS   H2Y 7517   5.850   5.747  10.653 -1.4311  1.8336 -0.7302
   81SAPS   C23 7518   6.128   5.171  10.066  0.1002  0.8528 -0.9585
   81SAPS   H3R 7519   6.027   5.125  10.062  0.8079 -1.3529  2.4222
   81SAPS   H3S 7520   6.191   5.089  10.105 -3.4591 -1.9767 -0.5918
   81SAPS   C24 7521   6.172   5.232   9.934 -0.3887  0.6402  0.1107
   81SAPS   H4R 7522   6.270   5.280   9.954 -1.0465  1.6142  1.1131
   81SAPS   H4S 7523   6.097   5.311   9.911 -0.6667  0.3169 -0.1009
   81SAPS   C25 7524   6.197   5.128   9.834  0.2063  0.0065  0.2862
   81SAPS   H5R 7525   6.237   5.034   9.874 -2.4583 -1.4707 -0.2559
   81SAPS   C26 7526   6.147   5.128   9.706  0.8484 -0.4318  0.0160
   81SAPS   H6R 7527   6.166   5.040   9.641 -2.3524  0.0902 -1.8196
   81SAPS   C27 7528   6.059   5.238   9.646  0.1573 -0.2312  0.2075
   81SAPS   H7R 7529   6.141   5.297   9.598 -0.7896  1.1758  0.2470
   81SAPS   H7S 7530   6.018   5.305   9.725  1.3375 -2.3217  2.7314
   81SAPS   C28 7531   5.953   5.200   9.545 -0.2282 -0.7751  0.2310
   81SAPS   H8R 7532   5.856   5.172   9.589 -0.6559 -1.1686 -0.9198
   81SAPS   C29 7533   5.972   5.195   9.410  0.4658  0.3349 -0.7390
   81SAPS   H9R 7534   5.880   5.166   9.356  0.5260 -2.6797  0.5901
   81SAPS  C210 7535   6.090   5.221   9.317  0.6187  0.3367  0.2493
   81SAPS  H10R 7536   6.117   5.329   9.322 -1.9595  1.1673 -1.5727
   81SAPS  H10S 7537   6.059   5.200   9.213  0.7584  0.2836  0.2180
   81SAPS  C211 7538   6.219   5.150   9.334 -0.4017 -0.1999  0.1278
   81SAPS  H11R 7539   6.246   5.124   9.438  0.7542 -2.3995 -0.6627
   81SAPS  C212 7540   6.302   5.109   9.234 -0.2857  0.8714  0.2837
   81SAPS  H12R 7541   6.391   5.047   9.255 -0.2664 -0.7342 -3.7407
   81SAPS  C213 7542   6.275   5.142   9.092 -0.5505 -0.0088  0.2045
   81SAPS  H13R 7543   6.368   5.184   9.049 -0.8471 -1.8930 -2.5503
   81SAPS  H13S 7544   6.211   5.231   9.074  0.0509  0.3270 -0.3256
   81SAPS  C214 7545   6.220   5.029   9.011 -0.5891 -0.3443 -0.3541
   81SAPS  H14R 7546   6.117   4.998   9.033 -0.5388 -0.5590 -0.4133
   81SAPS  C215 7547   6.285   4.952   8.918 -0.0415 -0.8999  0.5192
   81SAPS  H15R 7548   6.224   4.881   8.860  0.1041 -0.8470  0.2971
   81SAPS  C216 7549   6.430   4.980   8.874  0.8813  0.7541  0.3787
   81SAPS  H16R 7550   6.477   4.880   8.874 -2.0212 -0.7505  2.7044
   81SAPS  H16S 7551   6.490   5.037   8.948  1.7842  0.1312  0.1377
   81SAPS  C217 7552   6.435   5.051   8.737  0.2689  0.1932 -0.8879
   81SAPS  H17R 7553   6.385   5.150   8.737 -0.3835  0.0155  2.7192
   81SAPS  H17S 7554   6.380   4.989   8.664  1.4149  0.9605 -2.4606
   81SAPS  C218 7555   6.573   5.071   8.675 -0.1355 -0.0253 -0.7536
   81SAPS  H18R 7556   6.635   4.987   8.713  1.4603  1.8882  1.1673
   81SAPS  H18S 7557   6.618   5.165   8.715 -1.6902  0.3714  0.1185
   81SAPS  C219 7558   6.589   5.069   8.530  0.3212 -0.1502  0.2736
   81SAPS  H19R 7559   6.525   5.149   8.488 -2.0784 -2.3869 -0.6326
   81SAPS  H19S 7560   6.542   4.978   8.488  0.4095 -1.0010  1.9396
   81SAPS  C220 7561   6.731   5.082   8.470 -0.0711 -0.5895 -0.5093
   81SAPS  H20R 7562   6.731   5.084   8.359  0.6136 -1.1935 -0.5284
   81SAPS  H20S 7563   6.798   5.002   8.508 -0.1109 -0.8178 -0.9096
   81SAPS  H20T 7564   6.761   5.181   8.510 -1.3324  0.0599 -1.1270
   81SAPS   C33 7565   5.850   5.709  10.436  0.0879 -0.4203 -0.8047
   81SAPS   H3X 7566   5.832   5.818  10.419 -2.4652 -0.7083 -0.4683
   81SAPS   H3Y 7567   5.747   5.666  10.433 -0.3585  0.6224 -1.1733
   81SAPS   C34 7568   5.936   5.652  10.327 -0.2309 -0.3315  0.2931
   81SAPS   H4X 7569   5.943   5.541  10.334 -1.0442 -0.3890  0.3038
   81SAPS   H4Y 7570   6.037   5.699  10.331 -1.2908  2.0012  1.8775
   81SAPS   C35 7571   5.871   5.694  10.200 -0.9664 -0.8420 -0.3202
   81SAPS   H5X 7572   5.843   5.801  10.213  1.4257 -0.2125  0.0867
   81SAPS   H5Y 7573   5.780   5.632  10.187 -1.4584 -0.0713 -0.6449
   81SAPS   C36 7574   5.957   5.669  10.079  0.6925  0.1156 -0.7929
   81SAPS   H6X 7575   5.999   5.567  10.093 -0.4559 -0.3549 -0.6374
   81SAPS   H6Y 7576   6.037   5.746  10.074  1.4437 -0.6592 -1.0750
   81SAPS   C37 7577   5.885   5.673   9.947  0.1433  0.0388 -0.0303
   81SAPS   H7X 7578   5.834   5.772   9.940 -2.0531 -1.1225 -2.3205
   81SAPS   H7Y 7579   5.796   5.606   9.953 -0.0320  0.1067 -1.4767
   81SAPS   C38 7580   5.984   5.642   9.832 -1.1406 -0.4584 -0.4931
   81SAPS   H8X 7581   6.037   5.545   9.839  0.5884  0.5303  1.0505
   81SAPS   H8Y 7582   6.063   5.719   9.843  0.2510 -1.8735 -0.1697
   81SAPS   C39 7583   5.922   5.675   9.693 -0.7962 -0.0750  1.6681
   81SAPS   H9X 7584   5.879   5.778   9.697 -2.4277 -0.6918  0.9515
   81SAPS   H9Y 7585   5.844   5.600   9.666 -1.1086  1.3546 -1.9495
   81SAPS  C310 7586   6.015   5.641   9.573 -0.5049 -0.1282  0.6020
   81SAPS  H10X 7587   6.052   5.540   9.600 -0.4483  0.1460  1.5749
   81SAPS  H10Y 7588   6.098   5.716   9.570 -2.1815  1.8556  1.3135
   81SAPS  C311 7589   5.936   5.642   9.437 -0.0065 -0.3360  0.6180
   81SAPS  H11X 7590   5.889   5.739   9.411 -0.9981 -1.1335 -0.7330
   81SAPS  H11Y 7591   5.851   5.571   9.447  0.4990 -0.9046  0.9105
   81SAPS  C312 7592   6.008   5.595   9.311  0.8277 -0.2144  0.6112
   81SAPS  H12X 7593   5.942   5.579   9.224  2.8181 -0.1649 -0.9784
   81SAPS  H12Y 7594   6.054   5.496   9.336  2.1034  0.0466 -0.5920
   81SAPS  C313 7595   6.124   5.680   9.257 -0.3430  0.3318  0.3900
   81SAPS  H13X 7596   6.206   5.706   9.327  1.2445 -2.7505 -0.1479
   81SAPS  H13Y 7597   6.096   5.780   9.216  0.8065  1.4166  2.1410
   81SAPS  C314 7598   6.199   5.607   9.147 -0.4660 -0.1833  0.9307
   81SAPS  H14X 7599   6.223   5.505   9.185  2.7863  0.3351  0.5435
   81SAPS  H14Y 7600   6.294   5.659   9.122  0.7637 -3.1000 -0.9028
   81SAPS  C315 7601   6.112   5.575   9.025  0.6838 -0.7315 -0.0404
   81SAPS  H15X 7602   6.070   5.670   8.984 -0.7360 -1.0001  0.7604
   81SAPS  H15Y 7603   6.031   5.507   9.057 -1.1798  0.6411 -1.5606
   81SAPS  C316 7604   6.200   5.505   8.915  0.5584 -0.4397 -0.7931
   81SAPS  H16X 7605   6.252   5.429   8.977 -0.3599 -1.1674 -0.8961
   81SAPS  H16Y 7606   6.286   5.570   8.887 -0.1640  0.4817 -0.9585
   81SAPS  C317 7607   6.115   5.459   8.797  0.0053 -0.2348 -0.2113
   81SAPS  H17X 7608   6.087   5.554   8.746  1.7510  1.6918  2.1800
   81SAPS  H17Y 7609   6.022   5.416   8.840 -0.5838  1.8238  0.7071
   81SAPS  C318 7610   6.173   5.356   8.707  0.5859  0.4525 -0.5279
   81SAPS  H18X 7611   6.179   5.259   8.760 -0.5453 -1.4366 -3.6255
   81SAPS  H18Y 7612   6.275   5.387   8.676  0.8232  1.4782  1.1695
   81SAPS  H18Z 7613   6.120   5.327   8.614  2.1165 -0.1401 -1.2432
   82SAPS     N 7614   5.177   4.067  10.685  0.7279 -0.3745 -0.2305
   82SAPS   HN1 7615   5.156   4.152  10.628  1.3058 -0.4522 -0.5699
   82SAPS   HN2 7616   5.275   4.063  10.719 -0.3296 -1.3340  3.1308
   82SAPS   HN3 7617   5.158   3.988  10.620  1.3795 -0.0084 -0.8852
   82SAPS   C12 7618   5.078   4.065  10.801  0.2632 -0.0553 -0.1059
   82SAPS  H12A 7619   4.991   4.022  10.754 -0.2360  1.1225 -0.3028
   82SAPS   C13 7620   5.126   3.964  10.907  0.2435 -0.9711 -0.1633
   82SAPS  O13A 7621   5.246   3.924  10.915  0.6023  0.4103  0.2051
   82SAPS  O13B 7622   5.053   3.967  11.009  0.4612 -0.1586  0.3206
   82SAPS   C11 7623   5.071   4.206  10.850 -0.9382  0.4038  0.2021
   82SAPS  H11A 7624   5.173   4.250  10.861 -0.2235 -0.8031 -1.1374
   82SAPS  H11B 7625   5.031   4.199  10.953 -0.9565 -1.0244  0.1165
   82SAPS     P 7626   5.003   4.366  10.641  0.0563 -0.2537 -0.4045
   82SAPS   O13 7627   5.077   4.489  10.679 -0.0559  0.8079  0.2391
   82SAPS   O14 7628   5.069   4.279  10.549 -0.2737 -0.3315  0.2543
   82SAPS   O12 7629   4.973   4.278  10.775 -0.0010  0.1587 -0.3118
   82SAPS   O11 7630   4.859   4.407  10.582  0.5070  0.3543  0.7263
   82SAPS    C1 7631   4.769   4.301  10.581 -0.0791  0.2620  0.4081
   82SAPS    HA 7632   4.774   4.241  10.675  1.0399  1.7769  1.3721
   82SAPS    HB 7633   4.669   4.349  10.594 -0.7045 -1.5236  3.0841
   82SAPS    C2 7634   4.773   4.220  10.444  0.3983  0.4132 -0.7193
   82SAPS    HS 7635   4.868   4.165  10.454 -0.1551 -0.4779 -0.3217
   82SAPS   O21 7636   4.777   4.328  10.345 -0.7572  0.0493 -0.1657
   82SAPS   C21 7637   4.838   4.294  10.238 -0.3335  0.2815  0.5290
   82SAPS   O22 7638   4.895   4.190  10.208 -0.0098 -0.1609 -0.2364
   82SAPS   C22 7639   4.830   4.412  10.141 -0.2977  0.6036  0.4236
   82SAPS   H2R 7640   4.732   4.462  10.158 -0.2829  0.7118  0.1911
   82SAPS   H2S 7641   4.905   4.489  10.169 -1.0738  2.3015 -1.7773
   82SAPS    C3 7642   4.652   4.120  10.429 -0.0074 -0.3424 -0.0593
   82SAPS    HX 7643   4.563   4.186  10.444  1.4685  2.6413 -3.1301
   82SAPS    HY 7644   4.652   4.044  10.510  0.2679 -0.9479 -0.6290
   82SAPS   O31 7645   4.651   4.044  10.307 -0.1141 -0.5318 -0.1580
   82SAPS   C31 7646   4.555   4.056  10.219  0.0349 -0.3246  0.1450
   82SAPS   O32 7647   4.458   4.136  10.223 -0.5006  0.0497 -0.2972
   82SAPS   C32 7648   4.567   3.947  10.122 -0.7372 -0.7499 -0.1885
   82SAPS   H2X 7649   4.504   3.868  10.168 -0.3512  0.1970  2.0775
   82SAPS   H2Y 7650   4.672   3.913  10.129 -0.6969 -1.0900 -1.9646
   82SAPS   C23 7651   4.843   4.386   9.990  0.3518  0.3209 -0.3820
   82SAPS   H3R 7652   4.808   4.474   9.933 -1.0469 -0.8513 -1.4255
   82SAPS   H3S 7653   4.771   4.307   9.960  0.6850 -0.3897  0.6202
   82SAPS   C24 7654   4.977   4.350   9.937  0.5691 -0.1049  0.0310
   82SAPS   H4R 7655   5.020   4.260   9.985 -1.3396 -0.0192  2.0770
   82SAPS   H4S 7656   5.045   4.429   9.976  0.5764 -0.8879  1.6761
   82SAPS   C25 7657   4.967   4.327   9.788  0.0943  0.1412 -0.1059
   82SAPS   H5R 7658   4.888   4.258   9.758  0.7124 -0.6367  0.0161
   82SAPS   C26 7659   5.039   4.395   9.693 -1.1171 -0.5365 -0.1270
   82SAPS   H6R 7660   5.028   4.391   9.583  0.1886  1.9696 -0.4202
   82SAPS   C27 7661   5.145   4.496   9.720 -0.7163  0.3381 -0.4312
   82SAPS   H7R 7662   5.215   4.501   9.634  0.9537  2.0316  0.9220
   82SAPS   H7S 7663   5.213   4.461   9.801 -1.0642 -2.2640 -1.2046
   82SAPS   C28 7664   5.089   4.631   9.764  0.0105 -0.7909 -0.0146
   82SAPS   H8R 7665   5.024   4.635   9.852  0.3798  1.1129  0.2261
   82SAPS   C29 7666   5.098   4.753   9.700  0.0633  0.9557 -0.1126
   82SAPS   H9R 7667   5.042   4.837   9.742 -1.3073  0.1233 -0.2167
   82SAPS  C210 7668   5.172   4.780   9.569  0.0115 -0.4919  0.5264
   82SAPS  H10R 7669   5.238   4.695   9.543  0.9245  0.3982 -0.0905
   82SAPS  H10S 7670   5.243   4.859   9.603 -0.6588 -0.6858  2.5272
   82SAPS  C211 7671   5.097   4.830   9.451 -0.2491  0.3904 -0.2734
   82SAPS  H11R 7672   5.088   4.939   9.450  0.4744  0.4544 -0.8481
   82SAPS  C212 7673   5.054   4.758   9.343 -0.2734 -0.2295 -0.7314
   82SAPS  H12R 7674   4.998   4.812   9.264  0.8742  2.0361 -0.0843
   82SAPS  C213 7675   5.073   4.604   9.335 -0.1919 -0.0632 -0.3510
   82SAPS  H13R 7676   5.127   4.552   9.417  0.1394  2.8348  1.3841
   82SAPS  H13S 7677   5.137   4.583   9.246 -0.0994 -0.3800 -0.2131
   82SAPS  C214 7678   4.942   4.537   9.321  0.4822 -0.2407  0.7881
   82SAPS  H14R 7679   4.886   4.528   9.416  2.6744  1.2838  2.3340
   82SAPS  C215 7680   4.888   4.487   9.206 -0.3974 -0.0070  0.0164
   82SAPS  H15R 7681   4.789   4.443   9.224 -0.9101  1.6493  1.5768
   82SAPS  C216 7682   4.948   4.488   9.071  0.5440 -0.7083  1.2052
   82SAPS  H16R 7683   4.922   4.400   9.008 -2.8984  1.6059 -0.9395
   82SAPS  H16S 7684   5.059   4.491   9.070  0.5361  0.0155  1.7468
   82SAPS  C217 7685   4.884   4.608   8.988  0.0176  0.4879  0.2855
   82SAPS  H17R 7686   4.905   4.705   9.039 -2.2997  1.4032 -0.4019
   82SAPS  H17S 7687   4.776   4.596   8.968  0.3493  0.3946 -1.5886
   82SAPS  C218 7688   4.957   4.624   8.852  0.3680  0.3197 -0.5995
   82SAPS  H18R 7689   5.067   4.612   8.864 -0.0561 -4.3286  0.7738
   82SAPS  H18S 7690   4.927   4.724   8.813 -0.9423 -0.6433 -2.2028
   82SAPS  C219 7691   4.915   4.526   8.743 -0.3323 -0.2525  0.6710
   82SAPS  H19R 7692   4.815   4.558   8.708  1.4401  2.7412 -2.3140
   82SAPS  H19S 7693   4.901   4.423   8.781  1.4811 -0.9797 -0.4753
   82SAPS  C220 7694   5.009   4.534   8.622 -0.6739 -0.1168  1.1851
   82SAPS  H20R 7695   5.046   4.637   8.601 -0.1037 -0.8634 -2.0279
   82SAPS  H20S 7696   4.964   4.486   8.533  1.1090 -1.0949  0.7470
   82SAPS  H20T 7697   5.100   4.475   8.648 -0.7341 -1.4788 -1.4594
   82SAPS   C33 7698   4.533   3.987   9.979 -0.3897 -0.2054  0.1981
   82SAPS   H3X 7699   4.477   4.083   9.971  2.2354  1.4351  0.4270
   82SAPS   H3Y 7700   4.469   3.910   9.931  0.0030  0.5737 -1.6685
   82SAPS   C34 7701   4.649   3.994   9.887 -0.2452  0.2283  0.0031
   82SAPS   H4X 7702   4.717   3.907   9.895 -1.2065 -0.4714  0.8758
   82SAPS   H4Y 7703   4.722   4.077   9.898 -0.1399  0.1438 -0.0747
   82SAPS   C35 7704   4.600   3.995   9.745 -0.6664  0.3618  0.0152
   82SAPS   H5X 7705   4.528   4.077   9.726  1.1616  2.2660  0.9933
   82SAPS   H5Y 7706   4.555   3.894   9.733 -0.1482 -0.1466  1.9830
   82SAPS   C36 7707   4.725   4.014   9.640  1.0462 -0.1133 -0.4151
   82SAPS   H6X 7708   4.789   3.924   9.646  0.2028 -0.7648 -1.1332
   82SAPS   H6Y 7709   4.780   4.099   9.688 -1.4048  1.2234  0.1812
   82SAPS   C37 7710   4.689   4.055   9.499 -0.2179  0.5700  1.2399
   82SAPS   H7X 7711   4.643   4.154   9.483 -0.6574 -0.1162 -2.9021
   82SAPS   H7Y 7712   4.613   3.982   9.463  0.7565 -0.7521  1.7788
   82SAPS   C38 7713   4.813   4.038   9.402  0.6479 -0.2960 -0.0912
   82SAPS   H8X 7714   4.878   3.952   9.430 -2.5385 -2.8914  0.0403
   82SAPS   H8Y 7715   4.872   4.130   9.420  0.0081  0.2793 -0.8453
   82SAPS   C39 7716   4.773   4.028   9.252  0.3502  0.4601  0.7630
   82SAPS   H9X 7717   4.700   3.951   9.222  1.6894 -1.4719  2.1966
   82SAPS   H9Y 7718   4.864   4.005   9.192 -0.8812 -1.0531 -0.6280
   82SAPS  C310 7719   4.735   4.161   9.186  0.8377  0.4155 -0.2080
   82SAPS  H10X 7720   4.791   4.243   9.236  1.3086  0.4625 -0.8019
   82SAPS  H10Y 7721   4.629   4.175   9.217  1.0641  0.5980  0.5138
   82SAPS  C311 7722   4.743   4.164   9.038  0.3933  0.0254  0.3104
   82SAPS  H11X 7723   4.852   4.147   9.033  0.5756  0.6777  1.4912
   82SAPS  H11Y 7724   4.727   4.271   9.012  3.5073  0.3178 -0.7878
   82SAPS  C312 7725   4.647   4.078   8.952 -0.4658 -0.0863 -0.3151
   82SAPS  H12X 7726   4.546   4.104   8.990 -0.1060  1.7965 -0.5634
   82SAPS  H12Y 7727   4.662   3.972   8.981 -2.0817 -0.2080  0.1493
   82SAPS  C313 7728   4.649   4.099   8.798 -0.0776 -0.1046 -0.4969
   82SAPS  H13X 7729   4.705   4.192   8.775  0.0237 -0.3723 -1.3750
   82SAPS  H13Y 7730   4.540   4.099   8.775 -0.6656 -3.5333  1.4828
   82SAPS  C314 7731   4.714   3.986   8.726  0.3898  0.1428  0.0998
   82SAPS  H14X 7732   4.645   3.899   8.735  0.6274 -0.2955 -1.7414
   82SAPS  H14Y 7733   4.811   3.950   8.765  0.1992 -1.2953 -0.6580
   82SAPS  C315 7734   4.729   4.020   8.578  0.2240  0.1527 -0.2887
   82SAPS  H15X 7735   4.782   3.936   8.529 -0.2165  0.3993 -1.2013
   82SAPS  H15Y 7736   4.800   4.103   8.557  0.5748 -0.4723 -1.6812
   82SAPS  C316 7737   4.602   4.047   8.494  0.2154  0.1729 -0.0790
   82SAPS  H16X 7738   4.631   4.075   8.391  0.1815  0.0326 -0.1274
   82SAPS  H16Y 7739   4.542   4.128   8.540 -1.6050 -1.4476  0.5701
   82SAPS  C317 7740   4.519   3.915   8.481 -0.2158  0.0840 -0.3069
   82SAPS  H17X 7741   4.494   3.881   8.584 -1.2170  1.8416  0.0820
   82SAPS  H17Y 7742   4.577   3.841   8.422 -1.9242  0.5001 -2.6570
   82SAPS  C318 7743   4.379   3.931   8.419 -0.6743  0.1522  0.5590
   82SAPS  H18X 7744   4.320   3.837   8.428 -1.1217  0.3363 -0.3532
   82SAPS  H18Y 7745   4.382   3.956   8.311  0.4799 -0.0549  0.5352
   82SAPS  H18Z 7746   4.318   4.010   8.468 -2.0402 -0.0074 -0.8258
   83SAPS     N 7747   4.937   5.370  10.977  0.0188  0.4502  0.3317
   83SAPS   HN1 7748   4.939   5.351  10.875 -0.4493 -0.7693  0.5288
   83SAPS   HN2 7749   4.852   5.323  11.014 -0.5110  0.8726 -0.3388
   83SAPS   HN3 7750   4.913   5.471  10.980 -1.5878  0.0777  0.9449
   83SAPS   C12 7751   5.069   5.352  11.040  0.5559 -0.5586 -0.7618
   83SAPS  H12A 7752   5.136   5.356  10.955 -1.6739  0.1183 -2.6018
   83SAPS   C13 7753   5.114   5.451  11.144 -0.0578 -0.1943 -0.9239
   83SAPS  O13A 7754   5.045   5.548  11.175  0.3651 -0.1289  0.2512
   83SAPS  O13B 7755   5.234   5.447  11.185  0.6320 -0.1168  0.0610
   83SAPS   C11 7756   5.082   5.206  11.098 -0.0355  0.2227 -0.0440
   83SAPS  H11A 7757   5.010   5.204  11.183 -0.3788  0.0982 -0.3332
   83SAPS  H11B 7758   5.188   5.191  11.129  0.5505  2.0871 -1.0143
   83SAPS     P 7759   5.155   4.983  10.977 -0.1499  0.1713  0.5383
   83SAPS   O13 7760   5.248   5.022  10.865  0.2409  0.5148 -0.0552
   83SAPS   O14 7761   5.217   4.939  11.102 -0.1053 -0.8395  0.2641
   83SAPS   O12 7762   5.050   5.103  11.000  0.0863  0.1305 -0.3868
   83SAPS   O11 7763   5.067   4.863  10.931 -0.2191  0.0949 -0.0917
   83SAPS    C1 7764   4.945   4.882  10.863 -0.1553 -0.0236 -0.0786
   83SAPS    HA 7765   4.906   4.778  10.868 -2.1201  0.7180  2.7454
   83SAPS    HB 7766   4.870   4.942  10.920  0.4021  0.7132 -0.1026
   83SAPS    C2 7767   4.952   4.908  10.708  0.1790 -0.2535  0.0288
   83SAPS    HS 7768   4.858   4.872  10.659  1.1172 -3.1292  0.1432
   83SAPS   O21 7769   5.065   4.838  10.646  0.1423 -0.1400  0.1107
   83SAPS   C21 7770   5.036   4.769  10.529 -0.8728 -0.0169 -0.4096
   83SAPS   O22 7771   4.925   4.727  10.505 -0.1174  0.6007 -0.4096
   83SAPS   C22 7772   5.166   4.738  10.447 -0.3517 -0.1629  0.0589
   83SAPS   H2R 7773   5.255   4.801  10.468  0.1358 -0.7214 -0.3007
   83SAPS   H2S 7774   5.187   4.639  10.492  3.5106  0.7263  0.5756
   83SAPS    C3 7775   4.971   5.061  10.679  0.3799 -0.0581  0.2899
   83SAPS    HX 7776   5.071   5.088  10.720 -0.6047 -0.0330  2.8679
   83SAPS    HY 7777   4.896   5.114  10.741 -1.2962  1.3660 -2.7131
   83SAPS   O31 7778   4.936   5.096  10.543 -0.2537  0.3639 -0.3297
   83SAPS   C31 7779   5.031   5.166  10.487  0.0736  0.1019 -0.1826
   83SAPS   O32 7780   5.148   5.163  10.517  0.5784  0.1541  0.8593
   83SAPS   C32 7781   4.963   5.241  10.374  0.3410  0.3341 -0.3868
   83SAPS   H2X 7782   4.909   5.327  10.420  1.9410  0.5931  1.1071
   83SAPS   H2Y 7783   4.894   5.187  10.305  1.0544  1.1847 -1.8022
   83SAPS   C23 7784   5.142   4.728  10.297 -0.6863 -0.4068  0.1893
   83SAPS   H3R 7785   5.060   4.655  10.280 -1.9495  1.2597 -1.2812
   83SAPS   H3S 7786   5.239   4.708  10.245  0.3012 -1.4855  2.3040
   83SAPS   C24 7787   5.075   4.852  10.233  0.4646 -0.7380 -0.1179
   83SAPS   H4R 7788   4.995   4.894  10.298  1.1660 -0.2462  0.4438
   83SAPS   H4S 7789   5.026   4.822  10.138  1.5124  1.4558 -1.4158
   83SAPS   C25 7790   5.168   4.969  10.215  0.1618  0.1241  0.8584
   83SAPS   H5R 7791   5.222   4.992  10.308  2.8951  1.0536 -0.8279
   83SAPS   C26 7792   5.201   5.028  10.098  0.5820 -0.4778 -0.5652
   83SAPS   H6R 7793   5.267   5.116  10.106 -1.0905  0.6994  0.9887
   83SAPS   C27 7794   5.143   4.997   9.960  0.8036 -0.9644  0.3062
   83SAPS   H7R 7795   5.104   4.895   9.941  0.5177 -0.4199 -2.4786
   83SAPS   H7S 7796   5.230   5.002   9.890  1.6064 -2.4704  1.1498
   83SAPS   C28 7797   5.036   5.094   9.919 -0.0408 -0.0189 -0.3263
   83SAPS   H8R 7798   4.935   5.065   9.954 -0.0457 -0.6724 -0.8732
   83SAPS   C29 7799   5.032   5.196   9.833 -0.5901  0.7781 -0.3212
   83SAPS   H9R 7800   4.952   5.271   9.826  0.0766  1.6114  0.6264
   83SAPS  C210 7801   5.164   5.238   9.768  0.1887 -0.5185 -0.2481
   83SAPS  H10R 7802   5.189   5.157   9.696  0.6455 -1.2993  0.7505
   83SAPS  H10S 7803   5.253   5.244   9.834 -0.1045  0.2911  0.0886
   83SAPS  C211 7804   5.146   5.367   9.691  1.0436  0.8570  0.3105
   83SAPS  H11R 7805   5.163   5.458   9.750 -0.6671  0.0310  2.1982
   83SAPS  C212 7806   5.103   5.371   9.558 -0.4874 -0.2037  0.1926
   83SAPS  H12R 7807   5.078   5.470   9.517 -2.0746  0.2061  1.9913
   83SAPS  C213 7808   5.071   5.265   9.462 -0.4207  0.2559 -0.4293
   83SAPS  H13R 7809   4.992   5.309   9.398  0.3523  0.0167 -1.5950
   83SAPS  H13S 7810   5.016   5.187   9.518 -2.0161  2.4081  1.1506
   83SAPS  C214 7811   5.179   5.218   9.371 -0.2161  0.5991  0.7153
   83SAPS  H14R 7812   5.250   5.148   9.419 -1.1513 -0.6561  0.3203
   83SAPS  C215 7813   5.216   5.266   9.251  0.0197 -0.1499  0.7747
   83SAPS  H15R 7814   5.302   5.215   9.206  1.2912  1.9279  0.7206
   83SAPS  C216 7815   5.141   5.380   9.182 -0.0282  0.3577  0.6585
   83SAPS  H16R 7816   5.120   5.470   9.245 -1.2607  0.4803  0.1141
   83SAPS  H16S 7817   5.049   5.347   9.129  0.7908  1.4338 -1.5435
   83SAPS  C217 7818   5.244   5.429   9.076 -0.0196 -0.1741  0.3188
   83SAPS  H17R 7819   5.343   5.460   9.116  0.1187  0.1561 -0.2760
   83SAPS  H17S 7820   5.196   5.525   9.049  0.3255  0.2353  1.1227
   83SAPS  C218 7821   5.263   5.337   8.951 -0.0818 -0.2235  0.5048
   83SAPS  H18R 7822   5.171   5.277   8.933  0.0699 -0.0226 -1.0641
   83SAPS  H18S 7823   5.328   5.250   8.971 -0.9487 -1.2721 -0.9602
   83SAPS  C219 7824   5.307   5.407   8.821  0.0400  0.0146 -0.2392
   83SAPS  H19R 7825   5.303   5.517   8.827 -0.5326  0.0419 -1.0332
   83SAPS  H19S 7826   5.241   5.373   8.739 -0.8007  0.5081  0.2182
   83SAPS  C220 7827   5.440   5.343   8.781  0.2533 -0.0040 -0.1784
   83SAPS  H20R 7828   5.521   5.379   8.848  0.7931  1.1040 -1.3671
   83SAPS  H20S 7829   5.478   5.372   8.681  1.6721  0.2065  0.4008
   83SAPS  H20T 7830   5.438   5.233   8.790 -1.6158  0.0439  0.4307
   83SAPS   C33 7831   5.072   5.309  10.284  0.9409 -0.2231  0.7167
   83SAPS   H3X 7832   5.126   5.225  10.235  1.2048  0.4886 -0.2556
   83SAPS   H3Y 7833   5.139   5.367  10.351 -0.1660  1.0719  0.7604
   83SAPS   C34 7834   5.026   5.393  10.163 -0.1977 -0.8598 -0.5595
   83SAPS   H4X 7835   4.973   5.480  10.207  0.3541 -0.9750  0.3503
   83SAPS   H4Y 7836   4.963   5.340  10.089 -0.2480  2.0559 -2.7711
   83SAPS   C35 7837   5.130   5.464  10.090 -0.2268 -0.3032  0.3187
   83SAPS   H5X 7838   5.101   5.469   9.983  1.1839 -1.7278 -0.1739
   83SAPS   H5Y 7839   5.218   5.397  10.072 -0.6703 -0.3555 -2.0186
   83SAPS   C36 7840   5.186   5.591  10.155 -0.0808 -0.0728 -0.3356
   83SAPS   H6X 7841   5.197   5.572  10.264 -1.0218 -1.0239 -0.3833
   83SAPS   H6Y 7842   5.116   5.675  10.137 -2.1923 -1.5984  0.3645
   83SAPS   C37 7843   5.322   5.635  10.104 -0.4855 -0.3094 -0.4070
   83SAPS   H7X 7844   5.406   5.563  10.118  1.1779  1.0714 -2.6491
   83SAPS   H7Y 7845   5.360   5.712  10.174  0.0597 -1.4872  0.6393
   83SAPS   C38 7846   5.323   5.686   9.962  0.4171 -0.0177  0.2468
   83SAPS   H8X 7847   5.272   5.783   9.946  1.1082  0.3944  0.5190
   83SAPS   H8Y 7848   5.289   5.609   9.890 -1.9485  1.8664 -0.7674
   83SAPS   C39 7849   5.462   5.719   9.908  0.1226  0.0194 -0.1902
   83SAPS   H9X 7850   5.521   5.626   9.908 -1.0566 -0.7503 -0.3568
   83SAPS   H9Y 7851   5.513   5.783   9.984 -0.3981 -1.7397  1.7358
   83SAPS  C310 7852   5.450   5.775   9.760 -0.0177  0.0677  0.1409
   83SAPS  H10X 7853   5.399   5.874   9.758 -0.4087 -0.1377 -0.4985
   83SAPS  H10Y 7854   5.388   5.702   9.703 -0.1418  1.1251 -1.1188
   83SAPS  C311 7855   5.585   5.796   9.685  0.2551 -0.0418  0.2179
   83SAPS  H11X 7856   5.642   5.705   9.713 -1.3871 -1.0101  0.5462
   83SAPS  H11Y 7857   5.643   5.879   9.730 -0.4529  1.5554 -1.7063
   83SAPS  C312 7858   5.564   5.829   9.536  0.0455  0.8254  0.0780
   83SAPS  H12X 7859   5.666   5.844   9.493  0.1560  1.5914  0.5960
   83SAPS  H12Y 7860   5.519   5.930   9.537  1.1191  1.3225  1.0943
   83SAPS  C313 7861   5.482   5.728   9.460  0.3460 -0.0629 -0.1143
   83SAPS  H13X 7862   5.373   5.734   9.479  0.0655 -0.5570 -1.4282
   83SAPS  H13Y 7863   5.497   5.619   9.478 -1.9388 -0.8107 -2.2041
   83SAPS  C314 7864   5.487   5.741   9.306  0.4439 -0.6229 -0.3595
   83SAPS  H14X 7865   5.449   5.843   9.281 -2.4033 -2.0997 -2.7035
   83SAPS  H14Y 7866   5.421   5.665   9.259  0.2025 -0.8592  0.3458
   83SAPS  C315 7867   5.624   5.733   9.241  0.1297  0.2016 -0.2630
   83SAPS  H15X 7868   5.686   5.646   9.272  1.1708  0.3125 -1.8880
   83SAPS  H15Y 7869   5.683   5.818   9.280  1.4843 -0.6708 -0.3546
   83SAPS  C316 7870   5.614   5.734   9.085 -0.4326 -0.0880 -0.0325
   83SAPS  H16X 7871   5.593   5.830   9.033  1.2273  0.5327  0.3765
   83SAPS  H16Y 7872   5.535   5.660   9.061 -1.3621  1.2721 -1.3279
   83SAPS  C317 7873   5.746   5.675   9.031  0.1771 -0.3060 -0.6451
   83SAPS  H17X 7874   5.761   5.571   9.066  1.1250  0.3163  0.9075
   83SAPS  H17Y 7875   5.836   5.731   9.064  0.9359 -2.5115  1.2852
   83SAPS  C318 7876   5.738   5.663   8.879 -0.2626  0.1329 -0.0868
   83SAPS  H18X 7877   5.732   5.762   8.829 -0.1175 -0.8744 -2.2290
   83SAPS  H18Y 7878   5.653   5.595   8.855  0.0620  0.0203 -0.9537
   83SAPS  H18Z 7879   5.832   5.610   8.854  0.6555  1.6814 -0.0658
   84SAPS     N 7880   1.746   6.144  11.018  0.9771  0.1402 -0.4211
   84SAPS   HN1 7881   1.719   6.241  11.045  0.5415 -0.0156 -0.2903
   84SAPS   HN2 7882   1.669   6.126  10.951 -1.4699  0.6748  2.1011
   84SAPS   HN3 7883   1.730   6.079  11.097 -0.6984  0.0298 -0.8263
   84SAPS   C12 7884   1.884   6.129  10.967 -0.1373  0.1631  0.6841
   84SAPS  H12A 7885   1.948   6.197  11.021  0.9462  0.9612 -1.4812
   84SAPS   C13 7886   1.936   5.985  11.002 -0.4317  1.0876  0.2176
   84SAPS  O13A 7887   1.862   5.896  11.050 -0.1312 -0.6660 -0.0754
   84SAPS  O13B 7888   2.053   5.956  10.959 -0.5727  0.6645  0.0677
   84SAPS   C11 7889   1.872   6.158  10.814  0.3728 -0.0285  0.2919
   84SAPS  H11A 7890   1.793   6.098  10.765 -0.1501  1.6000 -0.9301
   84SAPS  H11B 7891   1.962   6.120  10.761 -0.0511  0.7667 -1.0193
   84SAPS     P 7892   1.946   6.388  10.704 -0.1590  0.0791 -0.2199
   84SAPS   O13 7893   1.873   6.505  10.651 -0.3217 -0.0069 -0.3280
   84SAPS   O14 7894   2.058   6.429  10.791  0.2096  0.8415  0.0274
   84SAPS   O12 7895   1.846   6.295  10.779 -0.1497  0.1016 -0.2042
   84SAPS   O11 7896   2.006   6.305  10.580 -0.0942 -0.9685  0.3835
   84SAPS    C1 7897   1.930   6.206  10.515  0.2598  0.0164 -0.0686
   84SAPS    HA 7898   1.967   6.104  10.541 -0.4850 -0.3145 -0.2639
   84SAPS    HB 7899   1.822   6.216  10.538  0.4419  0.2333  0.7018
   84SAPS    C2 7900   1.924   6.232  10.356  0.3877 -0.3149  0.2103
   84SAPS    HS 7901   1.856   6.156  10.313 -2.3227  2.0323  0.0892
   84SAPS   O21 7902   2.057   6.222  10.301  0.6064  0.2675 -0.4391
   84SAPS   C21 7903   2.058   6.191  10.169 -0.7808 -0.1347  0.1256
   84SAPS   O22 7904   1.967   6.142  10.107  0.2415  0.2917 -0.2214
   84SAPS   C22 7905   2.201   6.216  10.122  0.2956  0.6758 -0.4305
   84SAPS   H2R 7906   2.240   6.313  10.158  1.0327  0.0028  0.6464
   84SAPS   H2S 7907   2.265   6.137  10.168  0.3393  0.8490 -0.1959
   84SAPS    C3 7908   1.874   6.380  10.324 -0.1584  0.0374  0.4542
   84SAPS    HX 7909   1.952   6.458  10.332 -0.1478  0.4806 -2.8420
   84SAPS    HY 7910   1.798   6.418  10.396 -0.5037  2.7505 -1.2053
   84SAPS   O31 7911   1.813   6.381  10.196 -0.2221 -0.0356  0.1039
   84SAPS   C31 7912   1.679   6.380  10.187 -0.4307  0.4709  0.5215
   84SAPS   O32 7913   1.592   6.394  10.271  0.2989  0.1317 -0.1859
   84SAPS   C32 7914   1.653   6.342  10.041 -0.3341 -0.5370 -0.1453
   84SAPS   H2X 7915   1.744   6.285  10.012  0.3577 -0.1978  1.2564
   84SAPS   H2Y 7916   1.644   6.430   9.975  2.4773 -1.5792 -2.1030
   84SAPS   C23 7917   2.220   6.226   9.971 -0.0676  1.0552 -0.4565
   84SAPS   H3R 7918   2.188   6.326   9.934 -0.6575  1.7837  1.8383
   84SAPS   H3S 7919   2.151   6.159   9.915 -0.5980 -0.1447  1.5548
   84SAPS   C24 7920   2.367   6.199   9.932  0.0586 -0.3142  0.2528
   84SAPS   H4R 7921   2.445   6.239  10.000  0.0972 -1.8550  1.1531
   84SAPS   H4S 7922   2.391   6.224   9.827 -3.2502  0.7016 -0.3812
   84SAPS   C25 7923   2.395   6.052   9.943  0.2632  0.3211  0.0437
   84SAPS   H5R 7924   2.451   6.029  10.035  1.3841  1.4578 -0.3275
   84SAPS   C26 7925   2.373   5.946   9.860 -0.3289  0.3587  0.6033
   84SAPS   H6R 7926   2.407   5.844   9.883 -3.7381 -1.0498 -0.0309
   84SAPS   C27 7927   2.311   5.962   9.720 -0.5112  0.7221  0.3577
   84SAPS   H7R 7928   2.255   6.058   9.712 -1.2392  0.2384 -0.5726
   84SAPS   H7S 7929   2.240   5.880   9.695  0.2888  0.7080 -2.1575
   84SAPS   C28 7930   2.411   5.969   9.608  0.2246  0.2608  0.3011
   84SAPS   H8R 7931   2.475   6.058   9.621 -0.8887  0.9818  1.0577
   84SAPS   C29 7932   2.420   5.888   9.499 -0.0039  0.7042 -0.2040
   84SAPS   H9R 7933   2.499   5.910   9.425  0.0148  1.5074  0.0477
   84SAPS  C210 7934   2.346   5.766   9.452  0.3921 -0.1767 -0.7383
   84SAPS  H10R 7935   2.320   5.686   9.525 -0.3951 -0.8295 -1.7036
   84SAPS  H10S 7936   2.408   5.710   9.379  1.1936 -0.5060  0.1788
   84SAPS  C211 7937   2.213   5.800   9.382  0.1012 -0.3574  0.2778
   84SAPS  H11R 7938   2.127   5.804   9.451 -0.4800 -1.8769 -0.3062
   84SAPS  C212 7939   2.199   5.830   9.249  0.4869  0.4187 -0.3223
   84SAPS  H12R 7940   2.099   5.833   9.202  0.5346  1.5812 -0.3622
   84SAPS  C213 7941   2.308   5.828   9.148 -0.3763 -0.2361  0.7517
   84SAPS  H13R 7942   2.407   5.842   9.196 -0.1910  0.2402  0.2382
   84SAPS  H13S 7943   2.312   5.909   9.073  2.5968  0.8592  1.9447
   84SAPS  C214 7944   2.305   5.691   9.082  0.4892  0.3547 -0.1307
   84SAPS  H14R 7945   2.333   5.612   9.154  2.2065  0.7006 -0.3787
   84SAPS  C215 7946   2.275   5.659   8.958  0.2601 -0.3791  1.4798
   84SAPS  H15R 7947   2.264   5.554   8.926  0.2436  0.2083 -0.5833
   84SAPS  C216 7948   2.256   5.760   8.843  0.2270 -0.1312  0.4037
   84SAPS  H16R 7949   2.329   5.747   8.761  1.5761 -3.0231  1.9248
   84SAPS  H16S 7950   2.260   5.863   8.885 -2.6095 -0.4784  1.8122
   84SAPS  C217 7951   2.107   5.747   8.786 -0.5580 -0.5144  0.0056
   84SAPS  H17R 7952   2.086   5.833   8.720 -0.3361 -1.7291 -1.7038
   84SAPS  H17S 7953   2.035   5.756   8.870 -0.2876  1.5018  0.0616
   84SAPS  C218 7954   2.080   5.617   8.708  0.2327  0.2520  0.0536
   84SAPS  H18R 7955   2.097   5.531   8.775 -0.9989 -1.1449 -1.3587
   84SAPS  H18S 7956   2.159   5.597   8.632  0.1474 -1.3400  0.3629
   84SAPS  C219 7957   1.940   5.611   8.643 -0.4203 -0.0128 -0.9462
   84SAPS  H19R 7958   1.851   5.610   8.709 -1.4236 -1.9233 -2.2288
   84SAPS  H19S 7959   1.928   5.516   8.586 -1.4198 -0.7853  0.4918
   84SAPS  C220 7960   1.919   5.713   8.535 -0.7040 -0.6173  0.3980
   84SAPS  H20R 7961   2.015   5.708   8.479 -0.5174 -0.2811  0.6793
   84SAPS  H20S 7962   1.898   5.818   8.566 -2.0945 -0.6697 -0.3166
   84SAPS  H20T 7963   1.834   5.682   8.471  0.3995 -0.4638 -1.2172
   84SAPS   C33 7964   1.527   6.245  10.017  0.2675 -0.0513 -0.1175
   84SAPS   H3X 7965   1.430   6.298  10.022  0.3365 -0.0152  2.5095
   84SAPS   H3Y 7966   1.529   6.166  10.095 -0.3674  0.7852  0.7704
   84SAPS   C34 7967   1.517   6.178   9.875 -0.0129 -0.4114 -0.4800
   84SAPS   H4X 7968   1.462   6.083   9.891 -0.0448  0.0117  2.5958
   84SAPS   H4Y 7969   1.623   6.166   9.843  0.3017 -1.9340  0.9766
   84SAPS   C35 7970   1.439   6.266   9.776  0.0443 -0.2837  0.6899
   84SAPS   H5X 7971   1.480   6.369   9.778 -1.6152  0.4809 -1.5308
   84SAPS   H5Y 7972   1.330   6.263   9.800 -0.1914 -3.4404 -0.2649
   84SAPS   C36 7973   1.443   6.216   9.634  0.2638  0.1113  0.0160
   84SAPS   H6X 7974   1.393   6.118   9.625  4.5600 -2.2198 -1.6644
   84SAPS   H6Y 7975   1.551   6.202   9.611  0.0254  1.8898 -2.5635
   84SAPS   C37 7976   1.403   6.325   9.540 -0.1480 -0.6622  0.3851
   84SAPS   H7X 7977   1.473   6.407   9.568 -0.2541 -0.8205  1.1266
   84SAPS   H7Y 7978   1.297   6.342   9.570  0.0724  0.8520  0.4047
   84SAPS   C38 7979   1.402   6.283   9.395 -0.5475  0.3427  0.5248
   84SAPS   H8X 7980   1.372   6.176   9.390  0.1151  0.1909 -0.4300
   84SAPS   H8Y 7981   1.501   6.300   9.346 -0.6572  1.3439  0.6328
   84SAPS   C39 7982   1.308   6.365   9.310 -0.7742 -0.3059 -0.2681
   84SAPS   H9X 7983   1.342   6.470   9.305 -0.8796 -0.2920 -0.7291
   84SAPS   H9Y 7984   1.211   6.361   9.365 -0.7434  1.3186 -0.0587
   84SAPS  C310 7985   1.299   6.316   9.159  0.5061 -1.1156 -0.7110
   84SAPS  H10X 7986   1.263   6.211   9.165 -0.8207 -0.6751 -0.6706
   84SAPS  H10Y 7987   1.404   6.322   9.124  2.4262  1.2115  4.3462
   84SAPS  C311 7988   1.205   6.393   9.072  0.7380  0.2201 -0.1872
   84SAPS  H11X 7989   1.102   6.367   9.106  1.1831  0.3950  1.3875
   84SAPS  H11Y 7990   1.213   6.355   8.968 -0.0199 -1.5520  0.3745
   84SAPS  C312 7991   1.228   6.545   9.056 -0.5705 -0.4798  0.2257
   84SAPS  H12X 7992   1.295   6.570   9.141  0.7013 -0.2935 -0.8018
   84SAPS  H12Y 7993   1.142   6.615   9.065 -1.3791 -1.2618 -1.0963
   84SAPS  C313 7994   1.319   6.580   8.933  0.3284 -0.0581 -0.2901
   84SAPS  H13X 7995   1.385   6.496   8.903 -0.9156 -1.3336  0.3868
   84SAPS  H13Y 7996   1.387   6.661   8.966 -0.7110  0.6988  0.0885
   84SAPS  C314 7997   1.234   6.636   8.815 -0.6401 -0.9011 -0.1892
   84SAPS  H14X 7998   1.150   6.568   8.789 -1.3572 -0.2668  0.4142
   84SAPS  H14Y 7999   1.295   6.645   8.723 -1.1554 -0.3368 -0.4813
   84SAPS  C315 8000   1.192   6.783   8.842 -0.1793 -0.5044  0.0985
   84SAPS  H15X 8001   1.283   6.846   8.836 -0.7338  0.3089  0.1151
   84SAPS  H15Y 8002   1.160   6.802   8.946 -2.2914  0.7652 -0.7173
   84SAPS  C316 8003   1.087   6.821   8.735  0.0414 -0.2440 -0.3751
   84SAPS  H16X 8004   0.991   6.765   8.741  0.1215 -0.2717  0.9134
   84SAPS  H16Y 8005   1.125   6.799   8.633  0.5416 -1.9627  0.1417
   84SAPS  C317 8006   1.063   6.973   8.727 -0.1191  0.3097 -0.0856
   84SAPS  H17X 8007   1.065   7.014   8.624  1.8029  1.2315  0.2707
   84SAPS  H17Y 8008   1.149   7.023   8.777  0.5551 -0.8160 -0.0785
   84SAPS  C318 8009   0.934   7.015   8.813 -0.3267  0.2679  0.9874
   84SAPS  H18X 8010   0.958   7.022   8.922 -1.7201 -0.0357  1.3310
   84SAPS  H18Y 8011   0.851   6.945   8.791  0.6599 -0.3979 -0.7718
   84SAPS  H18Z 8012   0.903   7.115   8.774 -1.5938 -0.6580 -0.4926
   85SAPS     N 8013   5.480   6.174  10.933  0.1593 -0.1149 -0.1983
   85SAPS   HN1 8014   5.483   6.161  11.036  2.8796  0.4843 -0.1263
   85SAPS   HN2 8015   5.434   6.265  10.909 -0.4863 -0.9760 -2.5422
   85SAPS   HN3 8016   5.412   6.101  10.905  0.4638 -0.2844 -0.5050
   85SAPS   C12 8017   5.602   6.163  10.864  1.2420  0.7529 -0.1572
   85SAPS  H12A 8018   5.583   6.180  10.759  0.8325  2.4601  0.1702
   85SAPS   C13 8019   5.710   6.254  10.928  0.6372 -0.6323 -0.2638
   85SAPS  O13A 8020   5.676   6.355  10.996 -0.0016  0.7273 -0.6733
   85SAPS  O13B 8021   5.827   6.251  10.878  0.0699  0.1734  0.0610
   85SAPS   C11 8022   5.651   6.017  10.879  0.8830 -0.3991  0.5182
   85SAPS  H11A 8023   5.681   6.000  10.985  0.1941 -2.3343  0.4326
   85SAPS  H11B 8024   5.744   5.999  10.822  1.3966 -2.9779  2.0205
   85SAPS     P 8025   5.539   5.785  10.907 -0.3707 -0.1271  0.1394
   85SAPS   O13 8026   5.680   5.748  10.932  0.1941 -0.2912  0.2108
   85SAPS   O14 8027   5.446   5.781  11.017  0.6020 -0.0074 -0.7574
   85SAPS   O12 8028   5.542   5.929  10.840 -0.1217  0.1297  0.9117
   85SAPS   O11 8029   5.477   5.683  10.809  0.6257 -0.3575  0.1438
   85SAPS    C1 8030   5.374   5.720  10.716 -0.6156  0.6217  0.4739
   85SAPS    HA 8031   5.291   5.646  10.709 -0.7805  0.7340  1.1345
   85SAPS    HB 8032   5.320   5.814  10.740 -1.5034  0.2546 -0.0361
   85SAPS    C2 8033   5.414   5.725  10.559  0.0875  0.1452  0.3128
   85SAPS    HS 8034   5.326   5.735  10.491 -0.6203 -1.0846  1.0126
   85SAPS   O21 8035   5.484   5.605  10.527  0.2641  0.1079 -0.6497
   85SAPS   C21 8036   5.406   5.491  10.518  0.2422 -0.0754 -0.1469
   85SAPS   O22 8037   5.286   5.500  10.509  0.2215  0.1565 -0.0687
   85SAPS   C22 8038   5.493   5.362  10.525  0.8841 -0.0268  0.0103
   85SAPS   H2R 8039   5.597   5.402  10.532  0.7847  0.0054  1.8096
   85SAPS   H2S 8040   5.460   5.320  10.622  2.2111 -2.9952 -0.7135
   85SAPS    C3 8041   5.511   5.839  10.528 -0.0039  0.3108 -0.0586
   85SAPS    HX 8042   5.598   5.824  10.596 -0.9945 -0.7658  1.0239
   85SAPS    HY 8043   5.455   5.932  10.554 -1.0325 -0.3376  0.1088
   85SAPS   O31 8044   5.556   5.854  10.391  0.2034  0.5182  0.0382
   85SAPS   C31 8045   5.477   5.927  10.317  0.1946 -0.5509 -0.2176
   85SAPS   O32 8046   5.365   5.968  10.347 -0.2171 -0.0172 -0.4283
   85SAPS   C32 8047   5.554   5.966  10.191 -0.1163 -0.4070  0.2505
   85SAPS   H2X 8048   5.474   6.005  10.125 -0.6123 -0.5583  0.7521
   85SAPS   H2Y 8049   5.603   5.876  10.149 -0.7777 -0.6152 -0.0860
   85SAPS   C23 8050   5.465   5.269  10.407  0.4693  0.2923 -0.4991
   85SAPS   H3R 8051   5.360   5.236  10.395  0.6812 -0.3600 -0.6503
   85SAPS   H3S 8052   5.504   5.165  10.418 -0.5453  0.0206  0.7391
   85SAPS   C24 8053   5.504   5.331  10.267 -0.1431 -0.1272  0.1031
   85SAPS   H4R 8054   5.437   5.420  10.265 -0.0854 -0.0890 -0.1233
   85SAPS   H4S 8055   5.480   5.268  10.179 -0.1021 -0.5081  0.3655
   85SAPS   C25 8056   5.647   5.393  10.242  0.0355 -0.6708 -0.2597
   85SAPS   H5R 8057   5.678   5.471  10.313 -1.2782 -1.5241  1.3121
   85SAPS   C26 8058   5.731   5.362  10.141  0.0831 -0.3565  0.3308
   85SAPS   H6R 8059   5.820   5.427  10.133 -0.1741  0.0411  0.6412
   85SAPS   C27 8060   5.705   5.259  10.039  0.3541 -0.4209 -0.1319
   85SAPS   H7R 8061   5.596   5.247  10.026  0.2347  1.0392 -0.5832
   85SAPS   H7S 8062   5.745   5.158  10.064  3.7434  0.7311 -0.4304
   85SAPS   C28 8063   5.772   5.308   9.906  0.6863  0.2981  0.5319
   85SAPS   H8R 8064   5.880   5.327   9.918  0.8451 -1.3598  2.3933
   85SAPS   C29 8065   5.709   5.342   9.791  0.1757 -0.0965  0.2848
   85SAPS   H9R 8066   5.767   5.367   9.701  0.4078  1.8450  0.9179
   85SAPS  C210 8067   5.558   5.325   9.762  0.0116 -0.5702  0.5776
   85SAPS  H10R 8068   5.533   5.407   9.690 -0.1624 -0.8228  0.3472
   85SAPS  H10S 8069   5.490   5.336   9.849 -1.0022  3.4782 -0.5062
   85SAPS  C211 8070   5.525   5.190   9.697 -0.1483 -0.1277  0.3077
   85SAPS  H11R 8071   5.503   5.115   9.774 -0.4401  2.3410  2.7805
   85SAPS  C212 8072   5.499   5.157   9.568 -0.5288  0.3527 -0.3385
   85SAPS  H12R 8073   5.477   5.051   9.549 -2.0462  0.8225 -1.3179
   85SAPS  C213 8074   5.522   5.239   9.448 -0.2519  0.8451 -0.2224
   85SAPS  H13R 8075   5.443   5.315   9.465 -2.5921 -1.4047 -0.3835
   85SAPS  H13S 8076   5.476   5.172   9.372 -3.1366  2.9093 -0.4574
   85SAPS  C214 8077   5.654   5.304   9.419  0.1595  0.3588 -0.1638
   85SAPS  H14R 8078   5.700   5.330   9.515 -0.9414 -1.9029  1.0628
   85SAPS  C215 8079   5.698   5.341   9.297 -0.8910  0.6139 -0.3137
   85SAPS  H15R 8080   5.796   5.386   9.276 -0.6641  0.2766  0.0122
   85SAPS  C216 8081   5.612   5.314   9.182  0.2630 -0.0153 -0.2933
   85SAPS  H16R 8082   5.604   5.407   9.123 -0.8465 -0.3951 -0.7764
   85SAPS  H16S 8083   5.507   5.293   9.213  0.1871  0.8360  0.0540
   85SAPS  C217 8084   5.661   5.201   9.095 -0.2026  0.2418  0.1641
   85SAPS  H17R 8085   5.592   5.168   9.014 -1.0339 -1.3220  1.4516
   85SAPS  H17S 8086   5.687   5.107   9.149 -3.0927  0.0578  1.4023
   85SAPS  C218 8087   5.792   5.242   9.017  0.0343  0.5237  0.4759
   85SAPS  H18R 8088   5.862   5.287   9.090 -0.8743  1.7015  0.6484
   85SAPS  H18S 8089   5.782   5.333   8.955  0.0537  1.0042  1.1700
   85SAPS  C219 8090   5.835   5.129   8.925 -0.2186  0.0033  0.7484
   85SAPS  H19R 8091   5.835   5.044   8.996 -1.4378  0.5359  1.4181
   85SAPS  H19S 8092   5.935   5.159   8.888 -0.8724  0.7011 -0.5463
   85SAPS  C220 8093   5.736   5.106   8.808  0.1533  0.7425  0.4840
   85SAPS  H20R 8094   5.777   5.020   8.751 -3.3278 -1.1403  0.4985
   85SAPS  H20S 8095   5.733   5.195   8.742  0.4998  0.9770  0.7839
   85SAPS  H20T 8096   5.633   5.077   8.840  0.3944  0.5901  1.1482
   85SAPS   C33 8097   5.659   6.072  10.225 -0.9372 -0.3196  0.1550
   85SAPS   H3X 8098   5.725   6.024  10.301 -1.6217 -1.7504 -0.1396
   85SAPS   H3Y 8099   5.610   6.163  10.265  0.0003  0.5824 -0.6694
   85SAPS   C34 8100   5.741   6.100  10.099  0.3632 -0.2305 -0.7064
   85SAPS   H4X 8101   5.771   6.000  10.060  2.3835 -1.0278  2.4626
   85SAPS   H4Y 8102   5.833   6.157  10.123 -1.0966  1.9119  0.0851
   85SAPS   C35 8103   5.666   6.164   9.981 -0.1698 -0.0832  0.4037
   85SAPS   H5X 8104   5.626   6.267   9.990 -2.5181 -0.6650 -2.0568
   85SAPS   H5Y 8105   5.574   6.106   9.960  0.1634  0.0126 -1.5204
   85SAPS   C36 8106   5.760   6.171   9.855 -0.1475  0.2685 -0.4896
   85SAPS   H6X 8107   5.829   6.085   9.865 -3.7345 -2.8262 -0.4025
   85SAPS   H6Y 8108   5.824   6.262   9.864  1.2673 -0.8430  1.3834
   85SAPS   C37 8109   5.691   6.164   9.719 -0.5165  0.1576 -0.0480
   85SAPS   H7X 8110   5.627   6.254   9.710 -1.6129 -0.4046  1.5272
   85SAPS   H7Y 8111   5.611   6.087   9.729 -1.4915  1.2754  1.2476
   85SAPS   C38 8112   5.782   6.149   9.592 -0.0991  0.1136 -0.7489
   85SAPS   H8X 8113   5.816   6.044   9.591  0.0887  0.1581 -0.0024
   85SAPS   H8Y 8114   5.874   6.210   9.608  0.6963 -1.1463 -0.4483
   85SAPS   C39 8115   5.716   6.193   9.469 -0.0555 -0.3506  0.3483
   85SAPS   H9X 8116   5.673   6.296   9.468 -1.8157 -1.0228 -1.9807
   85SAPS   H9Y 8117   5.630   6.128   9.442  0.0137  0.9643 -3.7878
   85SAPS  C310 8118   5.794   6.162   9.340  0.1025  0.1842 -0.7735
   85SAPS  H10X 8119   5.811   6.053   9.334 -0.0197  0.0482  0.7637
   85SAPS  H10Y 8120   5.895   6.209   9.338  1.4570 -2.3129  1.6761
   85SAPS  C311 8121   5.714   6.195   9.209  0.1722 -0.3241  0.2095
   85SAPS  H11X 8122   5.679   6.300   9.220 -0.4830 -0.5300  0.1536
   85SAPS  H11Y 8123   5.619   6.138   9.212 -1.7507  2.2926 -3.1690
   85SAPS  C312 8124   5.793   6.192   9.070  0.2418 -0.1060 -0.5188
   85SAPS  H12X 8125   5.890   6.241   9.095 -0.8899  1.0184  2.0214
   85SAPS  H12Y 8126   5.750   6.255   8.989 -0.2563 -1.2006 -1.1264
   85SAPS  C313 8127   5.845   6.057   9.022  0.4483 -0.0880 -0.0908
   85SAPS  H13X 8128   5.749   6.006   9.000 -0.3694  1.2830  0.2237
   85SAPS  H13Y 8129   5.887   6.004   9.111  0.6820  0.7394  0.3043
   85SAPS  C314 8130   5.954   6.071   8.920 -0.6041 -0.2818 -0.3269
   85SAPS  H14X 8131   6.035   6.135   8.961  0.2642 -0.7818 -1.2055
   85SAPS  H14Y 8132   5.921   6.122   8.826 -0.6913 -1.5987 -1.0382
   85SAPS  C315 8133   6.043   5.952   8.877 -0.0704  0.6076 -0.4371
   85SAPS  H15X 8134   5.980   5.894   8.806  0.6705 -0.3788 -0.3120
   85SAPS  H15Y 8135   6.060   5.895   8.971  1.6063 -0.6481 -1.4467
   85SAPS  C316 8136   6.175   5.995   8.806  0.2023  0.3692 -0.4642
   85SAPS  H16X 8137   6.232   6.052   8.882 -1.4822  3.2290 -1.2006
   85SAPS  H16Y 8138   6.157   6.065   8.721  3.1801  0.7249 -0.9165
   85SAPS  C317 8139   6.251   5.871   8.752 -0.0408 -0.0801  0.3280
   85SAPS  H17X 8140   6.186   5.809   8.687 -1.8408  0.0512  1.9375
   85SAPS  H17Y 8141   6.273   5.799   8.833 -1.7490 -0.9688  0.0475
   85SAPS  C318 8142   6.393   5.902   8.699 -0.3546 -0.2932 -0.1519
   85SAPS  H18X 8143   6.446   5.951   8.783 -0.7602 -0.1904  0.0516
   85SAPS  H18Y 8144   6.390   5.975   8.616  1.3306 -0.0693 -0.0322
   85SAPS  H18Z 8145   6.438   5.808   8.659 -0.1881  0.0764 -0.8410
   86SAPS     N 8146   4.988   0.715  11.128  0.2734  0.2557 -0.1780
   86SAPS   HN1 8147   4.980   0.773  11.042  2.5311 -2.6721 -2.5922
   86SAPS   HN2 8148   4.906   0.654  11.107 -0.0728  0.7439 -0.2759
   86SAPS   HN3 8149   4.981   0.770  11.216 -3.5443  0.5993 -0.5303
   86SAPS   C12 8150   5.115   0.628  11.112 -0.9138 -0.3239 -0.5954
   86SAPS  H12A 8151   5.198   0.692  11.138  0.4442 -1.8836 -0.9545
   86SAPS   C13 8152   5.126   0.523  11.221  0.9641  0.3122 -0.0418
   86SAPS  O13A 8153   5.025   0.505  11.301 -0.0113 -0.4166 -0.0272
   86SAPS  O13B 8154   5.235   0.480  11.259 -0.6938 -0.3771 -0.3939
   86SAPS   C11 8155   5.122   0.568  10.973 -0.8999 -0.1778  0.6242
   86SAPS  H11A 8156   5.092   0.648  10.902  0.6595 -0.3835 -0.2966
   86SAPS  H11B 8157   5.048   0.488  10.951  0.9017 -1.7892  0.2428
   86SAPS     P 8158   5.366   0.610  10.864 -0.0815  0.2933 -0.0854
   86SAPS   O13 8159   5.372   0.738  10.932  0.2706 -0.1471 -0.1306
   86SAPS   O14 8160   5.497   0.532  10.858  0.4921  0.3212  0.1825
   86SAPS   O12 8161   5.256   0.519  10.942  0.1693  1.1374  0.0861
   86SAPS   O11 8162   5.296   0.622  10.719 -0.2984  0.0148  0.1348
   86SAPS    C1 8163   5.218   0.513  10.672 -0.0732 -0.0879 -0.3138
   86SAPS    HA 8164   5.239   0.415  10.719 -0.7213  0.0388  0.2632
   86SAPS    HB 8165   5.111   0.542  10.679 -0.2499  0.2918 -3.3496
   86SAPS    C2 8166   5.244   0.483  10.524 -0.4157 -0.6432  0.0830
   86SAPS    HS 8167   5.348   0.445  10.511 -0.4463 -1.3096  1.6007
   86SAPS   O21 8168   5.217   0.603  10.446 -0.1026 -0.6923 -0.1582
   86SAPS   C21 8169   5.292   0.614  10.340 -0.4511 -0.1608  1.2083
   86SAPS   O22 8170   5.381   0.537  10.309 -0.1470  0.1422 -0.1079
   86SAPS   C22 8171   5.242   0.728  10.244 -0.2295  0.3884  0.2944
   86SAPS   H2R 8172   5.131   0.721  10.239 -0.1316 -2.6450  0.4858
   86SAPS   H2S 8173   5.258   0.823  10.300 -0.2661  0.9886 -0.6960
   86SAPS    C3 8174   5.150   0.376  10.472  0.0278  0.4200  0.4189
   86SAPS    HX 8175   5.047   0.406  10.502  0.4283  0.5897  1.6781
   86SAPS    HY 8176   5.158   0.277  10.521  0.2339 -1.1571 -2.6015
   86SAPS   O31 8177   5.149   0.361  10.329 -0.3542 -0.1856  0.0908
   86SAPS   C31 8178   5.209   0.245  10.271  0.9574  0.2544 -0.3492
   86SAPS   O32 8179   5.261   0.153  10.327  0.1449  1.1218  0.6555
   86SAPS   C32 8180   5.180   0.256  10.123 -0.2426  0.3910  0.1927
   86SAPS   H2X 8181   5.178   0.366  10.110  1.3503  0.5716  1.2482
   86SAPS   H2Y 8182   5.082   0.218  10.086  0.6399 -2.2772  0.3386
   86SAPS   C23 8183   5.302   0.728  10.100  0.8607  0.4797  0.0043
   86SAPS   H3R 8184   5.276   0.630  10.053  2.2562 -0.1833  0.5556
   86SAPS   H3S 8185   5.411   0.748  10.098  0.9666  0.0791  1.1973
   86SAPS   C24 8186   5.232   0.834  10.014  0.0195 -0.4183  0.1839
   86SAPS   H4R 8187   5.123   0.813  10.019  0.0548 -0.3110  2.1963
   86SAPS   H4S 8188   5.259   0.816   9.908  0.0334 -1.0613  0.2944
   86SAPS   C25 8189   5.264   0.982  10.040 -0.2285 -0.5000 -0.2621
   86SAPS   H5R 8190   5.253   1.007  10.147  0.1619 -0.8395 -0.1408
   86SAPS   C26 8191   5.272   1.085   9.953  0.3194 -1.0083 -0.0866
   86SAPS   H6R 8192   5.313   1.178   9.996 -1.1776 -0.5125  0.3180
   86SAPS   C27 8193   5.274   1.083   9.799  0.2347  0.0419  0.6033
   86SAPS   H7R 8194   5.365   1.028   9.766  0.0990  1.8572 -3.2806
   86SAPS   H7S 8195   5.284   1.189   9.769 -0.2054  0.0385  0.4396
   86SAPS   C28 8196   5.155   1.001   9.739  0.2010  0.6238 -0.0303
   86SAPS   H8R 8197   5.083   0.971   9.816  1.5073  1.8399  1.7261
   86SAPS   C29 8198   5.140   0.946   9.617 -0.8000  0.1112  0.2770
   86SAPS   H9R 8199   5.046   0.905   9.579 -1.0239  2.4293 -1.9988
   86SAPS  C210 8200   5.250   0.967   9.507  0.5805  0.0767 -0.1342
   86SAPS  H10R 8201   5.320   1.047   9.538 -0.5028  0.8785  0.2915
   86SAPS  H10S 8202   5.203   0.992   9.409 -0.3616 -1.0315  0.0029
   86SAPS  C211 8203   5.331   0.841   9.496 -0.0757  0.5945  0.1779
   86SAPS  H11R 8204   5.427   0.857   9.546  0.6519 -1.7001 -0.3890
   86SAPS  C212 8205   5.296   0.727   9.434 -0.2026 -0.5000  1.0947
   86SAPS  H12R 8206   5.367   0.643   9.440  0.8990  0.2585 -0.4191
   86SAPS  C213 8207   5.170   0.705   9.351 -0.1845 -0.3782  0.1389
   86SAPS  H13R 8208   5.076   0.725   9.407  0.5165 -1.0450  1.5767
   86SAPS  H13S 8209   5.169   0.596   9.329 -2.4303 -0.2885 -0.5655
   86SAPS  C214 8210   5.159   0.784   9.222 -0.3621  0.0317  0.4001
   86SAPS  H14R 8211   5.164   0.891   9.249  0.2923  0.5287 -1.5536
   86SAPS  C215 8212   5.171   0.759   9.091  0.2942  0.4294 -0.0276
   86SAPS  H15R 8213   5.146   0.840   9.022  1.3158  0.7499 -0.0412
   86SAPS  C216 8214   5.203   0.624   9.022  0.4613 -0.7693 -0.2656
   86SAPS  H16R 8215   5.240   0.562   9.106 -2.0174  0.7562  2.1332
   86SAPS  H16S 8216   5.285   0.623   8.948  0.1666 -1.9661 -0.6012
   86SAPS  C217 8217   5.084   0.563   8.964  0.6682  0.3839 -0.0752
   86SAPS  H17R 8218   5.005   0.542   9.039  0.6193 -2.0909 -0.7145
   86SAPS  H17S 8219   5.115   0.461   8.931 -1.5490 -0.3519 -0.0512
   86SAPS  C218 8220   5.021   0.645   8.854 -0.5682  0.9221  0.9164
   86SAPS  H18R 8221   5.094   0.670   8.773 -1.1601  0.0969  0.1004
   86SAPS  H18S 8222   4.995   0.744   8.896  0.2227  0.9483  1.3733
   86SAPS  C219 8223   4.898   0.572   8.791  0.6340  0.2238  1.0201
   86SAPS  H19R 8224   4.926   0.486   8.726 -0.9368  0.6075 -0.1999
   86SAPS  H19S 8225   4.856   0.646   8.720 -0.3322 -1.3940 -0.1416
   86SAPS  C220 8226   4.792   0.533   8.894 -0.5181  0.3183 -0.4092
   86SAPS  H20R 8227   4.825   0.449   8.960 -0.8666  1.6450  1.5220
   86SAPS  H20S 8228   4.699   0.516   8.836 -2.3939  1.8170  1.9540
   86SAPS  H20T 8229   4.771   0.625   8.953  2.4284  1.4912 -1.0100
   86SAPS   C33 8230   5.296   0.208  10.034 -0.1734  0.1182  0.0953
   86SAPS   H3X 8231   5.312   0.100  10.053  1.9125  0.2714 -0.5308
   86SAPS   H3Y 8232   5.387   0.264  10.064 -0.3958 -0.3607  1.7260
   86SAPS   C34 8233   5.269   0.246   9.882  0.6316 -0.2507  0.1061
   86SAPS   H4X 8234   5.229   0.350   9.880 -2.3424 -1.2173  2.0570
   86SAPS   H4Y 8235   5.189   0.179   9.844 -0.2332  0.1184  1.2193
   86SAPS   C35 8236   5.399   0.255   9.801  0.9740 -0.2523  0.0608
   86SAPS   H5X 8237   5.465   0.166   9.806 -1.0249 -1.9451 -1.4435
   86SAPS   H5Y 8238   5.447   0.343   9.847  0.6576  0.4418 -0.9028
   86SAPS   C36 8239   5.367   0.285   9.657 -0.2716  0.4311  0.8171
   86SAPS   H6X 8240   5.447   0.350   9.614 -2.0205  2.6186  0.7230
   86SAPS   H6Y 8241   5.281   0.355   9.655 -0.4973  0.2141 -2.2960
   86SAPS   C37 8242   5.324   0.161   9.570 -0.3867 -0.5708 -0.1994
   86SAPS   H7X 8243   5.233   0.125   9.623 -1.2990 -1.8563 -2.5178
   86SAPS   H7Y 8244   5.405   0.085   9.577  0.1214 -0.0463 -0.3174
   86SAPS   C38 8245   5.273   0.191   9.428  0.0693  0.0323  0.3015
   86SAPS   H8X 8246   5.260   0.302   9.431  0.1698  0.0108  2.2315
   86SAPS   H8Y 8247   5.176   0.145   9.400  0.4717 -0.3465 -0.5279
   86SAPS   C39 8248   5.378   0.150   9.314  0.5828  0.2208 -0.0110
   86SAPS   H9X 8249   5.408   0.046   9.337  1.3518  0.4681  0.1150
   86SAPS   H9Y 8250   5.470   0.211   9.307  0.8381 -0.1860 -0.2283
   86SAPS  C310 8251   5.321   0.156   9.176 -0.5019 -0.6953 -0.1572
   86SAPS  H10X 8252   5.271   0.255   9.164  0.6394 -0.0597  0.1479
   86SAPS  H10Y 8253   5.237   0.084   9.169 -0.9637 -0.4954  2.3991
   86SAPS  C311 8254   5.419   0.123   9.059  0.5168 -0.0687 -0.6221
   86SAPS  H11X 8255   5.459   0.019   9.066  2.7308  0.5987 -2.2148
   86SAPS  H11Y 8256   5.500   0.199   9.064 -0.0213  0.6842 -2.3924
   86SAPS  C312 8257   5.343   0.162   8.931  0.5923  0.5565  0.1785
   86SAPS  H12X 8258   5.315   0.268   8.943  1.8962  0.8634  0.7367
   86SAPS  H12Y 8259   5.253   0.099   8.911  0.8528  0.6473 -1.4835
   86SAPS  C313 8260   5.434   0.140   8.812 -0.1947  0.4745  0.5959
   86SAPS  H13X 8261   5.439   0.033   8.782 -0.6262  0.2092  1.4450
   86SAPS  H13Y 8262   5.535   0.177   8.841  1.1287 -1.6388 -0.9627
   86SAPS  C314 8263   5.381   0.198   8.676  0.5813  0.6438 -0.0229
   86SAPS  H14X 8264   5.285   0.159   8.635  0.3183  0.7924  0.4461
   86SAPS  H14Y 8265   5.464   0.180   8.604 -0.5030 -2.6086 -0.6266
   86SAPS  C315 8266   5.360   0.352   8.678 -0.2128  0.0206  0.1610
   86SAPS  H15X 8267   5.446   0.404   8.725  0.5946 -0.2182 -1.0050
   86SAPS  H15Y 8268   5.267   0.374   8.735 -1.0028 -0.4814 -0.9026
   86SAPS  C316 8269   5.362   0.412   8.540 -0.1213 -0.0306 -0.6234
   86SAPS  H16X 8270   5.308   0.341   8.473 -0.0382  0.7139 -1.5051
   86SAPS  H16Y 8271   5.466   0.418   8.503  0.4487 -1.2129  0.6994
   86SAPS  C317 8272   5.288   0.549   8.540 -0.7649  0.5198 -0.3485
   86SAPS  H17X 8273   5.208   0.542   8.617 -1.7038  2.8115 -1.0293
   86SAPS  H17Y 8274   5.236   0.569   8.444 -1.1627 -1.3699 -0.5695
   86SAPS  C318 8275   5.393   0.655   8.574  0.1647  0.0861 -0.3891
   86SAPS  H18X 8276   5.421   0.651   8.682  0.3823  2.5871 -0.2959
   86SAPS  H18Y 8277   5.347   0.754   8.556 -0.8809 -0.5828 -1.5313
   86SAPS  H18Z 8278   5.482   0.655   8.508 -0.2798  1.4623 -1.0259
   87SAPS     N 8279   1.596   2.502  10.940 -0.6533 -0.0572 -0.7919
   87SAPS   HN1 8280   1.699   2.490  10.948 -0.4420  2.2849  1.3074
   87SAPS   HN2 8281   1.577   2.582  10.876 -1.4235  0.2654 -0.1706
   87SAPS   HN3 8282   1.568   2.520  11.038 -0.1399 -1.7690 -0.3008
   87SAPS   C12 8283   1.516   2.380  10.896  0.2626  0.5004  0.2516
   87SAPS  H12A 8284   1.543   2.352  10.795 -2.3414  1.1053 -0.6980
   87SAPS   C13 8285   1.521   2.257  10.991  0.7494 -0.2082  0.2442
   87SAPS  O13A 8286   1.591   2.263  11.092  0.1578 -0.4287  0.0121
   87SAPS  O13B 8287   1.451   2.156  10.967 -0.2885  0.8001 -0.0254
   87SAPS   C11 8288   1.368   2.425  10.888  0.2722 -0.2562 -0.0285
   87SAPS  H11A 8289   1.338   2.463  10.988  1.7287  0.3373  0.1986
   87SAPS  H11B 8290   1.299   2.342  10.860 -0.3461 -0.2196  1.3001
   87SAPS     P 8291   1.298   2.522  10.647  0.2304 -0.2577 -0.0990
   87SAPS   O13 8292   1.149   2.502  10.662  0.3744  0.7187  0.0896
   87SAPS   O14 8293   1.339   2.632  10.559  0.2207 -0.4046  0.4994
   87SAPS   O12 8294   1.367   2.532  10.795  0.8154  0.8079  0.4923
   87SAPS   O11 8295   1.358   2.386  10.592 -0.0164 -0.0694 -0.0697
   87SAPS    C1 8296   1.459   2.390  10.498 -0.6919  0.1096  0.2173
   87SAPS    HA 8297   1.532   2.470  10.525  0.0912 -0.4292 -0.2739
   87SAPS    HB 8298   1.516   2.295  10.505 -1.5843 -0.4226  0.3989
   87SAPS    C2 8299   1.416   2.384  10.351 -0.1450 -0.1851  0.8189
   87SAPS    HS 8300   1.357   2.476  10.329  2.0618  1.4095  1.2234
   87SAPS   O21 8301   1.352   2.263  10.313 -0.0942  0.6334 -0.0424
   87SAPS   C21 8302   1.218   2.256  10.314  0.1332 -0.0824 -0.3798
   87SAPS   O22 8303   1.143   2.354  10.335 -0.3486  0.4673 -0.1259
   87SAPS   C22 8304   1.180   2.120  10.252  0.0970 -0.4495 -0.5385
   87SAPS   H2R 8305   1.257   2.043  10.271 -1.4400 -1.9985 -0.3950
   87SAPS   H2S 8306   1.093   2.090  10.313  0.2060 -1.0484 -0.6706
   87SAPS    C3 8307   1.536   2.401  10.250  0.0245 -0.4846 -0.0547
   87SAPS    HX 8308   1.608   2.317  10.242  1.8524  1.1323 -1.4809
   87SAPS    HY 8309   1.582   2.495  10.288  1.7433 -0.3239 -2.3196
   87SAPS   O31 8310   1.481   2.427  10.116 -0.1011  0.3173 -0.3486
   87SAPS   C31 8311   1.487   2.320  10.032 -0.8138  1.1174  0.5287
   87SAPS   O32 8312   1.525   2.203  10.059  0.3766 -0.5235  0.5485
   87SAPS   C32 8313   1.450   2.371   9.891 -0.3755 -0.1936  0.0286
   87SAPS   H2X 8314   1.530   2.429   9.841 -1.6040  2.0960  0.5981
   87SAPS   H2Y 8315   1.365   2.441   9.903  0.8953  1.8813 -2.1325
   87SAPS   C23 8316   1.152   2.132  10.105  0.2054  0.0579  0.0498
   87SAPS   H3R 8317   1.226   2.197  10.053 -0.2846  1.3005  0.8753
   87SAPS   H3S 8318   1.057   2.182  10.077  0.3843  0.4218  0.0820
   87SAPS   C24 8319   1.146   1.999  10.027  0.4249 -0.0554  0.6933
   87SAPS   H4R 8320   1.084   2.018   9.937  1.4464  0.7510  0.1416
   87SAPS   H4S 8321   1.085   1.932  10.092 -1.7349  2.1645  1.0947
   87SAPS   C25 8322   1.286   1.950   9.991  0.0762  1.1214 -0.1168
   87SAPS   H5R 8323   1.361   1.957  10.071 -1.0642  0.3701  1.0583
   87SAPS   C26 8324   1.335   1.893   9.878  0.2837 -0.4924 -0.1609
   87SAPS   H6R 8325   1.443   1.874   9.875  0.5386  0.9012 -1.0331
   87SAPS   C27 8326   1.261   1.878   9.749 -0.0503  0.1906 -0.4455
   87SAPS   H7R 8327   1.319   1.919   9.663 -2.2898  0.6379 -1.8534
   87SAPS   H7S 8328   1.167   1.937   9.757 -0.9688 -1.3167  0.2952
   87SAPS   C28 8329   1.231   1.736   9.708  0.4267 -0.7226  0.2949
   87SAPS   H8R 8330   1.254   1.667   9.790 -0.1581  1.9336  2.8524
   87SAPS   C29 8331   1.173   1.695   9.595 -0.3033  0.1694  0.1193
   87SAPS   H9R 8332   1.174   1.588   9.570 -0.6503  0.4069 -0.9776
   87SAPS  C210 8333   1.136   1.791   9.486  0.2689 -0.5654 -0.1310
   87SAPS  H10R 8334   1.195   1.776   9.393 -0.1864  0.3196 -0.5670
   87SAPS  H10S 8335   1.152   1.896   9.517 -1.9222 -0.6551  1.5651
   87SAPS  C211 8336   0.993   1.763   9.452 -0.1320 -0.7853  0.0534
   87SAPS  H11R 8337   0.921   1.781   9.533  0.7578 -1.5792  1.0506
   87SAPS  C212 8338   0.937   1.727   9.334  0.2946  0.2297  0.1357
   87SAPS  H12R 8339   0.830   1.703   9.328 -0.1783  2.2772 -0.6101
   87SAPS  C213 8340   1.005   1.692   9.201 -0.0780 -0.8198 -0.3324
   87SAPS  H13R 8341   1.083   1.769   9.185  0.1320 -0.8467  0.5251
   87SAPS  H13S 8342   0.939   1.692   9.111 -1.8575  0.9319  0.8756
   87SAPS  C214 8343   1.082   1.565   9.209  0.1042 -0.5729  0.1884
   87SAPS  H14R 8344   1.109   1.528   9.309  3.5399  0.0829 -0.3888
   87SAPS  C215 8345   1.130   1.497   9.107 -0.4631 -0.0119  0.1173
   87SAPS  H15R 8346   1.197   1.415   9.136 -2.2436 -1.0487  1.5065
   87SAPS  C216 8347   1.119   1.532   8.957 -0.3964 -0.2362 -0.3125
   87SAPS  H16R 8348   1.224   1.523   8.923  0.9653 -0.8725  3.6169
   87SAPS  H16S 8349   1.080   1.632   8.930  0.6327  0.6609  1.3707
   87SAPS  C217 8350   1.049   1.416   8.880  0.0238  0.3416  0.0252
   87SAPS  H17R 8351   0.946   1.404   8.920  1.1470 -2.4373  2.5195
   87SAPS  H17S 8352   1.098   1.317   8.894  0.0679  0.5644  1.6203
   87SAPS  C218 8353   1.055   1.428   8.727  0.8770  0.3075 -0.0611
   87SAPS  H18R 8354   1.159   1.463   8.709  0.8903  0.0736 -0.4320
   87SAPS  H18S 8355   0.994   1.514   8.692 -0.8212 -0.9364 -0.2780
   87SAPS  C219 8356   1.041   1.290   8.662  0.1243 -0.6173  1.1833
   87SAPS  H19R 8357   0.935   1.261   8.677  0.6174 -2.6071  0.9913
   87SAPS  H19S 8358   1.118   1.225   8.708 -0.0046 -0.4206  1.6855
   87SAPS  C220 8359   1.059   1.294   8.511 -0.1452  0.1566 -0.1649
   87SAPS  H20R 8360   1.006   1.382   8.469 -1.2318 -0.2428  0.3508
   87SAPS  H20S 8361   1.025   1.201   8.463  1.8190 -1.0967  0.7305
   87SAPS  H20T 8362   1.167   1.308   8.487  0.0852 -0.7881  0.2891
   87SAPS   C33 8363   1.417   2.252   9.793  0.1730  0.1535  0.3573
   87SAPS   H3X 8364   1.353   2.171   9.834  1.9490 -1.3985  0.2242
   87SAPS   H3Y 8365   1.506   2.195   9.758  0.2010  1.6318 -2.2856
   87SAPS   C34 8366   1.347   2.306   9.662 -0.0248 -0.2403 -0.3116
   87SAPS   H4X 8367   1.418   2.374   9.611  1.8591 -1.1053  1.0213
   87SAPS   H4Y 8368   1.253   2.362   9.680 -2.9176 -4.2838 -1.5126
   87SAPS   C35 8369   1.300   2.196   9.565  0.0139  0.0461  0.4967
   87SAPS   H5X 8370   1.221   2.139   9.617  0.8006 -0.8317  0.7715
   87SAPS   H5Y 8371   1.381   2.121   9.548 -0.8856 -0.9282  0.3776
   87SAPS   C36 8372   1.246   2.254   9.439  0.3437  0.0543  0.5138
   87SAPS   H6X 8373   1.310   2.338   9.406 -0.9222  0.8400 -0.0347
   87SAPS   H6Y 8374   1.143   2.291   9.458 -0.2651 -1.6023  0.5838
   87SAPS   C37 8375   1.228   2.139   9.337 -0.4529  0.1232 -0.3689
   87SAPS   H7X 8376   1.147   2.076   9.380  0.8526 -0.4393  1.3753
   87SAPS   H7Y 8377   1.317   2.074   9.330  0.4012  1.2900 -0.6740
   87SAPS   C38 8378   1.181   2.183   9.193  0.3264  0.3934 -0.6300
   87SAPS   H8X 8379   1.258   2.240   9.136 -0.2206  1.6336 -0.1713
   87SAPS   H8Y 8380   1.103   2.263   9.197 -0.5019 -0.3819 -0.9425
   87SAPS   C39 8381   1.122   2.070   9.106 -0.3455  0.0538 -0.2875
   87SAPS   H9X 8382   1.032   2.032   9.159  0.3359 -0.7781  0.3066
   87SAPS   H9Y 8383   1.195   1.987   9.114  0.8669  0.7326 -3.1602
   87SAPS  C310 8384   1.098   2.113   8.962  0.4765  0.0633  0.7676
   87SAPS  H10X 8385   1.190   2.126   8.901 -0.8129  1.6776 -0.9745
   87SAPS  H10Y 8386   1.042   2.208   8.949  2.7252  1.1733 -1.8138
   87SAPS  C311 8387   1.021   1.997   8.878 -0.0282 -0.4354  0.2292
   87SAPS  H11X 8388   0.938   1.959   8.941 -1.0219  0.8062 -0.2633
   87SAPS  H11Y 8389   1.092   1.917   8.850 -0.7617 -1.4036  1.0372
   87SAPS  C312 8390   0.957   2.034   8.742 -0.1428 -0.2038  0.5729
   87SAPS  H12X 8391   1.036   2.090   8.687  1.7233 -1.8029  1.5202
   87SAPS  H12Y 8392   0.875   2.108   8.755 -1.0809 -1.2173  0.6285
   87SAPS  C313 8393   0.902   1.916   8.658 -0.2268 -0.1227  0.1903
   87SAPS  H13X 8394   0.831   1.954   8.582  1.4156 -2.1834 -2.5484
   87SAPS  H13Y 8395   0.843   1.846   8.722 -0.9971 -0.3075 -0.7066
   87SAPS  C314 8396   1.025   1.850   8.594 -0.4071  0.5930  0.2622
   87SAPS  H14X 8397   1.044   1.760   8.656 -1.0944  1.0058  1.0978
   87SAPS  H14Y 8398   1.114   1.916   8.589  0.2604  0.0843  3.3739
   87SAPS  C315 8399   1.006   1.810   8.443  0.0115 -0.4288 -0.0656
   87SAPS  H15X 8400   1.107   1.787   8.404 -0.3324  2.3018 -2.9214
   87SAPS  H15Y 8401   0.977   1.905   8.395  2.4160  0.3144 -0.1600
   87SAPS  C316 8402   0.906   1.698   8.410  0.1082 -0.7125 -0.5307
   87SAPS  H16X 8403   0.808   1.711   8.461 -0.2553  1.2166 -1.6322
   87SAPS  H16Y 8404   0.949   1.602   8.445 -1.2348 -0.9387  0.5819
   87SAPS  C317 8405   0.886   1.684   8.256  1.1032  0.1281  0.0297
   87SAPS  H17X 8406   0.982   1.702   8.204  0.5666  1.7284 -0.4792
   87SAPS  H17Y 8407   0.822   1.768   8.221  0.9291  1.0384  2.3481
   87SAPS  C318 8408   0.809   1.557   8.203 -0.1376  0.3286  0.1347
   87SAPS  H18X 8409   0.851   1.481   8.272 -0.1335 -0.8391 -1.1164
   87SAPS  H18Y 8410   0.836   1.526   8.099 -3.5710 -3.4932  0.1464
   87SAPS  H18Z 8411   0.700   1.580   8.208 -0.1271  1.1352 -2.0631
   88SAPS     N 8412   1.352   0.656  10.771  0.0939  0.1108  0.3282
   88SAPS   HN1 8413   1.451   0.683  10.788  0.2166  1.5115 -2.0770
   88SAPS   HN2 8414   1.336   0.558  10.800  0.4551 -0.4369 -1.2191
   88SAPS   HN3 8415   1.334   0.665  10.669  0.4903  2.5018  0.4019
   88SAPS   C12 8416   1.280   0.753  10.868  0.4858 -0.3319 -0.3612
   88SAPS  H12A 8417   1.329   0.750  10.964 -0.1335  0.2828 -0.0138
   88SAPS   C13 8418   1.280   0.900  10.836 -0.2965  0.0762 -0.4868
   88SAPS  O13A 8419   1.352   0.946  10.741 -0.3671  0.3593 -0.1624
   88SAPS  O13B 8420   1.207   0.971  10.904 -0.2186 -0.3270  0.6377
   88SAPS   C11 8421   1.134   0.709  10.872  0.9034  0.3752 -0.3005
   88SAPS  H11A 8422   1.097   0.708  10.768 -0.8189  0.6113  0.2745
   88SAPS  H11B 8423   1.076   0.786  10.928 -0.9975 -0.8040 -0.5766
   88SAPS     P 8424   0.987   0.511  10.943 -0.2286  0.0854  0.0650
   88SAPS   O13 8425   1.014   0.370  10.995 -0.1794  0.0894 -0.1080
   88SAPS   O14 8426   0.887   0.601  11.005 -0.1598 -0.0444  0.0458
   88SAPS   O12 8427   1.124   0.584  10.938 -0.0312 -0.7319 -0.2164
   88SAPS   O11 8428   0.952   0.507  10.785 -0.4173 -0.3328  0.3079
   88SAPS    C1 8429   0.818   0.494  10.736 -0.3513 -0.2928 -0.4048
   88SAPS    HA 8430   0.775   0.407  10.789  1.1210 -1.0968 -0.4793
   88SAPS    HB 8431   0.760   0.586  10.759 -2.7137 -0.9752 -3.0553
   88SAPS    C2 8432   0.818   0.481  10.581 -0.3685  0.3761 -0.8061
   88SAPS    HS 8433   0.713   0.455  10.553 -0.7117  0.4422  0.3564
   88SAPS   O21 8434   0.898   0.370  10.540  1.0262 -0.1248  0.0189
   88SAPS   C21 8435   0.849   0.249  10.548  0.4154  0.0837 -0.3974
   88SAPS   O22 8436   0.728   0.221  10.566  0.1052 -0.2690 -0.5740
   88SAPS   C22 8437   0.957   0.143  10.514  0.3198 -0.0020  0.1940
   88SAPS   H2R 8438   1.056   0.195  10.513  1.3320 -1.8446 -1.5278
   88SAPS   H2S 8439   0.966   0.065  10.593 -0.2384 -1.4277 -1.1156
   88SAPS    C3 8440   0.862   0.609  10.510 -0.1863 -0.1416 -0.7777
   88SAPS    HX 8441   0.970   0.625  10.533 -0.3037  1.4484 -1.2174
   88SAPS    HY 8442   0.809   0.690  10.563  1.7337 -0.3604  1.6437
   88SAPS   O31 8443   0.849   0.589  10.363  1.5817 -0.4637  0.1598
   88SAPS   C31 8444   0.900   0.687  10.291 -0.4285  0.0826  0.1436
   88SAPS   O32 8445   0.957   0.786  10.337  0.0381  0.0022  0.1834
   88SAPS   C32 8446   0.870   0.672  10.142 -0.2767 -0.1756 -0.1712
   88SAPS   H2X 8447   0.798   0.753  10.119  0.5871  0.6585 -0.0094
   88SAPS   H2Y 8448   0.827   0.572  10.117  1.7923 -1.0879 -0.3124
   88SAPS   C23 8449   0.928   0.066  10.382  0.2348  0.1560 -0.1184
   88SAPS   H3R 8450   0.819   0.043  10.374  0.1761 -0.1853  1.3555
   88SAPS   H3S 8451   0.981  -0.031  10.394  0.4940  0.4825  1.6804
   88SAPS   C24 8452   0.978   0.133  10.252 -0.1415 -0.4009  0.1971
   88SAPS   H4R 8453   0.991   0.065  10.165  0.3218  1.2612 -1.0753
   88SAPS   H4S 8454   1.071   0.188  10.278  0.3669  0.5451 -3.1367
   88SAPS   C25 8455   0.882   0.246  10.214  0.2244  0.2832 -0.3884
   88SAPS   H5R 8456   0.896   0.336  10.276  1.4937  1.4887 -2.3201
   88SAPS   C26 8457   0.784   0.237  10.121  0.0975 -0.3703  0.1578
   88SAPS   H6R 8458   0.731   0.330  10.097 -1.0438 -1.1020 -0.2263
   88SAPS   C27 8459   0.760   0.124  10.024  0.0205  0.4725  0.7702
   88SAPS   H7R 8460   0.652   0.096  10.032  0.5160 -1.2476  1.9824
   88SAPS   H7S 8461   0.819   0.036  10.055  0.0208  1.2340  3.1022
   88SAPS   C28 8462   0.794   0.165   9.885 -0.0515 -0.0911 -0.2511
   88SAPS   H8R 8463   0.892   0.214   9.881 -0.0955  0.5252  3.1216
   88SAPS   C29 8464   0.717   0.150   9.773  0.1923  0.1217  0.2037
   88SAPS   H9R 8465   0.758   0.204   9.686  0.9439  0.5740  0.8241
   88SAPS  C210 8466   0.575   0.101   9.750  0.2182  0.1628  0.2313
   88SAPS  H10R 8467   0.547   0.116   9.643 -0.8862 -0.0762  0.4699
   88SAPS  H10S 8468   0.504   0.167   9.804  0.0597 -2.0704  2.9736
   88SAPS  C211 8469   0.560  -0.045   9.800 -0.2908  0.0822 -0.7995
   88SAPS  H11R 8470   0.565  -0.062   9.909  1.7950 -0.6799 -0.9864
   88SAPS  C212 8471   0.548  -0.156   9.728  0.3846  0.5170 -0.2732
   88SAPS  H12R 8472   0.527  -0.244   9.791 -2.6104  0.2811 -1.4314
   88SAPS  C213 8473   0.547  -0.169   9.578  0.4467 -0.3774 -0.0168
   88SAPS  H13R 8474   0.506  -0.073   9.540 -0.6035 -1.0299 -0.6021
   88SAPS  H13S 8475   0.484  -0.251   9.536  0.1261  0.1934 -0.6890
   88SAPS  C214 8476   0.688  -0.203   9.532  0.1435 -0.6136 -0.0320
   88SAPS  H14R 8477   0.769  -0.208   9.606 -2.3165 -1.1241  2.8150
   88SAPS  C215 8478   0.722  -0.253   9.415 -0.4814 -0.3593  0.1896
   88SAPS  H15R 8479   0.828  -0.278   9.406 -0.6685 -2.0310  2.0381
   88SAPS  C216 8480   0.624  -0.279   9.303  0.1008  0.4932 -0.6587
   88SAPS  H16R 8481   0.536  -0.334   9.344 -1.1451  1.4325 -1.9664
   88SAPS  H16S 8482   0.673  -0.347   9.230  1.0349 -1.1468  1.3665
   88SAPS  C217 8483   0.569  -0.145   9.240  0.3250  0.3792  0.3154
   88SAPS  H17R 8484   0.504  -0.088   9.310 -0.0189  0.8118 -0.3530
   88SAPS  H17S 8485   0.498  -0.168   9.158  0.8702 -1.6608  0.3690
   88SAPS  C218 8486   0.674  -0.049   9.187  0.2516  0.4345  0.0033
   88SAPS  H18R 8487   0.757  -0.115   9.152 -1.5053 -2.0317  0.1841
   88SAPS  H18S 8488   0.705   0.011   9.275 -1.2756  0.9193  0.2402
   88SAPS  C219 8489   0.621   0.041   9.075 -0.8382  0.0788  0.6994
   88SAPS  H19R 8490   0.510   0.032   9.077 -1.0904  2.3291 -0.1457
   88SAPS  H19S 8491   0.656  -0.008   8.982  0.0411  1.0043  0.5220
   88SAPS  C220 8492   0.685   0.185   9.078  0.3313  0.0663 -0.2684
   88SAPS  H20R 8493   0.650   0.253   8.997  0.5779  1.3279  0.6548
   88SAPS  H20S 8494   0.796   0.178   9.076  0.4356  1.5319 -2.4090
   88SAPS  H20T 8495   0.665   0.227   9.179  1.6555  1.8894 -0.7209
   88SAPS   C33 8496   0.993   0.701  10.057 -0.0630  0.5406  0.4521
   88SAPS   H3X 8497   1.076   0.643  10.103 -1.3738 -0.6668  1.3735
   88SAPS   H3Y 8498   1.026   0.807  10.067  1.3103  0.1314  0.4959
   88SAPS   C34 8499   0.974   0.672   9.913  0.5858 -0.9150 -0.4082
   88SAPS   H4X 8500   0.982   0.562   9.898 -1.0597 -0.7563 -2.8875
   88SAPS   H4Y 8501   1.055   0.705   9.845  1.3646 -2.0185 -0.0568
   88SAPS   C35 8502   0.848   0.730   9.852 -0.4352 -0.0087  0.4359
   88SAPS   H5X 8503   0.861   0.837   9.879 -0.7785 -0.2056  1.3946
   88SAPS   H5Y 8504   0.753   0.696   9.899 -0.1658  0.7698  1.5629
   88SAPS   C36 8505   0.847   0.719   9.700 -0.4369  0.2877  0.1737
   88SAPS   H6X 8506   0.838   0.621   9.649  3.1193 -0.7381  1.1966
   88SAPS   H6Y 8507   0.946   0.757   9.665 -0.7788  2.3004  1.2272
   88SAPS   C37 8508   0.734   0.808   9.638  0.0522 -0.4204  0.0317
   88SAPS   H7X 8509   0.752   0.909   9.679  0.9204 -0.5955  0.0988
   88SAPS   H7Y 8510   0.631   0.772   9.661 -0.0854  0.0959  0.2203
   88SAPS   C38 8511   0.742   0.816   9.489  0.1326 -0.1365 -0.1742
   88SAPS   H8X 8512   0.705   0.717   9.453 -1.2532  0.3856 -0.2317
   88SAPS   H8Y 8513   0.845   0.837   9.455 -0.5581  3.2407 -0.4744
   88SAPS   C39 8514   0.649   0.929   9.433 -0.0239 -0.0874  0.6414
   88SAPS   H9X 8515   0.669   1.030   9.474  1.1446  0.5465 -1.3514
   88SAPS   H9Y 8516   0.546   0.903   9.466 -0.5763  1.5689  0.2997
   88SAPS  C310 8517   0.641   0.938   9.279  0.2486  0.2012 -0.0009
   88SAPS  H10X 8518   0.567   1.019   9.264  0.0287 -0.2122 -1.2313
   88SAPS  H10Y 8519   0.593   0.846   9.240 -1.5502  0.6627  1.0376
   88SAPS  C311 8520   0.766   0.979   9.205 -0.4277  0.0009 -0.0856
   88SAPS  H11X 8521   0.837   0.895   9.219 -1.8914 -1.5709 -1.6417
   88SAPS  H11Y 8522   0.795   1.079   9.245 -1.7785 -0.0054  0.9807
   88SAPS  C312 8523   0.737   1.007   9.057 -0.5527  0.0550  0.0297
   88SAPS  H12X 8524   0.812   1.075   9.011  1.4952 -2.5436 -0.7629
   88SAPS  H12Y 8525   0.639   1.058   9.055 -0.7591 -0.3184 -1.9565
   88SAPS  C313 8526   0.708   0.886   8.969 -1.1746  0.2305 -0.0476
   88SAPS  H13X 8527   0.615   0.837   9.004  0.1694 -1.2810  1.6018
   88SAPS  H13Y 8528   0.789   0.810   8.980 -1.1312  0.4009  0.8829
   88SAPS  C314 8529   0.716   0.918   8.825  0.1068 -0.6993  0.1996
   88SAPS  H14X 8530   0.686   0.834   8.760 -1.7987 -2.8213  3.5123
   88SAPS  H14Y 8531   0.820   0.939   8.794 -0.5880 -0.4935 -2.2460
   88SAPS  C315 8532   0.644   1.047   8.787  0.2748  0.7830 -0.6775
   88SAPS  H15X 8533   0.690   1.145   8.812  1.3237  0.4423 -1.2047
   88SAPS  H15Y 8534   0.546   1.048   8.838 -0.9388  1.7884 -2.9060
   88SAPS  C316 8535   0.615   1.056   8.634  0.0426  0.2389 -0.7133
   88SAPS  H16X 8536   0.545   0.971   8.622 -3.2366  2.7778 -0.8541
   88SAPS  H16Y 8537   0.713   1.036   8.585  2.7328  1.5222  3.5127
   88SAPS  C317 8538   0.549   1.182   8.590  0.7927 -0.0870  0.0589
   88SAPS  H17X 8539   0.616   1.266   8.620 -1.0007  0.6207  2.4090
   88SAPS  H17Y 8540   0.450   1.201   8.637  0.0757  0.6128 -1.6554
   88SAPS  C318 8541   0.531   1.212   8.443  0.0779 -0.0584  0.5606
   88SAPS  H18X 8542   0.460   1.146   8.388  1.1549 -0.9839  0.2603
   88SAPS  H18Y 8543   0.627   1.208   8.388 -0.2435  3.3550 -0.4941
   88SAPS  H18Z 8544   0.491   1.314   8.425 -0.0238  0.0509  1.3685
   89SAPS     N 8545   2.332   4.207  10.589  0.0297 -0.2267  0.3324
   89SAPS   HN1 8546   2.425   4.173  10.560  0.2333 -0.4483  1.1951
   89SAPS   HN2 8547   2.259   4.138  10.562 -0.6055 -0.2392  1.9358
   89SAPS   HN3 8548   2.318   4.296  10.538  2.3286 -1.1135 -2.0451
   89SAPS   C12 8549   2.314   4.227  10.740  0.0516 -0.2875 -0.2509
   89SAPS  H12A 8550   2.209   4.242  10.760  0.0213  1.1300 -1.3322
   89SAPS   C13 8551   2.381   4.103  10.819  0.1767 -0.1209 -0.4779
   89SAPS  O13A 8552   2.454   4.024  10.754  0.1609  0.6405 -1.2488
   89SAPS  O13B 8553   2.404   4.125  10.942 -0.3644 -0.6130 -0.3790
   89SAPS   C11 8554   2.390   4.357  10.787  0.1793 -0.1771  0.0638
   89SAPS  H11A 8555   2.498   4.339  10.770  0.2905 -0.3468  0.9177
   89SAPS  H11B 8556   2.361   4.375  10.893  2.5267  0.4136  0.6563
   89SAPS     P 8557   2.439   4.567  10.636 -0.0546 -0.0743  0.0608
   89SAPS   O13 8558   2.355   4.663  10.562 -0.2930  0.1729  0.0794
   89SAPS   O14 8559   2.541   4.616  10.731 -0.0661 -0.5731 -0.5065
   89SAPS   O12 8560   2.341   4.472  10.717  0.3577 -0.4402  0.2624
   89SAPS   O11 8561   2.504   4.462  10.537  0.0208 -0.3941 -0.2056
   89SAPS    C1 8562   2.607   4.480  10.436  0.7313 -0.5481 -0.5413
   89SAPS    HA 8563   2.659   4.570  10.477 -2.2768  1.2618 -0.3904
   89SAPS    HB 8564   2.669   4.389  10.430  1.6359  0.0444 -0.4134
   89SAPS    C2 8565   2.551   4.524  10.295 -0.3231 -0.2299  0.8929
   89SAPS    HS 8566   2.474   4.604  10.298  0.3455  0.6035 -1.9034
   89SAPS   O21 8567   2.503   4.413  10.221 -0.0655  0.1995 -0.2435
   89SAPS   C21 8568   2.391   4.351  10.244  0.8291 -0.4734 -0.1743
   89SAPS   O22 8569   2.321   4.375  10.343  0.3889  0.5983  0.1189
   89SAPS   C22 8570   2.342   4.260  10.137 -0.2500 -0.2695 -0.3769
   89SAPS   H2R 8571   2.244   4.232  10.181  0.3403 -0.2514  0.9702
   89SAPS   H2S 8572   2.326   4.314  10.041 -0.4546  2.7115  1.2337
   89SAPS    C3 8573   2.660   4.591  10.217  0.3180  0.3981 -0.4285
   89SAPS    HX 8574   2.759   4.541  10.223 -0.0745 -0.3378  0.0101
   89SAPS    HY 8575   2.674   4.689  10.268  0.9066 -0.2661  0.7308
   89SAPS   O31 8576   2.627   4.626  10.078 -0.5481 -0.0342  0.1915
   89SAPS   C31 8577   2.684   4.549   9.981 -0.2857  0.4245  0.3553
   89SAPS   O32 8578   2.770   4.465  10.002  0.2320  0.2731 -0.4492
   89SAPS   C32 8579   2.621   4.580   9.843 -0.1047 -0.6096 -0.6181
   89SAPS   H2X 8580   2.655   4.684   9.821  0.7538 -1.0544 -1.4266
   89SAPS   H2Y 8581   2.511   4.585   9.860 -0.1013 -2.1880  0.0613
   89SAPS   C23 8582   2.436   4.139  10.109 -0.0059 -0.0086  0.1500
   89SAPS   H3R 8583   2.376   4.055  10.068  0.5031 -0.6387  0.6736
   89SAPS   H3S 8584   2.482   4.105  10.204 -0.8569  0.0064  0.5801
   89SAPS   C24 8585   2.549   4.172  10.006  0.1514 -0.1221 -0.5807
   89SAPS   H4R 8586   2.609   4.242  10.068 -0.0156 -0.0521 -0.4968
   89SAPS   H4S 8587   2.505   4.223   9.919  0.1611  0.1498 -0.4283
   89SAPS   C25 8588   2.632   4.050   9.977 -0.0446  0.2981 -1.0710
   89SAPS   H5R 8589   2.696   4.006  10.055 -0.1716  0.8222 -0.6615
   89SAPS   C26 8590   2.644   3.991   9.861 -0.3219 -0.1998 -0.3637
   89SAPS   H6R 8591   2.706   3.901   9.848  0.1668  0.1545 -0.5325
   89SAPS   C27 8592   2.576   4.030   9.732  0.0655  0.2878  0.0131
   89SAPS   H7R 8593   2.598   3.950   9.658  0.3084  0.1242  0.2581
   89SAPS   H7S 8594   2.632   4.119   9.695 -2.6910  3.4912  2.8832
   89SAPS   C28 8595   2.433   4.066   9.733  0.0040 -0.3313 -0.1352
   89SAPS   H8R 8596   2.375   4.049   9.825  1.5694 -1.0469  0.7532
   89SAPS   C29 8597   2.365   4.102   9.624 -0.5282 -0.5223 -0.3770
   89SAPS   H9R 8598   2.255   4.106   9.627 -0.4856  1.0408 -0.1098
   89SAPS  C210 8599   2.426   4.112   9.488 -0.0541 -0.1030  0.5782
   89SAPS  H10R 8600   2.529   4.071   9.482 -0.8465 -2.1252 -0.1836
   89SAPS  H10S 8601   2.428   4.220   9.462 -4.0085 -0.1956 -0.8307
   89SAPS  C211 8602   2.338   4.027   9.396  0.1427 -0.5409 -0.9200
   89SAPS  H11R 8603   2.323   3.924   9.432  1.2975 -0.1979  0.6463
   89SAPS  C212 8604   2.294   4.060   9.275 -0.2765  0.3135  0.1767
   89SAPS  H12R 8605   2.233   3.986   9.221 -0.9263 -0.6511  2.1375
   89SAPS  C213 8606   2.313   4.191   9.190  0.3399  0.1674  0.3282
   89SAPS  H13R 8607   2.325   4.170   9.082 -1.9967  1.3886 -0.2309
   89SAPS  H13S 8608   2.396   4.251   9.231  1.4218  0.0984 -1.6641
   89SAPS  C214 8609   2.192   4.279   9.204  0.0865  0.0542  0.5655
   89SAPS  H14R 8610   2.210   4.367   9.268 -0.4977 -0.6165  1.6764
   89SAPS  C215 8611   2.076   4.272   9.132  0.2768  0.3791  0.0742
   89SAPS  H15R 8612   2.003   4.354   9.146 -0.8955 -0.6566  0.1597
   89SAPS  C216 8613   2.044   4.165   9.027  0.3029  0.4220 -0.6399
   89SAPS  H16R 8614   1.997   4.075   9.071  1.1157  0.6880  0.8501
   89SAPS  H16S 8615   2.136   4.126   8.980 -0.3326 -3.4396  0.9842
   89SAPS  C217 8616   1.934   4.208   8.926  0.0382  0.1896 -0.4180
   89SAPS  H17R 8617   1.949   4.307   8.879 -1.4991  0.8270  0.3639
   89SAPS  H17S 8618   1.836   4.224   8.977 -0.5016 -1.0411 -1.0145
   89SAPS  C218 8619   1.919   4.110   8.814  0.0537  0.0641 -0.0675
   89SAPS  H18R 8620   1.897   4.006   8.846 -1.8445  0.3337 -0.3975
   89SAPS  H18S 8621   2.019   4.113   8.766  1.0145  0.0527  1.8399
   89SAPS  C219 8622   1.818   4.153   8.704  0.4291  0.0881  0.0823
   89SAPS  H19R 8623   1.730   4.196   8.757  0.2833 -2.6788  2.3961
   89SAPS  H19S 8624   1.787   4.067   8.641  4.4631  0.9493 -3.5126
   89SAPS  C220 8625   1.878   4.251   8.593  0.3139 -0.0489 -0.3375
   89SAPS  H20R 8626   1.970   4.207   8.549 -0.1614  0.1904 -1.5956
   89SAPS  H20S 8627   1.894   4.353   8.634 -1.4379  0.0608  0.1661
   89SAPS  H20T 8628   1.800   4.262   8.515 -1.4376  1.1812  1.4855
   89SAPS   C33 8629   2.666   4.478   9.735 -0.0664 -0.3726 -0.2768
   89SAPS   H3X 8630   2.678   4.376   9.779 -1.3131 -0.7718 -0.8004
   89SAPS   H3Y 8631   2.770   4.492   9.697  0.7945  0.1778  2.1153
   89SAPS   C34 8632   2.558   4.475   9.618  0.4397  0.2951 -0.0713
   89SAPS   H4X 8633   2.463   4.421   9.640 -0.7335  1.9123 -0.9358
   89SAPS   H4Y 8634   2.611   4.417   9.540  0.3267 -0.4902  0.4121
   89SAPS   C35 8635   2.535   4.609   9.558 -0.6200  0.0088 -0.3656
   89SAPS   H5X 8636   2.633   4.656   9.533 -0.6384 -0.5943 -1.5975
   89SAPS   H5Y 8637   2.484   4.661   9.642  3.2026  0.7120  1.7783
   89SAPS   C36 8638   2.460   4.595   9.426 -0.1809 -0.2855  0.8194
   89SAPS   H6X 8639   2.349   4.590   9.437 -0.4812 -0.7216 -1.6709
   89SAPS   H6Y 8640   2.501   4.515   9.362  3.7481  0.8300  1.6535
   89SAPS   C37 8641   2.484   4.713   9.339  0.2968 -0.0264  0.2480
   89SAPS   H7X 8642   2.590   4.742   9.323  0.1971 -0.5527 -1.5750
   89SAPS   H7Y 8643   2.427   4.798   9.382 -0.6393  0.4148 -1.7323
   89SAPS   C38 8644   2.424   4.700   9.193 -0.2749  0.3803 -0.0542
   89SAPS   H8X 8645   2.325   4.653   9.209  1.1147 -1.7532  3.6517
   89SAPS   H8Y 8646   2.494   4.634   9.137 -0.4427 -0.7374  0.9967
   89SAPS   C39 8647   2.406   4.833   9.121  0.3382  0.1540  0.0185
   89SAPS   H9X 8648   2.497   4.894   9.137 -0.0239  0.0687  2.8145
   89SAPS   H9Y 8649   2.325   4.886   9.175 -0.5235  0.8707 -1.8809
   89SAPS  C310 8650   2.368   4.824   8.973 -0.0533  0.5300  0.4117
   89SAPS  H10X 8651   2.276   4.761   8.969 -0.8875  1.7326  0.1505
   89SAPS  H10Y 8652   2.446   4.771   8.914 -1.0754  2.1014 -2.5071
   89SAPS  C311 8653   2.337   4.956   8.910 -0.3558 -0.2414  0.8097
   89SAPS  H11X 8654   2.426   5.021   8.926  1.0218 -1.3866 -1.6277
   89SAPS  H11Y 8655   2.252   4.988   8.974 -1.0516  0.8597 -0.6168
   89SAPS  C312 8656   2.291   4.957   8.765 -0.3043 -0.3252  0.3389
   89SAPS  H12X 8657   2.209   4.887   8.736  0.4522 -0.2892 -2.0544
   89SAPS  H12Y 8658   2.369   4.931   8.691  0.8760  1.6876  0.8135
   89SAPS  C313 8659   2.256   5.105   8.736 -0.0499  0.6944  0.0329
   89SAPS  H13X 8660   2.341   5.168   8.771 -0.1903 -0.7661  3.4338
   89SAPS  H13Y 8661   2.165   5.125   8.796  0.2218  0.0804  0.6657
   89SAPS  C314 8662   2.222   5.123   8.585 -0.3757 -0.5161  0.2985
   89SAPS  H14X 8663   2.132   5.063   8.562 -1.0412  1.9014 -4.7885
   89SAPS  H14Y 8664   2.307   5.086   8.524 -0.2965 -0.1653  0.1962
   89SAPS  C315 8665   2.185   5.273   8.546 -0.7729  0.7110  0.1810
   89SAPS  H15X 8666   2.280   5.332   8.548  0.3932 -1.0211 -1.1097
   89SAPS  H15Y 8667   2.132   5.322   8.631 -0.2335  2.0378 -0.2119
   89SAPS  C316 8668   2.130   5.288   8.402  0.4523  0.2453 -0.1278
   89SAPS  H16X 8669   2.024   5.254   8.398 -0.8994  4.0215 -0.6547
   89SAPS  H16Y 8670   2.188   5.217   8.339 -0.2957 -1.9945  1.5769
   89SAPS  C317 8671   2.143   5.431   8.354 -0.3027  0.0740  0.2221
   89SAPS  H17X 8672   2.249   5.444   8.325  0.0438  0.4665  1.5652
   89SAPS  H17Y 8673   2.121   5.508   8.431 -0.5249 -1.6783  2.0092
   89SAPS  C318 8674   2.059   5.461   8.228  0.3977  0.3505 -0.2557
   89SAPS  H18X 8675   2.085   5.550   8.167 -0.4437 -1.0583 -2.8593
   89SAPS  H18Y 8676   1.951   5.470   8.251  0.0190  0.6335 -1.9772
   89SAPS  H18Z 8677   2.068   5.374   8.159 -2.1326  1.2961 -1.9267
   90SAPS     N 8678   5.295   1.555  10.912  0.2403  0.4131 -0.5958
   90SAPS   HN1 8679   5.203   1.601  10.930 -0.2473  0.0840 -2.1479
   90SAPS   HN2 8680   5.277   1.453  10.898 -1.9591  0.3005  2.1991
   90SAPS   HN3 8681   5.351   1.554  11.000  1.8662  1.2443 -1.5791
   90SAPS   C12 8682   5.369   1.625  10.810 -0.7924 -0.2953  0.8108
   90SAPS  H12A 8683   5.363   1.731  10.831  1.0972  0.0017  0.0340
   90SAPS   C13 8684   5.520   1.602  10.822  0.5280  0.6604  0.3060
   90SAPS  O13A 8685   5.560   1.520  10.903 -0.0890  0.2377 -0.5201
   90SAPS  O13B 8686   5.599   1.668  10.754  0.3364 -0.1551 -0.2572
   90SAPS   C11 8687   5.322   1.595  10.663 -0.0076  0.6927  0.0170
   90SAPS  H11A 8688   5.323   1.485  10.645 -0.3076  0.7879 -0.6096
   90SAPS  H11B 8689   5.396   1.639  10.593  0.2115 -0.3534 -0.4324
   90SAPS     P 8690   5.157   1.787  10.591  0.5804  0.5515  0.0814
   90SAPS   O13 8691   5.013   1.816  10.609  0.1752 -0.2797  0.2898
   90SAPS   O14 8692   5.247   1.883  10.664  0.3857 -0.2772  0.0200
   90SAPS   O12 8693   5.186   1.640  10.648  0.3541 -0.1128  0.0202
   90SAPS   O11 8694   5.205   1.776  10.443  0.2929  0.2430 -0.7822
   90SAPS    C1 8695   5.211   1.660  10.364  0.5390  0.5250  0.4756
   90SAPS    HA 8696   5.226   1.568  10.424  0.3351 -0.5023 -0.9875
   90SAPS    HB 8697   5.108   1.642  10.327  0.1585 -0.4022  1.8875
   90SAPS    C2 8698   5.314   1.664  10.247 -0.3386 -0.2307  0.9191
   90SAPS    HS 8699   5.408   1.671  10.306 -1.4574  3.6773  2.5312
   90SAPS   O21 8700   5.279   1.770  10.151 -0.8346 -0.1894 -0.6577
   90SAPS   C21 8701   5.381   1.853  10.114 -0.1833  0.3048 -0.4846
   90SAPS   O22 8702   5.498   1.831  10.138  0.1305 -0.9479  0.2460
   90SAPS   C22 8703   5.326   1.958  10.016 -0.0510 -0.4425 -0.4284
   90SAPS   H2R 8704   5.230   1.918   9.976  0.8289 -1.8263 -1.2652
   90SAPS   H2S 8705   5.313   2.055  10.067 -2.8956 -1.4666  0.9923
   90SAPS    C3 8706   5.326   1.533  10.166 -0.6335  0.4341  0.6344
   90SAPS    HX 8707   5.224   1.505  10.132 -0.3157 -1.1106  0.8597
   90SAPS    HY 8708   5.371   1.451  10.226 -0.8111  1.1748  1.8059
   90SAPS   O31 8709   5.406   1.551  10.047 -0.0282  0.3630 -0.3628
   90SAPS   C31 8710   5.539   1.537  10.068  0.6014 -0.4396  0.7401
   90SAPS   O32 8711   5.595   1.509  10.176 -0.3211 -0.1989  0.8720
   90SAPS   C32 8712   5.606   1.541   9.934 -0.4114 -0.1992  0.2415
   90SAPS   H2X 8713   5.693   1.472   9.933 -1.2312 -1.2510 -0.9057
   90SAPS   H2Y 8714   5.652   1.641   9.914 -1.0766 -0.0869 -0.7848
   90SAPS   C23 8715   5.408   1.972   9.886 -0.1688 -0.4116 -0.1680
   90SAPS   H3R 8716   5.397   1.875   9.832  0.4575 -0.1494 -0.7785
   90SAPS   H3S 8717   5.516   1.969   9.909  0.3242  0.9264 -2.0762
   90SAPS   C24 8718   5.380   2.096   9.800  0.5051 -0.1220  0.7417
   90SAPS   H4R 8719   5.444   2.086   9.709  0.2754  0.1034  0.5510
   90SAPS   H4S 8720   5.402   2.192   9.852  0.2679  0.2668  0.1464
   90SAPS   C25 8721   5.234   2.099   9.765  0.3979  0.3193  0.0607
   90SAPS   H5R 8722   5.164   2.051   9.835 -1.9384  2.3441 -0.7254
   90SAPS   C26 8723   5.167   2.139   9.651 -0.6000 -0.3684  0.0147
   90SAPS   H6R 8724   5.058   2.130   9.640 -0.5864 -1.2948  0.5127
   90SAPS   C27 8725   5.227   2.189   9.519 -0.7153  0.4829 -0.3249
   90SAPS   H7R 8726   5.336   2.201   9.536 -0.7767  0.5507  0.0358
   90SAPS   H7S 8727   5.188   2.291   9.500 -3.3871 -0.0351  1.7811
   90SAPS   C28 8728   5.189   2.086   9.415 -0.0888 -0.3196  0.3760
   90SAPS   H8R 8729   5.247   1.992   9.414  1.8016  0.6443 -3.7027
   90SAPS   C29 8730   5.097   2.100   9.314 -0.6728  0.2567 -0.1916
   90SAPS   H9R 8731   5.075   2.014   9.250  1.1200 -2.1996  2.2767
   90SAPS  C210 8732   5.018   2.226   9.289  0.2634 -0.2021  0.3381
   90SAPS  H10R 8733   5.085   2.315   9.285 -0.7608  0.6654  1.4622
   90SAPS  H10S 8734   4.948   2.244   9.374  1.0405  1.3274  0.6892
   90SAPS  C211 8735   4.923   2.222   9.167 -0.0940  0.0988  0.0466
   90SAPS  H11R 8736   4.820   2.202   9.202 -1.2086  3.3520 -0.9560
   90SAPS  C212 8737   4.944   2.218   9.036 -0.1297  0.1251 -0.4865
   90SAPS  H12R 8738   4.863   2.183   8.969 -0.3504  0.3405 -0.3357
   90SAPS  C213 8739   5.085   2.215   8.972  0.6535  0.1855  0.4153
   90SAPS  H13R 8740   5.114   2.113   8.940  0.6325  0.5938 -0.9764
   90SAPS  H13S 8741   5.163   2.249   9.042  1.8013  1.7065 -1.5059
   90SAPS  C214 8742   5.095   2.304   8.850  0.3113 -0.1097 -0.0063
   90SAPS  H14R 8743   5.053   2.406   8.860  1.7776  0.8363 -2.4394
   90SAPS  C215 8744   5.150   2.275   8.726  0.1984  0.1315 -0.5510
   90SAPS  H15R 8745   5.146   2.345   8.642  2.0554 -0.6780 -1.3588
   90SAPS  C216 8746   5.200   2.139   8.679  0.4172  0.4320 -0.2273
   90SAPS  H16R 8747   5.105   2.082   8.667 -0.6616  1.5528  2.2839
   90SAPS  H16S 8748   5.259   2.084   8.755  1.1505 -2.0340 -2.4034
   90SAPS  C217 8749   5.285   2.132   8.548  0.5534 -0.5177 -0.2108
   90SAPS  H17R 8750   5.388   2.172   8.556 -0.0597  1.0989 -0.0879
   90SAPS  H17S 8751   5.235   2.199   8.475  0.5942 -0.8236 -0.5242
   90SAPS  C218 8752   5.275   1.988   8.493 -0.4571 -0.0189  0.2419
   90SAPS  H18R 8753   5.173   1.947   8.479 -1.0641  2.0168 -1.7215
   90SAPS  H18S 8754   5.311   1.920   8.574 -0.7793 -3.1236 -2.0300
   90SAPS  C219 8755   5.352   1.966   8.368  0.3841  0.6224  0.2146
   90SAPS  H19R 8756   5.303   2.033   8.294  2.1353  0.2787 -1.3282
   90SAPS  H19S 8757   5.353   1.863   8.326  2.2752  0.9925 -0.7910
   90SAPS  C220 8758   5.505   1.996   8.384 -0.1609  0.1705 -0.8453
   90SAPS  H20R 8759   5.573   1.935   8.320  0.2752  0.7026 -0.9063
   90SAPS  H20S 8760   5.538   1.990   8.490  0.6187  1.2508 -1.0005
   90SAPS  H20T 8761   5.528   2.099   8.349 -1.6394 -0.1669 -2.9690
   90SAPS   C33 8762   5.517   1.507   9.805 -0.0388  0.1725  0.0476
   90SAPS   H3X 8763   5.426   1.569   9.789 -0.5303  0.2310  2.6668
   90SAPS   H3Y 8764   5.489   1.401   9.822  1.1089 -0.7214 -2.9596
   90SAPS   C34 8765   5.611   1.503   9.674 -0.2684  0.2316  0.5499
   90SAPS   H4X 8766   5.697   1.432   9.684  0.6646  1.0819 -1.0721
   90SAPS   H4Y 8767   5.658   1.603   9.676  0.3110 -0.0117  3.2362
   90SAPS   C35 8768   5.537   1.474   9.544  0.1283 -0.2411  1.0142
   90SAPS   H5X 8769   5.455   1.545   9.519  0.4018 -0.4866 -0.6661
   90SAPS   H5Y 8770   5.502   1.369   9.557 -2.1144  0.1371 -1.2124
   90SAPS   C36 8771   5.622   1.466   9.424  0.0258  0.3114  0.5185
   90SAPS   H6X 8772   5.560   1.418   9.345 -1.2385 -1.4866  2.4995
   90SAPS   H6Y 8773   5.704   1.393   9.439 -1.1489 -1.4602 -1.2116
   90SAPS   C37 8774   5.686   1.596   9.369 -0.0799  0.2609 -0.3486
   90SAPS   H7X 8775   5.698   1.666   9.455 -1.2685  0.1278 -0.0529
   90SAPS   H7Y 8776   5.614   1.641   9.298 -0.3182 -1.1130 -0.9868
   90SAPS   C38 8777   5.825   1.585   9.298 -0.0303  0.4364 -0.9015
   90SAPS   H8X 8778   5.806   1.516   9.214  0.4529  0.3103 -0.9099
   90SAPS   H8Y 8779   5.902   1.552   9.371 -0.6759  0.0432 -0.3901
   90SAPS   C39 8780   5.869   1.725   9.242  1.5251  0.2255  0.7687
   90SAPS   H9X 8781   5.881   1.796   9.326 -1.3623  2.4375 -0.5209
   90SAPS   H9Y 8782   5.783   1.765   9.183  1.0740  1.2088  2.0422
   90SAPS  C310 8783   5.992   1.734   9.150 -0.1541  0.9260 -0.2078
   90SAPS  H10X 8784   5.997   1.642   9.088 -0.3302 -0.9162  2.3890
   90SAPS  H10Y 8785   6.080   1.748   9.215 -0.5798  0.7480  0.4111
   90SAPS  C311 8786   5.990   1.856   9.056  0.5337 -0.1227 -0.1088
   90SAPS  H11X 8787   6.086   1.869   9.001 -0.4287 -0.1578 -1.8817
   90SAPS  H11Y 8788   5.975   1.951   9.111  0.1977  0.3568 -1.0012
   90SAPS  C312 8789   5.881   1.858   8.945 -0.2328  0.8706 -0.0478
   90SAPS  H12X 8790   5.789   1.886   9.000  0.1322  1.6059  0.1938
   90SAPS  H12Y 8791   5.865   1.753   8.912  0.8603  0.9941 -1.0239
   90SAPS  C313 8792   5.890   1.952   8.829  0.1400 -1.2260 -0.1646
   90SAPS  H13X 8793   5.932   2.050   8.863 -1.3842 -0.4737 -0.3686
   90SAPS  H13Y 8794   5.791   1.973   8.783 -0.1521 -1.0117  0.5444
   90SAPS  C314 8795   5.992   1.898   8.724  0.0277  0.9329 -0.0259
   90SAPS  H14X 8796   5.965   1.794   8.694  0.1866  0.7118  0.5871
   90SAPS  H14Y 8797   6.088   1.895   8.780 -2.0614  0.9934  3.9158
   90SAPS  C315 8798   5.994   1.998   8.608  0.0455 -0.3284 -0.3725
   90SAPS  H15X 8799   6.085   1.969   8.552  1.7178  1.5806  1.1833
   90SAPS  H15Y 8800   6.022   2.099   8.645  2.5189 -0.2935 -2.0709
   90SAPS  C316 8801   5.874   2.008   8.521  0.6063 -0.1679 -0.6328
   90SAPS  H16X 8802   5.788   2.034   8.586  0.0447 -3.4913  0.1760
   90SAPS  H16Y 8803   5.840   1.907   8.490  0.0016 -0.0447 -0.3847
   90SAPS  C317 8804   5.865   2.102   8.399  0.0813 -0.0203 -0.5707
   90SAPS  H17X 8805   5.859   2.207   8.437 -2.6789 -0.5317  0.6471
   90SAPS  H17Y 8806   5.762   2.081   8.364  0.2362 -4.0528  0.8858
   90SAPS  C318 8807   5.970   2.076   8.294  0.6758  0.5053 -0.1564
   90SAPS  H18X 8808   5.970   1.966   8.279 -0.5960  0.2590  1.3625
   90SAPS  H18Y 8809   6.070   2.118   8.319  0.2747  1.0351  0.5983
   90SAPS  H18Z 8810   5.949   2.122   8.195  1.7504  0.1020 -0.5949
   91SAPS     N 8811   4.312   6.542   5.681  0.4891  0.1545 -0.3128
   91SAPS   HN1 8812   4.384   6.546   5.756  2.0137 -1.3381 -1.6311
   91SAPS   HN2 8813   4.312   6.442   5.653 -0.7918  0.2205 -0.6236
   91SAPS   HN3 8814   4.339   6.601   5.600 -0.0907  0.7227 -0.1109
   91SAPS   C12 8815   4.175   6.578   5.729  0.0933 -0.4421 -0.1697
   91SAPS  H12A 8816   4.173   6.684   5.750  1.5415  0.0152 -2.1081
   91SAPS   C13 8817   4.056   6.544   5.635 -0.1216  0.7325  0.6312
   91SAPS  O13A 8818   4.080   6.463   5.540  0.3338  0.3042 -0.3012
   91SAPS  O13B 8819   3.936   6.576   5.663 -0.5334  0.4984 -0.2848
   91SAPS   C11 8820   4.142   6.513   5.870  0.3794 -0.8912  0.4577
   91SAPS  H11A 8821   4.118   6.405   5.869 -2.0762 -0.4326 -2.1860
   91SAPS  H11B 8822   4.040   6.541   5.906  0.9344  1.6278  0.2519
   91SAPS     P 8823   4.358   6.452   6.015  0.2126  0.0307 -0.2656
   91SAPS   O13 8824   4.296   6.323   6.050 -0.3475  0.2262 -0.4535
   91SAPS   O14 8825   4.465   6.454   5.908  0.0415  0.3838 -0.4353
   91SAPS   O12 8826   4.245   6.553   5.968 -0.5651  0.3204  0.3171
   91SAPS   O11 8827   4.401   6.516   6.154 -0.1573 -0.0233 -0.1966
   91SAPS    C1 8828   4.344   6.627   6.211  0.2362  0.2931  0.8503
   91SAPS    HA 8829   4.427   6.700   6.223  0.5419 -0.0214  0.6498
   91SAPS    HB 8830   4.275   6.683   6.144 -1.0556  0.6793  2.4522
   91SAPS    C2 8831   4.270   6.594   6.341 -0.5814 -0.8250  0.0843
   91SAPS    HS 8832   4.224   6.692   6.362  0.2456 -0.4284  0.1072
   91SAPS   O21 8833   4.357   6.544   6.442 -0.2202  0.1769 -0.5706
   91SAPS   C21 8834   4.430   6.649   6.488 -0.3388  0.3797 -0.3426
   91SAPS   O22 8835   4.405   6.767   6.483 -1.1052 -0.0580 -0.5381
   91SAPS   C22 8836   4.554   6.594   6.563 -0.2348 -0.0224  0.3994
   91SAPS   H2R 8837   4.541   6.486   6.586 -1.6414 -0.3513 -1.7012
   91SAPS   H2S 8838   4.631   6.602   6.483 -0.9113  1.0873 -0.1677
   91SAPS    C3 8839   4.157   6.502   6.330  0.4905  0.3784  0.1666
   91SAPS    HX 8840   4.195   6.404   6.294  1.1009  1.0060 -0.9707
   91SAPS    HY 8841   4.094   6.534   6.244 -0.3396 -1.9991 -0.1854
   91SAPS   O31 8842   4.084   6.494   6.455 -0.5730 -0.6973  0.5768
   91SAPS   C31 8843   3.985   6.405   6.453  0.4412  0.5674  0.3850
   91SAPS   O32 8844   3.963   6.324   6.366  0.1028  0.2592  0.5197
   91SAPS   C32 8845   3.892   6.431   6.575 -0.1162 -0.4662  1.3295
   91SAPS   H2X 8846   3.824   6.517   6.555 -1.6644 -2.0502 -0.7098
   91SAPS   H2Y 8847   3.964   6.435   6.659  1.7756 -0.5650 -0.2208
   91SAPS   C23 8848   4.590   6.675   6.687  0.4458  0.4560  0.2383
   91SAPS   H3R 8849   4.620   6.777   6.655  0.6712  0.1521 -0.5563
   91SAPS   H3S 8850   4.679   6.635   6.740 -0.1654  0.6525  1.4478
   91SAPS   C24 8851   4.467   6.674   6.791  1.1010  0.3250  0.2138
   91SAPS   H4R 8852   4.453   6.566   6.814  2.1480 -0.5749 -2.9276
   91SAPS   H4S 8853   4.375   6.706   6.737  1.1924 -0.5075 -0.4615
   91SAPS   C25 8854   4.491   6.752   6.917  0.6853  0.0389  0.0928
   91SAPS   H5R 8855   4.477   6.860   6.905  0.2040  0.0131  0.3969
   91SAPS   C26 8856   4.537   6.712   7.035  1.0447  0.1174  0.2497
   91SAPS   H6R 8857   4.567   6.788   7.109 -2.2814  0.2640  1.6304
   91SAPS   C27 8858   4.568   6.572   7.072  0.2578  0.4742 -0.5454
   91SAPS   H7R 8859   4.678   6.563   7.085  0.3269 -0.9676 -1.8567
   91SAPS   H7S 8860   4.544   6.507   6.985 -0.3972  2.5914 -2.0347
   91SAPS   C28 8861   4.507   6.520   7.200 -0.2255 -1.0049  0.1489
   91SAPS   H8R 8862   4.432   6.440   7.192 -0.6466 -0.5128 -1.0609
   91SAPS   C29 8863   4.546   6.553   7.320  0.1889  0.2879 -0.7662
   91SAPS   H9R 8864   4.485   6.510   7.401 -0.3433 -1.1228 -1.8843
   91SAPS  C210 8865   4.650   6.657   7.364 -0.2377 -0.1405 -0.0985
   91SAPS  H10R 8866   4.611   6.735   7.432 -0.7402 -1.0915  0.7254
   91SAPS  H10S 8867   4.679   6.714   7.273  0.5047 -0.6139 -0.1682
   91SAPS  C211 8868   4.773   6.586   7.408  0.0339 -0.4274  0.4879
   91SAPS  H11R 8869   4.851   6.579   7.331  1.1013 -2.9064  1.6737
   91SAPS  C212 8870   4.801   6.521   7.522 -0.5680  0.0781  0.2365
   91SAPS  H12R 8871   4.901   6.476   7.530 -0.5858  0.1753  1.1499
   91SAPS  C213 8872   4.703   6.492   7.635  0.5211  0.2726 -0.4343
   91SAPS  H13R 8873   4.730   6.394   7.681 -0.5934 -1.8948 -4.0295
   91SAPS  H13S 8874   4.605   6.462   7.593  0.4287 -1.6534  1.0058
   91SAPS  C214 8875   4.695   6.601   7.736  0.2785 -0.3131  0.8131
   91SAPS  H14R 8876   4.781   6.667   7.754 -0.6469  1.2756 -0.2249
   91SAPS  C215 8877   4.583   6.646   7.796 -0.7742  1.2182 -0.5969
   91SAPS  H15R 8878   4.588   6.709   7.886  1.3282 -2.3678  2.0829
   91SAPS  C216 8879   4.448   6.588   7.784 -0.0257  0.4716  0.1706
   91SAPS  H16R 8880   4.379   6.608   7.869 -1.5632 -3.6798  0.1563
   91SAPS  H16S 8881   4.467   6.479   7.779 -1.0337  0.2597  0.6700
   91SAPS  C217 8882   4.380   6.639   7.660 -0.2117 -0.2192  0.0484
   91SAPS  H17R 8883   4.276   6.600   7.651 -0.5373  0.4782  0.6913
   91SAPS  H17S 8884   4.442   6.616   7.570 -2.3025 -3.3315 -0.7836
   91SAPS  C218 8885   4.350   6.792   7.665 -0.6678  0.2631 -0.0446
   91SAPS  H18R 8886   4.444   6.850   7.669  0.1615 -1.0858  0.5035
   91SAPS  H18S 8887   4.291   6.816   7.756  2.0364 -1.2825  2.2740
   91SAPS  C219 8888   4.271   6.823   7.532  0.4948 -0.0080 -0.0513
   91SAPS  H19R 8889   4.177   6.766   7.516  0.1649  0.0220  1.5911
   91SAPS  H19S 8890   4.338   6.801   7.447  0.4456 -1.0613  0.1706
   91SAPS  C220 8891   4.236   6.971   7.521  0.8693  0.3659  0.2722
   91SAPS  H20R 8892   4.167   7.006   7.601  0.0361  1.1461 -0.7428
   91SAPS  H20S 8893   4.179   6.985   7.426 -0.9511 -0.6488  1.1573
   91SAPS  H20T 8894   4.327   7.034   7.529  1.3928 -0.1557 -1.1646
   91SAPS   C33 8895   3.812   6.304   6.608 -0.7214  0.0587 -0.0636
   91SAPS   H3X 8896   3.883   6.219   6.617 -1.5195 -0.5483  0.6500
   91SAPS   H3Y 8897   3.747   6.269   6.526 -1.7913  0.4104  0.6053
   91SAPS   C34 8898   3.723   6.312   6.736  0.2349  0.4103  0.3368
   91SAPS   H4X 8899   3.685   6.416   6.751  1.5710  0.6537  2.3804
   91SAPS   H4Y 8900   3.773   6.283   6.830 -1.4161 -0.2548  1.0490
   91SAPS   C35 8901   3.597   6.217   6.737 -0.1536 -0.0207  0.1572
   91SAPS   H5X 8902   3.627   6.117   6.700 -0.8292  0.1106 -0.7772
   91SAPS   H5Y 8903   3.542   6.263   6.653  0.7670 -0.9877 -1.0025
   91SAPS   C36 8904   3.525   6.212   6.873 -0.3644 -0.3531 -0.0497
   91SAPS   H6X 8905   3.418   6.196   6.846 -0.7544  2.0114 -0.1136
   91SAPS   H6Y 8906   3.521   6.312   6.922  0.2652  0.2240 -1.1444
   91SAPS   C37 8907   3.568   6.099   6.967  0.4531 -0.8255 -0.5741
   91SAPS   H7X 8908   3.672   6.114   7.004  0.0790 -0.6027  0.4235
   91SAPS   H7Y 8909   3.548   6.002   6.917 -0.8640  0.2414 -2.2300
   91SAPS   C38 8910   3.476   6.077   7.090  0.5770 -0.5712  0.6562
   91SAPS   H8X 8911   3.481   5.977   7.137 -0.6916 -1.8415 -1.7482
   91SAPS   H8Y 8912   3.371   6.105   7.066  0.3195 -2.4118 -0.5597
   91SAPS   C39 8913   3.524   6.169   7.204 -0.0960  0.1515  1.1072
   91SAPS   H9X 8914   3.532   6.279   7.186  1.2708  0.1531  1.5800
   91SAPS   H9Y 8915   3.626   6.142   7.240 -0.2028  0.0645  1.3457
   91SAPS  C310 8916   3.427   6.171   7.325 -0.0005 -0.4108  0.5650
   91SAPS  H10X 8917   3.398   6.065   7.339  0.6978 -0.7611 -0.5709
   91SAPS  H10Y 8918   3.336   6.235   7.315 -2.4059 -3.5264  1.0489
   91SAPS  C311 8919   3.506   6.213   7.445 -0.7187  0.1693 -0.1700
   91SAPS  H11X 8920   3.541   6.318   7.436  0.1783 -0.2345 -1.8788
   91SAPS  H11Y 8921   3.600   6.153   7.453 -1.4653 -1.3009 -1.6780
   91SAPS  C312 8922   3.435   6.201   7.578  0.2813 -0.7567 -0.3883
   91SAPS  H12X 8923   3.384   6.102   7.581  0.3789 -0.7912  0.1166
   91SAPS  H12Y 8924   3.357   6.279   7.567 -1.3580 -2.4781 -1.7299
   91SAPS  C313 8925   3.530   6.237   7.695  0.0739 -0.4204 -0.1744
   91SAPS  H13X 8926   3.600   6.320   7.668  0.2205 -0.0020  1.4145
   91SAPS  H13Y 8927   3.593   6.146   7.709  0.6816 -0.0345 -0.3293
   91SAPS  C314 8928   3.441   6.264   7.819 -0.4314 -0.4199 -0.0207
   91SAPS  H14X 8929   3.422   6.162   7.860  1.0849 -0.4540  0.6602
   91SAPS  H14Y 8930   3.357   6.321   7.774 -0.2622  1.5598  2.0542
   91SAPS  C315 8931   3.522   6.338   7.933  0.1116  0.6322 -0.2620
   91SAPS  H15X 8932   3.552   6.439   7.895  0.7566  0.6473  0.2648
   91SAPS  H15Y 8933   3.618   6.284   7.950  0.0267  0.9977  1.5723
   91SAPS  C316 8934   3.446   6.361   8.061 -0.0816 -0.3824  0.5910
   91SAPS  H16X 8935   3.394   6.265   8.081 -1.8127  0.3680 -0.1249
   91SAPS  H16Y 8936   3.368   6.440   8.056 -1.2034 -1.5043 -0.3746
   91SAPS  C317 8937   3.549   6.400   8.169 -0.5001  0.2518 -0.1092
   91SAPS  H17X 8938   3.630   6.323   8.171  0.0125  0.7777 -0.3922
   91SAPS  H17Y 8939   3.493   6.394   8.265  0.9706  0.9714  0.8369
   91SAPS  C318 8940   3.616   6.536   8.142 -0.0475 -0.0144  0.2174
   91SAPS  H18X 8941   3.707   6.545   8.205  0.0845 -0.8604  0.1604
   91SAPS  H18Y 8942   3.541   6.618   8.142 -0.7223 -0.6253  0.1229
   91SAPS  H18Z 8943   3.668   6.542   8.045 -1.6405 -1.7029 -0.8161
   92SAPS     N 8944   5.682   4.081   6.209 -0.2503  0.1869 -0.1965
   92SAPS   HN1 8945   5.600   4.077   6.273 -0.1099 -0.4538 -0.0529
   92SAPS   HN2 8946   5.703   3.983   6.183  0.7590 -0.0172  1.2712
   92SAPS   HN3 8947   5.760   4.124   6.263 -1.4291 -0.4244  2.1100
   92SAPS   C12 8948   5.658   4.165   6.090 -0.3011 -0.0332  0.1423
   92SAPS  H12A 8949   5.734   4.150   6.014 -3.4548 -0.2714 -3.3010
   92SAPS   C13 8950   5.530   4.123   6.007  0.0950 -0.4139  0.7036
   92SAPS  O13A 8951   5.463   4.022   6.040 -0.1067  0.2429  0.2839
   92SAPS  O13B 8952   5.506   4.179   5.895 -0.0421 -0.1848  0.0454
   92SAPS   C11 8953   5.653   4.316   6.123  0.0048  0.4774 -0.0745
   92SAPS  H11A 8954   5.615   4.357   6.027  0.8466  0.5709 -0.3768
   92SAPS  H11B 8955   5.754   4.361   6.137  0.1870  0.7418 -1.9827
   92SAPS     P 8956   5.437   4.416   6.227  0.1019 -0.2439 -0.6847
   92SAPS   O13 8957   5.442   4.511   6.114  0.4331 -0.3094 -0.3062
   92SAPS   O14 8958   5.335   4.308   6.214 -0.2076 -0.0473  0.3290
   92SAPS   O12 8959   5.575   4.348   6.242 -0.0592  0.4285  0.4671
   92SAPS   O11 8960   5.431   4.504   6.360 -0.0620  0.2441 -0.0781
   92SAPS    C1 8961   5.518   4.484   6.473  0.3270 -0.3528 -0.1790
   92SAPS    HA 8962   5.626   4.494   6.448  0.3956  1.7817  0.8037
   92SAPS    HB 8963   5.512   4.568   6.545 -1.7044 -0.3264 -0.3187
   92SAPS    C2 8964   5.489   4.351   6.554 -0.5183 -0.8235 -0.0477
   92SAPS    HS 8965   5.486   4.271   6.477  1.1880 -1.2058  0.2409
   92SAPS   O21 8966   5.366   4.373   6.637 -0.8633 -0.4627  0.1657
   92SAPS   C21 8967   5.317   4.247   6.663  0.0640 -0.2510 -0.3846
   92SAPS   O22 8968   5.362   4.143   6.626 -0.6414  0.2058 -0.2877
   92SAPS   C22 8969   5.201   4.260   6.760 -0.4406 -0.5015  0.5598
   92SAPS   H2R 8970   5.205   4.364   6.801  0.2087  0.0806 -0.8899
   92SAPS   H2S 8971   5.123   4.235   6.686  2.1558 -2.4721 -1.7451
   92SAPS    C3 8972   5.627   4.316   6.638  0.0819 -0.3990 -0.1881
   92SAPS    HX 8973   5.706   4.324   6.561  0.1834  0.2852 -0.0196
   92SAPS    HY 8974   5.616   4.210   6.667  0.0546 -0.8860 -1.8998
   92SAPS   O31 8975   5.665   4.405   6.752  0.3803 -0.0587 -0.5834
   92SAPS   C31 8976   5.597   4.372   6.870 -0.2421 -1.2164  0.1077
   92SAPS   O32 8977   5.525   4.278   6.884 -1.6741  0.0145  0.3712
   92SAPS   C32 8978   5.636   4.476   6.978  0.0640 -0.7252  0.4144
   92SAPS   H2X 8979   5.570   4.565   6.987  1.5562  0.7419 -1.9697
   92SAPS   H2Y 8980   5.737   4.519   6.958 -1.0662  1.5355 -0.9838
   92SAPS   C23 8981   5.201   4.157   6.872 -0.0867  0.1459  0.1315
   92SAPS   H3R 8982   5.292   4.170   6.935 -1.4713  0.3890  2.1869
   92SAPS   H3S 8983   5.202   4.053   6.831  0.7999  0.5432 -0.9109
   92SAPS   C24 8984   5.083   4.179   6.968  0.0837  0.7134  0.0879
   92SAPS   H4R 8985   4.993   4.160   6.905 -0.5088  0.8816  0.8615
   92SAPS   H4S 8986   5.081   4.284   7.005 -2.3200  0.1811  1.7339
   92SAPS   C25 8987   5.080   4.084   7.089 -0.1139 -0.0564  0.0702
   92SAPS   H5R 8988   5.028   3.989   7.068 -0.9574 -0.4270  3.3141
   92SAPS   C26 8989   5.148   4.100   7.205 -0.5714  0.5026 -0.3486
   92SAPS   H6R 8990   5.141   4.005   7.260  3.0893 -0.0976 -0.6546
   92SAPS   C27 8991   5.241   4.212   7.255  0.4707  1.1127  0.4458
   92SAPS   H7R 8992   5.297   4.263   7.173  1.0763  0.7653  0.6388
   92SAPS   H7S 8993   5.314   4.175   7.329 -0.6760  1.5097  1.8295
   92SAPS   C28 8994   5.153   4.315   7.329 -0.1352 -0.3758 -0.0095
   92SAPS   H8R 8995   5.090   4.373   7.260  1.0855  2.4054  1.0645
   92SAPS   C29 8996   5.149   4.344   7.461 -0.4044 -0.1194  0.0760
   92SAPS   H9R 8997   5.071   4.409   7.501 -1.3162 -0.0908 -1.6493
   92SAPS  C210 8998   5.238   4.279   7.569 -0.5045  0.8013  0.2095
   92SAPS  H10R 8999   5.207   4.324   7.665 -0.7136 -0.2199  0.6296
   92SAPS  H10S 9000   5.343   4.308   7.548 -0.3157 -0.3936 -0.6160
   92SAPS  C211 9001   5.222   4.131   7.594  0.4610 -0.7378  0.7189
   92SAPS  H11R 9002   5.158   4.075   7.524  0.7327 -2.3816  1.7398
   92SAPS  C212 9003   5.267   4.052   7.690  0.0809 -0.4200  0.0635
   92SAPS  H12R 9004   5.250   3.944   7.678  1.1391 -0.5138 -0.7608
   92SAPS  C213 9005   5.348   4.096   7.812  0.3256 -0.1184 -0.7749
   92SAPS  H13R 9006   5.402   4.191   7.793 -3.3088  1.9299 -1.9118
   92SAPS  H13S 9007   5.414   4.012   7.841  1.1889  1.4117  2.0646
   92SAPS  C214 9008   5.259   4.115   7.937 -0.3613 -0.0846  1.0007
   92SAPS  H14R 9009   5.224   4.219   7.943  1.4375  0.5253  1.5621
   92SAPS  C215 9010   5.230   4.029   8.037  0.1974 -0.8643 -0.0135
   92SAPS  H15R 9011   5.175   4.073   8.121 -2.0638 -1.0303 -1.3415
   92SAPS  C216 9012   5.287   3.892   8.059  0.2198  0.0290 -0.3756
   92SAPS  H16R 9013   5.327   3.848   7.965  0.1389  1.7851 -1.2595
   92SAPS  H16S 9014   5.200   3.828   8.087 -2.2333  1.9141 -3.0730
   92SAPS  C217 9015   5.382   3.877   8.173 -1.2964 -0.1432 -0.1922
   92SAPS  H17R 9016   5.367   3.777   8.219 -1.0357  0.3885  1.0794
   92SAPS  H17S 9017   5.350   3.946   8.254  1.7721  0.5773  0.5251
   92SAPS  C218 9018   5.524   3.912   8.132  0.3111  0.5293 -0.8166
   92SAPS  H18R 9019   5.524   4.017   8.095 -1.6323  1.4626  1.5295
   92SAPS  H18S 9020   5.552   3.837   8.056  1.7497  0.7378 -0.5061
   92SAPS  C219 9021   5.618   3.925   8.259  0.3563  0.3758 -0.0078
   92SAPS  H19R 9022   5.681   3.833   8.266 -1.1801 -0.8174 -1.1629
   92SAPS  H19S 9023   5.558   3.919   8.352 -0.5320 -1.4678 -0.6520
   92SAPS  C220 9024   5.700   4.052   8.254 -0.1442  0.2155  0.8447
   92SAPS  H20R 9025   5.756   4.073   8.160  0.8340  3.4293  1.9977
   92SAPS  H20S 9026   5.780   4.054   8.332  0.6635  1.4094  0.0100
   92SAPS  H20T 9027   5.632   4.138   8.268 -1.0052 -0.4134  0.5785
   92SAPS   C33 9028   5.627   4.414   7.117  0.7832 -0.5881 -0.3969
   92SAPS   H3X 9029   5.682   4.318   7.113  1.0204 -0.4160 -1.6094
   92SAPS   H3Y 9030   5.525   4.399   7.158  1.2502 -0.2023  1.0036
   92SAPS   C34 9031   5.695   4.514   7.216  0.5315 -0.2465 -0.2299
   92SAPS   H4X 9032   5.663   4.616   7.189  0.2278 -0.5064 -0.8848
   92SAPS   H4Y 9033   5.805   4.515   7.199  1.1234  4.2867  2.3757
   92SAPS   C35 9034   5.669   4.495   7.364 -0.4189 -0.4035  0.3418
   92SAPS   H5X 9035   5.560   4.512   7.377 -0.5131  0.2108 -1.0657
   92SAPS   H5Y 9036   5.722   4.573   7.422  0.1341 -0.0145 -0.6609
   92SAPS   C36 9037   5.701   4.363   7.418 -0.4058 -0.1241  0.0029
   92SAPS   H6X 9038   5.810   4.339   7.425 -0.2716  0.7328  1.1398
   92SAPS   H6Y 9039   5.662   4.283   7.352  1.2434  0.2841 -1.5597
   92SAPS   C37 9040   5.643   4.329   7.556  0.8559  0.1238 -0.2040
   92SAPS   H7X 9041   5.606   4.224   7.551  0.1272  0.3649 -0.0418
   92SAPS   H7Y 9042   5.568   4.403   7.592 -0.2187 -0.3548 -1.3802
   92SAPS   C38 9043   5.751   4.336   7.665  0.4434  0.5979  0.1628
   92SAPS   H8X 9044   5.775   4.440   7.698 -1.5505  1.9867 -2.3175
   92SAPS   H8Y 9045   5.851   4.296   7.638  0.2260  0.2486 -0.1430
   92SAPS   C39 9046   5.681   4.266   7.792 -0.3507 -0.3005 -0.1073
   92SAPS   H9X 9047   5.648   4.162   7.773  2.4917 -1.2355 -0.3103
   92SAPS   H9Y 9048   5.589   4.326   7.809 -1.2046 -1.3626 -0.8429
   92SAPS  C310 9049   5.772   4.261   7.910  0.3702 -0.4593 -0.2676
   92SAPS  H10X 9050   5.869   4.216   7.880  0.6591  0.8948 -1.4399
   92SAPS  H10Y 9051   5.726   4.191   7.984  0.9922  0.2824  0.8527
   92SAPS  C311 9052   5.790   4.395   7.981 -0.5705 -0.1275 -0.2764
   92SAPS  H11X 9053   5.694   4.447   7.999 -1.5432 -1.7101 -0.7279
   92SAPS  H11Y 9054   5.849   4.471   7.926 -0.6098 -0.6014 -0.9921
   92SAPS  C312 9055   5.876   4.379   8.105  0.3030 -0.4521  0.5592
   92SAPS  H12X 9056   5.980   4.367   8.070 -0.5629  0.6661 -2.7697
   92SAPS  H12Y 9057   5.836   4.293   8.162 -1.6746 -1.9780 -2.8373
   92SAPS  C313 9058   5.870   4.499   8.202 -0.5390 -0.0933  0.1252
   92SAPS  H13X 9059   5.935   4.579   8.161  0.8455 -0.6056  1.2763
   92SAPS  H13Y 9060   5.911   4.466   8.299  1.2839 -0.3875 -0.7088
   92SAPS  C314 9061   5.725   4.551   8.224 -0.0219 -0.2884  0.3444
   92SAPS  H14X 9062   5.695   4.602   8.130  1.7012  2.0045  0.9525
   92SAPS  H14Y 9063   5.737   4.623   8.308  0.7250  0.4418 -0.3782
   92SAPS  C315 9064   5.621   4.446   8.268 -0.8295  0.1630 -0.4858
   92SAPS  H15X 9065   5.673   4.381   8.342 -0.5714 -0.8109 -1.5090
   92SAPS  H15Y 9066   5.598   4.376   8.185 -0.5847 -0.5916  0.0663
   92SAPS  C316 9067   5.498   4.497   8.318  0.0173  0.8803  0.0818
   92SAPS  H16X 9068   5.448   4.555   8.237  0.1674  1.9331  0.7174
   92SAPS  H16Y 9069   5.520   4.569   8.400  3.7292  0.2502 -0.1913
   92SAPS  C317 9070   5.397   4.394   8.358  0.3743 -0.1946  0.9921
   92SAPS  H17X 9071   5.304   4.439   8.399 -1.1922 -1.1371 -1.3457
   92SAPS  H17Y 9072   5.445   4.341   8.444 -0.4180 -0.9584  0.9798
   92SAPS  C318 9073   5.348   4.300   8.248 -0.4541  0.2555 -0.2211
   92SAPS  H18X 9074   5.425   4.225   8.219  1.6018  1.5251  1.6074
   92SAPS  H18Y 9075   5.311   4.352   8.157  0.0108 -0.0192 -0.5717
   92SAPS  H18Z 9076   5.260   4.247   8.291 -1.4568  0.1664 -2.2996
   93SAPS     N 9077   3.301   4.190   5.911  0.3940 -0.4760 -0.0717
   93SAPS   HN1 9078   3.203   4.201   5.945 -0.3070 -0.0315 -2.1047
   93SAPS   HN2 9079   3.361   4.260   5.960 -1.5446  2.0958 -1.1357
   93SAPS   HN3 9080   3.306   4.203   5.808  0.9634  3.2157  0.2716
   93SAPS   C12 9081   3.359   4.054   5.948 -0.3223  0.3180  0.0646
   93SAPS  H12A 9082   3.294   3.970   5.929  0.8281 -0.6198  0.1490
   93SAPS   C13 9083   3.492   4.008   5.881 -0.2437  0.2470  0.6330
   93SAPS  O13A 9084   3.541   4.088   5.800 -0.6684 -0.5512  0.5750
   93SAPS  O13B 9085   3.510   3.883   5.879  0.3099 -0.5172 -0.4160
   93SAPS   C11 9086   3.388   4.055   6.099  0.1329  0.0355  0.2680
   93SAPS  H11A 9087   3.466   4.133   6.113 -0.3187  0.6122 -0.3861
   93SAPS  H11B 9088   3.435   3.959   6.129  1.1096 -0.0495 -1.3730
   93SAPS     P 9089   3.179   3.963   6.221  0.3256 -0.0656  0.1946
   93SAPS   O13 9090   3.076   4.029   6.309  0.1824  0.8186 -0.1187
   93SAPS   O14 9091   3.129   3.883   6.114  0.2632  0.8319  0.5417
   93SAPS   O12 9092   3.272   4.086   6.174  0.3154 -0.3444  0.4996
   93SAPS   O11 9093   3.282   3.873   6.298 -0.2820 -0.5256 -0.4239
   93SAPS    C1 9094   3.362   3.922   6.408  0.4016 -0.2553  0.3015
   93SAPS    HA 9095   3.462   3.885   6.376  1.3011  2.5419 -0.4303
   93SAPS    HB 9096   3.373   4.032   6.412  0.1613 -0.2603  1.3609
   93SAPS    C2 9097   3.325   3.878   6.553  0.3161  0.3612  0.1150
   93SAPS    HS 9098   3.368   3.943   6.631 -0.0643 -0.2013  0.8010
   93SAPS   O21 9099   3.375   3.745   6.571  0.0228 -0.6771 -0.1006
   93SAPS   C21 9100   3.501   3.722   6.600  0.2136  0.7458  0.0398
   93SAPS   O22 9101   3.589   3.804   6.602 -0.2301 -0.2235  0.3140
   93SAPS   C22 9102   3.511   3.565   6.636 -0.7333  0.0492  0.1133
   93SAPS   H2R 9103   3.421   3.521   6.588 -0.3979  0.8465 -1.3060
   93SAPS   H2S 9104   3.602   3.529   6.583 -1.4244 -2.5729  0.5434
   93SAPS    C3 9105   3.178   3.889   6.578 -0.0350  0.3652  0.1571
   93SAPS    HX 9106   3.125   3.821   6.507  0.6729  1.0136 -1.0194
   93SAPS    HY 9107   3.137   3.989   6.551 -0.3904 -0.0555 -0.9335
   93SAPS   O31 9108   3.136   3.852   6.712  0.0123 -0.2299  0.0732
   93SAPS   C31 9109   3.006   3.875   6.744 -0.1478 -0.1644  0.7255
   93SAPS   O32 9110   2.922   3.926   6.670 -0.2286 -0.0774 -0.1388
   93SAPS   C32 9111   2.974   3.792   6.878 -0.2698 -0.4458 -0.5128
   93SAPS   H2X 9112   2.967   3.687   6.843  0.7083 -0.6033 -0.2609
   93SAPS   H2Y 9113   2.875   3.820   6.920  0.1082 -2.7683  2.1774
   93SAPS   C23 9114   3.528   3.532   6.788 -0.0332 -0.9498  0.7464
   93SAPS   H3R 9115   3.624   3.582   6.813 -0.5257  0.3100  0.1643
   93SAPS   H3S 9116   3.532   3.421   6.795 -0.5178 -0.9875  0.4349
   93SAPS   C24 9117   3.414   3.587   6.875  0.2880 -0.4341  0.0120
   93SAPS   H4R 9118   3.316   3.547   6.843 -0.4426  0.7424  0.7430
   93SAPS   H4S 9119   3.426   3.697   6.869 -0.1543 -0.2989  1.4135
   93SAPS   C25 9120   3.439   3.542   7.018  0.0446  0.3039  0.2981
   93SAPS   H5R 9121   3.414   3.436   7.030 -1.3675  0.4039 -1.2869
   93SAPS   C26 9122   3.479   3.616   7.119 -0.3181  0.0051 -0.0674
   93SAPS   H6R 9123   3.501   3.561   7.211 -1.8290  0.3013  0.5013
   93SAPS   C27 9124   3.519   3.762   7.113  0.5573  0.9116 -1.2931
   93SAPS   H7R 9125   3.490   3.800   7.213  1.2227 -0.0963 -0.6959
   93SAPS   H7S 9126   3.455   3.818   7.042 -1.3528  0.0959 -0.2870
   93SAPS   C28 9127   3.669   3.792   7.095  0.4184  0.1201 -0.0980
   93SAPS   H8R 9128   3.694   3.840   7.000  1.7232 -0.6822 -0.1728
   93SAPS   C29 9129   3.761   3.769   7.193 -0.1281  0.3149  0.1059
   93SAPS   H9R 9130   3.861   3.802   7.161 -0.6938 -0.8750 -3.2700
   93SAPS  C210 9131   3.739   3.731   7.332 -0.5908  0.4085 -1.0294
   93SAPS  H10R 9132   3.774   3.627   7.352 -0.9519  0.5426  0.4428
   93SAPS  H10S 9133   3.632   3.732   7.362 -1.2657  0.3210 -3.2481
   93SAPS  C211 9134   3.805   3.826   7.426  0.0300 -0.5693 -0.7626
   93SAPS  H11R 9135   3.809   3.929   7.389 -1.3308 -0.7760 -1.5535
   93SAPS  C212 9136   3.860   3.802   7.549 -0.4102  0.0593 -0.1025
   93SAPS  H12R 9137   3.910   3.884   7.602 -0.3858  0.8159 -1.2569
   93SAPS  C213 9138   3.859   3.666   7.620  0.5606  0.0563 -0.1602
   93SAPS  H13R 9139   3.955   3.611   7.629 -0.0916 -0.9975  0.6272
   93SAPS  H13S 9140   3.799   3.598   7.556  0.7667  1.0614 -1.4501
   93SAPS  C214 9141   3.781   3.684   7.751 -0.6034  0.6872 -0.0785
   93SAPS  H14R 9142   3.679   3.720   7.736 -1.0623  0.1238  1.5055
   93SAPS  C215 9143   3.812   3.666   7.878 -0.1108 -0.3837 -0.1619
   93SAPS  H15R 9144   3.736   3.686   7.955  0.9391 -1.1719  1.1098
   93SAPS  C216 9145   3.945   3.621   7.929 -0.3456  0.2157 -0.6955
   93SAPS  H16R 9146   3.975   3.664   8.026  1.8430  3.4910 -2.6510
   93SAPS  H16S 9147   4.030   3.665   7.873  1.0184  0.2553  1.3000
   93SAPS  C217 9148   3.936   3.468   7.910  0.2773  0.0081 -0.5195
   93SAPS  H17R 9149   3.924   3.444   7.802  0.8322 -0.7100 -0.4333
   93SAPS  H17S 9150   3.839   3.428   7.948  1.1700 -3.3257 -1.3941
   93SAPS  C218 9151   4.061   3.387   7.968  0.0574 -0.5209 -0.2284
   93SAPS  H18R 9152   4.149   3.425   7.911 -1.1696  1.3171 -1.0283
   93SAPS  H18S 9153   4.043   3.279   7.951 -1.3718 -0.5877  1.4733
   93SAPS  C219 9154   4.093   3.408   8.117 -0.6207  0.1545 -0.5577
   93SAPS  H19R 9155   4.131   3.507   8.149 -0.5919  0.2272 -0.8128
   93SAPS  H19S 9156   4.180   3.343   8.140  0.4563  0.8649 -2.4085
   93SAPS  C220 9157   3.977   3.366   8.213  0.0548 -0.3735 -0.0883
   93SAPS  H20R 9158   4.010   3.367   8.319  0.6444  0.6055 -0.2640
   93SAPS  H20S 9159   3.950   3.265   8.178  1.9087 -1.0734  0.3673
   93SAPS  H20T 9160   3.888   3.431   8.198  0.3219  0.5231  1.8557
   93SAPS   C33 9161   3.062   3.829   6.999 -0.2650  0.5327  0.0209
   93SAPS   H3X 9162   3.011   3.915   7.049 -1.2757  0.1359 -0.3153
   93SAPS   H3Y 9163   3.166   3.844   6.962 -0.4891 -2.7089 -2.3387
   93SAPS   C34 9164   3.060   3.706   7.098 -0.4230 -0.3907 -0.1651
   93SAPS   H4X 9165   3.109   3.615   7.058 -0.7191 -0.7435  0.2661
   93SAPS   H4Y 9166   2.953   3.683   7.117 -0.1486 -2.0648 -0.4872
   93SAPS   C35 9167   3.138   3.732   7.227 -1.0984 -0.8530  0.2865
   93SAPS   H5X 9168   3.098   3.824   7.275  0.5806  0.0811 -0.0246
   93SAPS   H5Y 9169   3.247   3.750   7.212 -0.1991 -4.3435  1.7038
   93SAPS   C36 9170   3.129   3.618   7.328 -0.3131 -0.7420 -0.0419
   93SAPS   H6X 9171   3.150   3.519   7.281  1.3537 -2.5420  4.0366
   93SAPS   H6Y 9172   3.031   3.615   7.379  0.6001 -0.8999  1.7842
   93SAPS   C37 9173   3.234   3.633   7.438 -0.1673 -0.0888 -0.1359
   93SAPS   H7X 9174   3.226   3.731   7.490 -0.8421 -1.2790  2.1464
   93SAPS   H7Y 9175   3.340   3.621   7.405  0.3214 -0.0810  1.3466
   93SAPS   C38 9176   3.215   3.531   7.552 -0.0017 -0.3303 -0.2404
   93SAPS   H8X 9177   3.253   3.431   7.522  1.3977  0.1138 -0.0041
   93SAPS   H8Y 9178   3.107   3.518   7.575  0.6550 -0.5763  3.3321
   93SAPS   C39 9179   3.289   3.569   7.683  0.2420 -0.4422 -0.1230
   93SAPS   H9X 9180   3.248   3.662   7.728  0.4149  0.1026 -1.0828
   93SAPS   H9Y 9181   3.396   3.582   7.656  0.7960 -0.1962  2.0056
   93SAPS  C310 9182   3.271   3.453   7.789 -0.1513 -0.3555  0.2264
   93SAPS  H10X 9183   3.296   3.357   7.739 -2.5299 -0.9402  0.0358
   93SAPS  H10Y 9184   3.165   3.452   7.824 -1.0151 -0.6757 -2.1993
   93SAPS  C311 9185   3.360   3.477   7.917  0.0618  0.1257  0.2248
   93SAPS  H11X 9186   3.466   3.467   7.886 -0.2516  1.0394 -1.2354
   93SAPS  H11Y 9187   3.333   3.384   7.970 -0.8016  0.2790  0.0579
   93SAPS  C312 9188   3.325   3.601   7.999  0.0056  0.3115 -0.5732
   93SAPS  H12X 9189   3.216   3.589   8.018  0.0906 -0.7215 -0.6685
   93SAPS  H12Y 9190   3.340   3.691   7.936  2.5257 -0.7955 -1.6981
   93SAPS  C313 9191   3.405   3.615   8.133 -0.1524 -0.0939 -0.3184
   93SAPS  H13X 9192   3.346   3.686   8.194  0.2381  1.9871 -2.2019
   93SAPS  H13Y 9193   3.506   3.659   8.118 -0.4200  0.2599 -1.1584
   93SAPS  C314 9194   3.424   3.488   8.213  0.2903 -0.0676 -0.8255
   93SAPS  H14X 9195   3.513   3.433   8.175  1.8061  1.2565  0.6482
   93SAPS  H14Y 9196   3.343   3.415   8.194  1.0643 -1.0211 -0.5196
   93SAPS  C315 9197   3.435   3.522   8.363  0.0529  0.5119  0.3489
   93SAPS  H15X 9198   3.364   3.605   8.385  0.1660  0.5373  0.6185
   93SAPS  H15Y 9199   3.537   3.564   8.372  0.6352 -0.1092 -2.5222
   93SAPS  C316 9200   3.415   3.398   8.457  0.0958 -0.1650  0.1510
   93SAPS  H16X 9201   3.434   3.436   8.560 -1.2138 -2.3856  1.2690
   93SAPS  H16Y 9202   3.486   3.313   8.450  1.0131  0.4778  1.3227
   93SAPS  C317 9203   3.276   3.336   8.452 -0.0782 -0.6106  0.2069
   93SAPS  H17X 9204   3.270   3.267   8.539  1.0336 -1.3761 -0.2912
   93SAPS  H17Y 9205   3.273   3.270   8.362  1.4954 -1.2104  0.5544
   93SAPS  C318 9206   3.144   3.420   8.433  0.2869 -0.1123  0.2459
   93SAPS  H18X 9207   3.117   3.482   8.522 -0.0653 -0.4718  0.3915
   93SAPS  H18Y 9208   3.054   3.361   8.406 -0.5064  1.6420 -1.1146
   93SAPS  H18Z 9209   3.152   3.485   8.344 -1.2952 -0.9189 -0.5224
   94SAPS     N 9210   4.284   0.568   5.932 -0.2021  0.4056  0.1135
   94SAPS   HN1 9211   4.360   0.639   5.923 -0.4453  1.0471  2.4822
   94SAPS   HN2 9212   4.201   0.620   5.966  0.1586  0.4655  0.9477
   94SAPS   HN3 9213   4.300   0.500   6.010  0.3675  0.6484  0.2188
   94SAPS   C12 9214   4.253   0.491   5.802 -0.3534 -0.1113 -0.1006
   94SAPS  H12A 9215   4.239   0.570   5.731  0.0617 -0.9414 -1.1252
   94SAPS   C13 9216   4.373   0.411   5.744 -0.2348 -0.5038  0.3383
   94SAPS  O13A 9217   4.475   0.393   5.812  0.7495 -0.1540 -0.0886
   94SAPS  O13B 9218   4.360   0.364   5.623  0.2763  0.2892 -0.1597
   94SAPS   C11 9219   4.142   0.391   5.830 -0.1676  0.3739  0.2746
   94SAPS  H11A 9220   4.138   0.344   5.730  2.0543 -1.9203  1.1342
   94SAPS  H11B 9221   4.055   0.454   5.856 -0.3581  0.7406 -1.1774
   94SAPS     P 9222   4.101   0.152   5.928  0.1172 -0.2347  0.1576
   94SAPS   O13 9223   4.057   0.116   5.791 -0.3443  0.0786 -0.1403
   94SAPS   O14 9224   4.207   0.065   5.980  0.3593 -0.7205  0.2908
   94SAPS   O12 9225   4.160   0.296   5.931  0.2861 -0.3158  0.1792
   94SAPS   O11 9226   3.978   0.152   6.029 -0.4435 -0.3651  0.7174
   94SAPS    C1 9227   3.916   0.268   6.078 -0.2815 -0.1116  0.5952
   94SAPS    HA 9228   3.935   0.358   6.015  2.0177 -0.6349  0.4380
   94SAPS    HB 9229   3.806   0.258   6.091 -0.1842 -1.8609  0.2871
   94SAPS    C2 9230   3.963   0.306   6.224  0.2212 -0.5059  0.1105
   94SAPS    HS 9231   4.074   0.300   6.219  0.2835  0.7699 -0.1739
   94SAPS   O21 9232   3.903   0.211   6.312  0.3576 -0.2867  0.4436
   94SAPS   C21 9233   3.971   0.100   6.335 -1.0105  0.5195 -0.3105
   94SAPS   O22 9234   4.088   0.079   6.309 -0.0217 -0.4941 -0.5820
   94SAPS   C22 9235   3.888   0.019   6.433  0.1544  0.0186  0.5176
   94SAPS   H2R 9236   3.805   0.084   6.466 -0.4636  0.1985 -1.2883
   94SAPS   H2S 9237   3.835  -0.063   6.378 -2.9190  2.5112 -0.5532
   94SAPS    C3 9238   3.928   0.448   6.274  0.5413  0.0476 -0.8393
   94SAPS    HX 9239   3.825   0.466   6.237 -0.0347 -1.6582 -0.1301
   94SAPS    HY 9240   3.985   0.521   6.213  1.3782  1.3219  1.3277
   94SAPS   O31 9241   3.942   0.466   6.416  0.1517  0.1009  0.2016
   94SAPS   C31 9242   4.059   0.491   6.467 -0.4558 -0.0181 -0.2259
   94SAPS   O32 9243   4.164   0.498   6.401  0.1309  0.1356 -0.3989
   94SAPS   C32 9244   4.033   0.505   6.618  0.1910 -0.6062  0.2622
   94SAPS   H2X 9245   4.078   0.418   6.671  0.2093  0.1169  1.4657
   94SAPS   H2Y 9246   3.925   0.501   6.644 -0.1405  1.6125 -0.5419
   94SAPS   C23 9247   3.964  -0.039   6.554  0.3724  0.2453 -1.0894
   94SAPS   H3R 9248   4.055  -0.095   6.525  1.0213  0.3707  0.6103
   94SAPS   H3S 9249   3.887  -0.106   6.597  0.0353  0.4280 -1.4023
   94SAPS   C24 9250   4.004   0.072   6.664  0.3084  1.0313 -0.6595
   94SAPS   H4R 9251   3.987   0.015   6.758  2.5392  0.3889 -0.5829
   94SAPS   H4S 9252   3.937   0.159   6.651  1.5134  1.8557 -1.6248
   94SAPS   C25 9253   4.151   0.114   6.666  0.2609 -0.1096 -0.3140
   94SAPS   H5R 9254   4.209   0.076   6.580 -2.3553 -1.9764 -1.4064
   94SAPS   C26 9255   4.212   0.183   6.764 -0.2102  0.6966 -0.2241
   94SAPS   H6R 9256   4.318   0.210   6.757 -0.1530  0.8271  0.9162
   94SAPS   C27 9257   4.132   0.222   6.890 -0.5113 -0.1088  0.0415
   94SAPS   H7R 9258   4.032   0.176   6.898 -1.0982  0.6749 -2.0238
   94SAPS   H7S 9259   4.113   0.331   6.877  0.8153  0.1390 -0.0425
   94SAPS   C28 9260   4.206   0.204   7.018  0.5059 -0.7013 -0.2986
   94SAPS   H8R 9261   4.258   0.109   7.033 -2.0906 -2.2666 -0.6298
   94SAPS   C29 9262   4.219   0.299   7.115 -0.3513 -0.2849 -0.1554
   94SAPS   H9R 9263   4.279   0.266   7.201  0.0028 -0.9697 -0.6555
   94SAPS  C210 9264   4.160   0.436   7.126 -0.2279  0.0530 -0.1739
   94SAPS  H10R 9265   4.219   0.510   7.067 -1.9027  0.5756 -1.2551
   94SAPS  H10S 9266   4.177   0.456   7.234 -1.3332 -0.6028  0.1341
   94SAPS  C211 9267   4.013   0.461   7.093 -0.1116  0.0777 -0.2166
   94SAPS  H11R 9268   3.981   0.430   6.993 -0.8017  0.6701 -0.1922
   94SAPS  C212 9269   3.921   0.499   7.185  0.0103 -0.8105 -0.0086
   94SAPS  H12R 9270   3.815   0.499   7.153 -0.6268  0.5054  1.9228
   94SAPS  C213 9271   3.940   0.535   7.330 -0.3250 -0.3123 -0.2779
   94SAPS  H13R 9272   3.878   0.627   7.334 -2.8014 -1.8222 -1.5584
   94SAPS  H13S 9273   4.043   0.576   7.338 -0.7832  0.6401  1.2139
   94SAPS  C214 9274   3.917   0.420   7.427  0.2989  0.5580 -0.4876
   94SAPS  H14R 9275   3.857   0.338   7.384 -0.2453  0.0849  1.0991
   94SAPS  C215 9276   3.977   0.397   7.542  0.2041 -0.1167 -0.0989
   94SAPS  H15R 9277   3.937   0.309   7.594 -0.4844  0.4189  0.2915
   94SAPS  C216 9278   4.074   0.494   7.608 -0.1716 -0.4081  0.0339
   94SAPS  H16R 9279   4.134   0.550   7.533 -0.5556 -2.0594 -1.6025
   94SAPS  H16S 9280   4.145   0.442   7.676  0.4254 -1.4635 -1.3438
   94SAPS  C217 9281   3.993   0.599   7.692 -0.5136 -0.3845 -0.1815
   94SAPS  H17R 9282   3.921   0.659   7.632 -1.2250 -0.6706  0.3614
   94SAPS  H17S 9283   4.067   0.673   7.729 -0.3633  0.0978 -1.4036
   94SAPS  C218 9284   3.922   0.536   7.818 -0.3222 -0.1280  0.6250
   94SAPS  H18R 9285   3.990   0.485   7.889 -1.3825  0.2535  1.9438
   94SAPS  H18S 9286   3.848   0.461   7.783  0.6243 -1.2283  0.9346
   94SAPS  C219 9287   3.833   0.638   7.881  0.2989  0.0938  0.2821
   94SAPS  H19R 9288   3.746   0.670   7.820 -0.5266 -0.3861  1.1890
   94SAPS  H19S 9289   3.889   0.733   7.896  2.6062 -0.6877 -2.4413
   94SAPS  C220 9290   3.781   0.584   8.014  0.9341  0.2971  0.0961
   94SAPS  H20R 9291   3.715   0.659   8.062 -1.4265 -1.7834  0.2747
   94SAPS  H20S 9292   3.861   0.562   8.089 -0.2248 -0.8251  1.0644
   94SAPS  H20T 9293   3.728   0.489   7.993  1.0189  0.8297 -2.8572
   94SAPS   C33 9294   4.101   0.641   6.667  0.1722  0.1488  0.5234
   94SAPS   H3X 9295   4.039   0.726   6.631 -0.1070  1.6173  4.1404
   94SAPS   H3Y 9296   4.204   0.646   6.624 -0.5712  0.1219 -1.3666
   94SAPS   C34 9297   4.099   0.660   6.816  0.5211  0.5614 -0.0527
   94SAPS   H4X 9298   4.166   0.592   6.872  0.0178  0.9585  1.0557
   94SAPS   H4Y 9299   3.998   0.641   6.859 -0.5358  2.4198 -1.5383
   94SAPS   C35 9300   4.151   0.803   6.849 -0.0387  0.0142  0.0118
   94SAPS   H5X 9301   4.070   0.879   6.838  0.0608  0.0934 -0.1784
   94SAPS   H5Y 9302   4.227   0.828   6.772 -0.4903 -3.0974 -1.5881
   94SAPS   C36 9303   4.204   0.809   6.994  0.0725 -0.3496  0.1723
   94SAPS   H6X 9304   4.272   0.723   7.011 -1.6618 -1.7967  0.0497
   94SAPS   H6Y 9305   4.117   0.801   7.062  0.5828 -1.0603  0.7666
   94SAPS   C37 9306   4.292   0.937   7.023 -0.1547  0.1270  0.3002
   94SAPS   H7X 9307   4.229   1.026   7.000  0.1535  0.0084 -1.0883
   94SAPS   H7Y 9308   4.365   0.933   6.940  0.2709  1.8042  0.5527
   94SAPS   C38 9309   4.350   0.953   7.165  0.0980 -0.2067 -0.2692
   94SAPS   H8X 9310   4.384   1.058   7.174 -0.9444  0.4550 -2.9220
   94SAPS   H8Y 9311   4.442   0.892   7.173 -0.5212 -1.0187  0.9345
   94SAPS   C39 9312   4.253   0.922   7.278  0.8332  0.2984 -0.5791
   94SAPS   H9X 9313   4.270   0.817   7.310  1.3641 -0.4196 -2.9906
   94SAPS   H9Y 9314   4.148   0.912   7.243 -0.0971 -3.8798  2.5445
   94SAPS  C310 9315   4.241   1.033   7.391  0.5541  0.1971 -0.0390
   94SAPS  H10X 9316   4.194   1.122   7.343  0.5125 -0.6285 -1.6122
   94SAPS  H10Y 9317   4.342   1.069   7.419  0.4570  1.5159 -1.2614
   94SAPS  C311 9318   4.150   0.998   7.510 -0.6639 -0.1466  0.2848
   94SAPS  H11X 9319   4.180   0.902   7.556 -1.3358 -0.7038 -0.4109
   94SAPS  H11Y 9320   4.046   0.986   7.473 -0.4611  2.1039 -1.2224
   94SAPS  C312 9321   4.148   1.096   7.626 -0.6689 -0.2667 -0.3278
   94SAPS  H12X 9322   4.116   1.191   7.578 -3.3457 -0.4978  0.8288
   94SAPS  H12Y 9323   4.252   1.102   7.664 -0.5890 -1.9673 -0.2308
   94SAPS  C313 9324   4.055   1.052   7.745  0.5728 -0.1305  0.3568
   94SAPS  H13X 9325   4.062   0.943   7.763  0.2741 -0.1147  0.5775
   94SAPS  H13Y 9326   3.949   1.077   7.722  0.5415  0.2983  0.9325
   94SAPS  C314 9327   4.092   1.128   7.875 -0.1383  0.3457  0.2581
   94SAPS  H14X 9328   4.117   1.235   7.860 -0.7036  0.2109 -1.9166
   94SAPS  H14Y 9329   4.189   1.089   7.915  0.5524  0.5139 -1.1986
   94SAPS  C315 9330   3.980   1.123   7.986  0.1519 -0.0930  0.2152
   94SAPS  H15X 9331   3.895   1.185   7.949  0.5924  2.0336  2.4865
   94SAPS  H15Y 9332   4.015   1.185   8.071  0.9428  0.4162 -0.4722
   94SAPS  C316 9333   3.926   0.994   8.031 -0.3185  0.0030  0.1168
   94SAPS  H16X 9334   3.999   0.955   8.105  0.7778  3.2143  0.8510
   94SAPS  H16Y 9335   3.906   0.932   7.941  1.4752  0.4460 -0.6298
   94SAPS  C317 9336   3.792   1.006   8.106 -1.0228 -0.4656  0.0960
   94SAPS  H17X 9337   3.792   1.105   8.155 -0.2996 -1.2177  1.7162
   94SAPS  H17Y 9338   3.783   0.929   8.187  2.7868 -0.0979  1.0827
   94SAPS  C318 9339   3.674   0.995   8.013  0.4983 -0.2968 -0.1221
   94SAPS  H18X 9340   3.671   1.065   7.927 -1.5517 -0.6459 -0.3948
   94SAPS  H18Y 9341   3.576   1.018   8.060  0.5361  3.3507 -1.5232
   94SAPS  H18Z 9342   3.671   0.891   7.974  0.6581 -0.4554  0.2729
   95SAPS     N 9343   3.389   2.564   6.042 -0.1740  0.2554 -0.2314
   95SAPS   HN1 9344   3.353   2.469   6.020 -0.9622 -0.4537  3.5686
   95SAPS   HN2 9345   3.491   2.562   6.021  0.0724 -1.1686  0.9677
   95SAPS   HN3 9346   3.383   2.585   6.143 -1.5752  0.3645 -0.3256
   95SAPS   C12 9347   3.321   2.669   5.965  0.3824  0.7131 -0.3814
   95SAPS  H12A 9348   3.354   2.769   5.992 -2.5121  1.6200  0.1505
   95SAPS   C13 9349   3.335   2.668   5.813 -0.5078  0.4757  0.2091
   95SAPS  O13A 9350   3.418   2.588   5.757  0.1960 -0.2576 -0.1438
   95SAPS  O13B 9351   3.271   2.756   5.742  0.8459  0.3143 -0.0191
   95SAPS   C11 9352   3.166   2.652   5.994  0.2133  0.3242 -0.3237
   95SAPS  H11A 9353   3.138   2.575   5.919  2.3225 -0.6818 -0.1499
   95SAPS  H11B 9354   3.116   2.747   5.965  3.4967  1.8297 -1.4471
   95SAPS     P 9355   3.012   2.666   6.208 -0.4463 -0.1688 -0.1912
   95SAPS   O13 9356   3.024   2.811   6.231 -0.1536 -0.6386  0.3867
   95SAPS   O14 9357   2.882   2.629   6.150 -0.5462 -0.2118  0.4867
   95SAPS   O12 9358   3.136   2.611   6.129  0.0738  0.0955 -0.6314
   95SAPS   O11 9359   3.021   2.585   6.341  0.3973  0.2684  0.5925
   95SAPS    C1 9360   3.145   2.573   6.410  0.1746 -0.4724 -0.0597
   95SAPS    HA 9361   3.196   2.476   6.393 -1.3053 -1.2885  0.0593
   95SAPS    HB 9362   3.213   2.661   6.396  1.3457 -1.3128  0.2024
   95SAPS    C2 9363   3.120   2.585   6.568 -0.4836  0.0737  1.0262
   95SAPS    HS 9364   3.214   2.583   6.627 -1.0705  1.6621  2.0713
   95SAPS   O21 9365   3.034   2.476   6.612  0.2528  0.0507 -0.3407
   95SAPS   C21 9366   3.104   2.363   6.614 -0.1229  0.3407 -0.6682
   95SAPS   O22 9367   3.226   2.357   6.597  0.3412 -0.0184 -0.1683
   95SAPS   C22 9368   3.015   2.243   6.623 -0.3030  0.0492  0.3104
   95SAPS   H2R 9369   2.930   2.265   6.690  0.1097  1.7233  0.3125
   95SAPS   H2S 9370   2.974   2.222   6.522  0.4155  1.5762 -0.3291
   95SAPS    C3 9371   3.058   2.723   6.609 -0.3981 -0.6124  0.1614
   95SAPS    HX 9372   2.956   2.730   6.567 -0.7526  1.4231  1.2465
   95SAPS    HY 9373   3.119   2.797   6.551  0.9396 -0.4007  1.7564
   95SAPS   O31 9374   3.063   2.751   6.746 -0.5789 -0.2139  0.2835
   95SAPS   C31 9375   2.968   2.723   6.828 -0.7047  0.2993 -0.2225
   95SAPS   O32 9376   2.865   2.664   6.798 -0.7672 -0.0464 -0.4864
   95SAPS   C32 9377   3.023   2.731   6.972 -0.2318  0.1152  0.2529
   95SAPS   H2X 9378   2.946   2.704   7.047 -0.7122 -0.4062 -0.4172
   95SAPS   H2Y 9379   3.042   2.838   6.994 -0.3428  0.6408 -1.9658
   95SAPS   C23 9380   3.087   2.117   6.671  0.0088  0.5438 -0.0818
   95SAPS   H3R 9381   3.135   2.135   6.770  1.6081  0.5535 -0.8308
   95SAPS   H3S 9382   3.174   2.093   6.606  1.0904 -0.0267  1.5107
   95SAPS   C24 9383   2.991   2.007   6.698  0.4128  0.0898  0.1273
   95SAPS   H4R 9384   2.936   2.000   6.601  0.7854  1.3486 -0.1944
   95SAPS   H4S 9385   2.909   2.039   6.765 -0.4536 -1.3693 -0.1789
   95SAPS   C25 9386   3.038   1.872   6.750 -0.6271  0.1694  0.0573
   95SAPS   H5R 9387   3.064   1.799   6.671 -1.3003  1.4136 -1.3545
   95SAPS   C26 9388   3.035   1.837   6.886 -0.3013  0.1673  0.6191
   95SAPS   H6R 9389   3.077   1.738   6.910  1.4519  0.9110  0.7640
   95SAPS   C27 9390   2.990   1.936   6.995  0.1146  0.7728 -0.1391
   95SAPS   H7R 9391   2.972   2.037   6.952  1.4346  0.0332 -2.6687
   95SAPS   H7S 9392   3.071   1.946   7.069  0.8795  0.0184 -0.8407
   95SAPS   C28 9393   2.859   1.895   7.066 -0.2062 -0.1761 -0.1335
   95SAPS   H8R 9394   2.795   1.829   7.006  3.0069 -3.0377 -0.7427
   95SAPS   C29 9395   2.816   1.929   7.190 -0.2200 -0.2799  0.0572
   95SAPS   H9R 9396   2.713   1.899   7.215 -1.6881  2.0776 -2.5138
   95SAPS  C210 9397   2.902   2.008   7.289 -0.1845  0.1665  0.3331
   95SAPS  H10R 9398   2.920   2.108   7.244  0.2442 -1.6183 -3.9395
   95SAPS  H10S 9399   3.008   1.976   7.301  0.4209  1.9787  0.1354
   95SAPS  C211 9400   2.823   2.018   7.419  1.1934 -0.2695 -0.4051
   95SAPS  H11R 9401   2.728   2.071   7.404  2.0016  0.7002 -2.5046
   95SAPS  C212 9402   2.865   1.972   7.537  0.3355 -1.0299  0.3555
   95SAPS  H12R 9403   2.799   1.991   7.624 -0.8473 -0.7727 -0.5642
   95SAPS  C213 9404   2.995   1.902   7.564  0.1031  0.1344  0.3295
   95SAPS  H13R 9405   3.072   1.925   7.486 -2.1862  2.0136 -1.5255
   95SAPS  H13S 9406   2.983   1.792   7.566  1.4570 -0.0831 -1.2722
   95SAPS  C214 9407   3.058   1.931   7.697 -0.1109 -0.1981 -0.2316
   95SAPS  H14R 9408   3.058   1.843   7.763  2.9322 -1.3481 -1.5349
   95SAPS  C215 9409   3.114   2.038   7.747 -0.0533  0.5636 -0.3097
   95SAPS  H15R 9410   3.145   2.025   7.852 -1.3569  0.6346  0.0949
   95SAPS  C216 9411   3.127   2.173   7.678  0.2775  0.8900  0.2092
   95SAPS  H16R 9412   3.053   2.242   7.723  0.2620 -0.9496  3.2801
   95SAPS  H16S 9413   3.111   2.162   7.569 -1.0434 -2.2824  0.6090
   95SAPS  C217 9414   3.262   2.243   7.701  0.0608  0.0418  0.5655
   95SAPS  H17R 9415   3.269   2.336   7.639  1.6824 -0.5310 -0.1806
   95SAPS  H17S 9416   3.335   2.168   7.663  2.5572  2.0442  1.0795
   95SAPS  C218 9417   3.286   2.277   7.853  0.4696 -0.1250 -0.1189
   95SAPS  H18R 9418   3.266   2.185   7.913  1.2370  0.9835  1.9519
   95SAPS  H18S 9419   3.203   2.346   7.882  0.4777  0.1943 -0.8497
   95SAPS  C219 9420   3.423   2.348   7.880  0.5806  0.2039  0.0481
   95SAPS  H19R 9421   3.417   2.379   7.986  0.3110 -1.6509  0.6082
   95SAPS  H19S 9422   3.430   2.439   7.816  2.1172  0.8079  1.0128
   95SAPS  C220 9423   3.540   2.259   7.846 -0.6857 -0.3615  0.0865
   95SAPS  H20R 9424   3.635   2.308   7.877 -1.3838  0.8715  0.3139
   95SAPS  H20S 9425   3.542   2.250   7.736 -0.7433  4.3021 -0.4973
   95SAPS  H20T 9426   3.533   2.160   7.897  0.8818  0.5484  2.2308
   95SAPS   C33 9427   3.158   2.652   6.981  0.2529  0.2320  0.4100
   95SAPS   H3X 9428   3.216   2.689   7.067  1.6930 -1.4101  0.1905
   95SAPS   H3Y 9429   3.215   2.672   6.887  1.3048 -0.9722  0.7668
   95SAPS   C34 9430   3.142   2.499   6.993  0.7988  0.0720 -0.6657
   95SAPS   H4X 9431   3.093   2.472   6.897 -0.0446 -0.8390 -0.0053
   95SAPS   H4Y 9432   3.072   2.469   7.074  2.0136 -0.0156  0.3669
   95SAPS   C35 9433   3.277   2.429   6.993  0.3129  0.9040 -0.1106
   95SAPS   H5X 9434   3.325   2.464   7.087 -1.0258  0.4382  0.7712
   95SAPS   H5Y 9435   3.338   2.454   6.903  0.1873 -0.8828 -0.7358
   95SAPS   C36 9436   3.265   2.275   7.004 -1.0483  0.7765 -0.3403
   95SAPS   H6X 9437   3.244   2.245   6.899 -0.2678  2.5259 -1.0221
   95SAPS   H6Y 9438   3.173   2.251   7.062 -0.5556 -1.5764 -0.4255
   95SAPS   C37 9439   3.383   2.212   7.078  0.6736  0.2329  0.2911
   95SAPS   H7X 9440   3.366   2.248   7.182 -0.1216 -0.4456  0.4055
   95SAPS   H7Y 9441   3.485   2.238   7.043  1.3239 -1.7870  0.5662
   95SAPS   C38 9442   3.383   2.059   7.075 -0.7326 -0.0121  0.0126
   95SAPS   H8X 9443   3.486   2.028   7.050  0.3168  1.7449  1.8895
   95SAPS   H8Y 9444   3.327   2.022   6.986  1.0283 -3.5310  0.2336
   95SAPS   C39 9445   3.342   1.983   7.205  0.0315 -0.0510 -0.0026
   95SAPS   H9X 9446   3.235   2.000   7.227 -0.7126 -1.0056 -2.4836
   95SAPS   H9Y 9447   3.401   2.031   7.286 -1.9580  1.9257  0.3831
   95SAPS  C310 9448   3.357   1.828   7.195  0.0160 -0.5517  0.3699
   95SAPS  H10X 9449   3.463   1.809   7.169 -0.1874  0.3841 -1.2226
   95SAPS  H10Y 9450   3.288   1.797   7.114 -1.2143 -0.4495  1.3436
   95SAPS  C311 9451   3.329   1.750   7.332 -0.3390 -0.1537 -0.1589
   95SAPS  H11X 9452   3.328   1.641   7.312 -2.4281 -0.8741  3.1047
   95SAPS  H11Y 9453   3.228   1.782   7.365 -0.4146 -0.6782  0.1291
   95SAPS  C312 9454   3.450   1.773   7.426  0.2115 -0.3052 -0.2925
   95SAPS  H12X 9455   3.507   1.865   7.403 -1.0951  0.2598 -1.4047
   95SAPS  H12Y 9456   3.518   1.688   7.404  0.9315 -0.4615  2.2043
   95SAPS  C313 9457   3.408   1.761   7.576  0.0003  0.5390 -0.3239
   95SAPS  H13X 9458   3.361   1.661   7.589  0.0640  0.7205  1.5758
   95SAPS  H13Y 9459   3.339   1.842   7.606  2.0519  1.9217  0.9372
   95SAPS  C314 9460   3.520   1.769   7.680  0.7619  0.1408  0.2322
   95SAPS  H14X 9461   3.598   1.694   7.654 -0.3613 -0.5685 -1.2547
   95SAPS  H14Y 9462   3.500   1.739   7.785  2.1249 -1.6888  0.0311
   95SAPS  C315 9463   3.579   1.910   7.695 -0.0613  0.0275  0.5345
   95SAPS  H15X 9464   3.495   1.975   7.727  0.5628  0.4996  1.2488
   95SAPS  H15Y 9465   3.596   1.947   7.592 -0.0054 -2.0733 -0.2542
   95SAPS  C316 9466   3.696   1.929   7.794  1.0937 -0.3323 -0.0641
   95SAPS  H16X 9467   3.735   2.032   7.800  0.0218  0.0136  2.1478
   95SAPS  H16Y 9468   3.784   1.877   7.751 -0.0094 -1.8141 -0.6462
   95SAPS  C317 9469   3.680   1.865   7.936 -0.2319 -0.7658 -0.3065
   95SAPS  H17X 9470   3.780   1.858   7.984  0.5910  3.3740 -1.0365
   95SAPS  H17Y 9471   3.648   1.759   7.925  3.9828 -2.0441 -2.5182
   95SAPS  C318 9472   3.575   1.933   8.031 -0.1728  0.1822  0.1215
   95SAPS  H18X 9473   3.474   1.938   7.986 -0.8682  0.2222  1.6313
   95SAPS  H18Y 9474   3.604   2.035   8.066 -0.7157 -0.2425  1.9137
   95SAPS  H18Z 9475   3.565   1.868   8.120 -0.0133 -0.9232 -0.6414
   96SAPS     N 9476   0.998   6.165   6.449  0.6006  0.2326  0.2138
   96SAPS   HN1 9477   0.904   6.126   6.469  2.0070 -1.8537  3.5415
   96SAPS   HN2 9478   1.056   6.122   6.524 -0.6479  0.7059  1.4848
   96SAPS   HN3 9479   0.996   6.269   6.459 -0.3415  0.1928  0.4858
   96SAPS   C12 9480   1.064   6.126   6.317  0.4081  0.3100  0.2764
   96SAPS  H12A 9481   1.049   6.020   6.303  1.6245  0.2906 -1.0041
   96SAPS   C13 9482   1.004   6.186   6.192  0.6130  0.0934  0.2491
   96SAPS  O13A 9483   0.917   6.278   6.198 -0.3408 -0.7290  0.4643
   96SAPS  O13B 9484   1.059   6.170   6.080  0.0472 -0.1021  0.7332
   96SAPS   C11 9485   1.221   6.156   6.319 -0.0174 -0.4388  0.0650
   96SAPS  H11A 9486   1.251   6.260   6.344 -1.6560  0.9473 -3.1651
   96SAPS  H11B 9487   1.260   6.137   6.217 -1.4873  2.0170 -1.0631
   96SAPS     P 9488   1.382   5.949   6.372 -0.3318  0.0858 -0.2021
   96SAPS   O13 9489   1.301   5.830   6.338 -0.0878 -0.2212 -0.1632
   96SAPS   O14 9490   1.480   5.996   6.269 -0.0674  1.0213 -0.2606
   96SAPS   O12 9491   1.280   6.063   6.414 -0.1448 -0.2534  0.0375
   96SAPS   O11 9492   1.457   5.916   6.508  0.2873  0.1102  0.2834
   96SAPS    C1 9493   1.394   5.951   6.627  0.3144  0.4318 -0.6439
   96SAPS    HA 9494   1.470   5.944   6.708 -2.1942  0.7474  1.8970
   96SAPS    HB 9495   1.368   6.060   6.630  2.3664  0.9577  2.1205
   96SAPS    C2 9496   1.273   5.856   6.660 -0.3872  0.0993 -0.0853
   96SAPS    HS 9497   1.201   5.851   6.575 -0.3986 -3.2251 -0.0283
   96SAPS   O21 9498   1.202   5.890   6.781  0.2173  0.6364 -0.0890
   96SAPS   C21 9499   1.131   5.998   6.773 -0.4074 -0.1470  0.1008
   96SAPS   O22 9500   1.105   6.060   6.668  0.5181  0.2029  0.4417
   96SAPS   C22 9501   1.094   6.056   6.913 -0.4229  0.3455  0.0289
   96SAPS   H2R 9502   1.037   5.975   6.964 -0.5751 -0.5074 -1.4176
   96SAPS   H2S 9503   1.186   6.098   6.959 -1.4729  2.7751  0.0304
   96SAPS    C3 9504   1.333   5.711   6.673 -0.3608 -0.1206 -0.0539
   96SAPS    HX 9505   1.382   5.683   6.577  2.2631  2.2372  0.4572
   96SAPS    HY 9506   1.241   5.653   6.693 -1.6597  2.0665  0.5771
   96SAPS   O31 9507   1.435   5.701   6.770  0.1278  0.6686  0.0195
   96SAPS   C31 9508   1.483   5.582   6.792 -0.8115  0.6237 -0.2216
   96SAPS   O32 9509   1.452   5.478   6.729  0.0866 -0.4054 -0.0482
   96SAPS   C32 9510   1.593   5.585   6.900  0.4158  0.4135 -0.0691
   96SAPS   H2X 9511   1.643   5.684   6.896  1.9774 -0.3747 -1.4045
   96SAPS   H2Y 9512   1.677   5.518   6.873 -1.2142 -1.4235 -0.8646
   96SAPS   C23 9513   1.003   6.185   6.915  0.3511  0.1154 -0.0475
   96SAPS   H3R 9514   0.905   6.165   6.865 -1.0896 -1.1978  3.0085
   96SAPS   H3S 9515   1.061   6.263   6.862 -1.6137  0.9451 -1.0873
   96SAPS   C24 9516   0.968   6.239   7.057  0.9821  0.5012  0.0509
   96SAPS   H4R 9517   0.919   6.154   7.109  1.6863  1.2463  2.0494
   96SAPS   H4S 9518   0.883   6.311   7.049  1.7963  1.5189  0.2160
   96SAPS   C25 9519   1.085   6.304   7.134  0.4753  0.6189 -0.3786
   96SAPS   H5R 9520   1.158   6.351   7.067  1.4247 -0.0871  0.1446
   96SAPS   C26 9521   1.107   6.291   7.266  0.5656 -1.0180 -0.1004
   96SAPS   H6R 9522   1.190   6.353   7.303 -1.7530  1.1637  1.8293
   96SAPS   C27 9523   1.020   6.211   7.361 -0.0532 -0.6935  0.1172
   96SAPS   H7R 9524   0.999   6.114   7.311 -0.9773 -1.7407  2.3916
   96SAPS   H7S 9525   0.924   6.257   7.394 -0.3699 -0.3305 -1.2355
   96SAPS   C28 9526   1.102   6.177   7.486 -0.4261 -0.4895  0.1038
   96SAPS   H8R 9527   1.153   6.079   7.486  2.5616  0.9485  0.3931
   96SAPS   C29 9528   1.120   6.255   7.597 -0.3825 -0.3399 -0.3864
   96SAPS   H9R 9529   1.179   6.220   7.682 -0.5479  0.1496 -0.0617
   96SAPS  C210 9530   1.054   6.388   7.613  0.2486  0.3326 -0.2916
   96SAPS  H10R 9531   0.963   6.394   7.550  2.4350  0.5418 -3.6954
   96SAPS  H10S 9532   1.117   6.467   7.567 -2.7990  1.5908 -2.6541
   96SAPS  C211 9533   1.029   6.424   7.756 -0.7060 -0.4937 -0.3517
   96SAPS  H11R 9534   0.926   6.425   7.795 -1.1334  1.4614 -1.4170
   96SAPS  C212 9535   1.113   6.472   7.845  0.4315 -0.6027 -0.2160
   96SAPS  H12R 9536   1.071   6.496   7.944  0.2539  1.0808 -0.6837
   96SAPS  C213 9537   1.261   6.485   7.840 -0.3179 -0.4996 -0.1996
   96SAPS  H13R 9538   1.285   6.593   7.855  2.2907 -1.0771  0.1800
   96SAPS  H13S 9539   1.298   6.466   7.737 -0.4464  1.9854 -0.7746
   96SAPS  C214 9540   1.333   6.391   7.945 -0.5405 -0.2643 -0.0596
   96SAPS  H14R 9541   1.302   6.285   7.952  0.8932 -0.7951 -1.2608
   96SAPS  C215 9542   1.437   6.424   8.022 -0.0918 -1.1882 -0.3440
   96SAPS  H15R 9543   1.470   6.346   8.091  2.3415 -1.6403 -1.9016
   96SAPS  C216 9544   1.506   6.554   8.035 -0.6624 -0.9355 -0.0636
   96SAPS  H16R 9545   1.463   6.619   8.114 -1.2540  2.7380 -3.0820
   96SAPS  H16S 9546   1.486   6.606   7.938 -3.5161  0.1752  1.0079
   96SAPS  C217 9547   1.649   6.533   8.075 -0.0220  0.5881  0.4874
   96SAPS  H17R 9548   1.702   6.464   8.005 -1.3456 -0.0897  0.1354
   96SAPS  H17S 9549   1.654   6.478   8.171  1.6300  0.2073  0.2248
   96SAPS  C218 9550   1.726   6.665   8.081 -0.5290  0.0374 -0.2222
   96SAPS  H18R 9551   1.813   6.635   8.143 -0.3252 -1.5755 -1.2336
   96SAPS  H18S 9552   1.671   6.742   8.139  1.6774  2.1755 -0.7790
   96SAPS  C219 9553   1.762   6.719   7.938 -0.4943  0.2032 -0.2922
   96SAPS  H19R 9554   1.674   6.721   7.870 -0.0616  1.2977 -0.8464
   96SAPS  H19S 9555   1.831   6.644   7.894  0.1252  0.1809  0.6923
   96SAPS  C220 9556   1.834   6.853   7.947  0.2140 -0.2468  0.3888
   96SAPS  H20R 9557   1.880   6.881   7.849  0.9615 -2.0115  0.2109
   96SAPS  H20S 9558   1.921   6.848   8.015  0.7669 -0.8527 -0.3519
   96SAPS  H20T 9559   1.762   6.934   7.972  2.3425  2.5333 -1.7864
   96SAPS   C33 9560   1.538   5.536   7.041  0.2891  0.1267 -0.2890
   96SAPS   H3X 9561   1.531   5.425   7.035  2.4858 -0.0012 -2.7014
   96SAPS   H3Y 9562   1.437   5.577   7.060  0.3493  0.2429 -0.2153
   96SAPS   C34 9563   1.637   5.584   7.143 -0.9422  0.1356 -0.1997
   96SAPS   H4X 9564   1.646   5.694   7.129 -0.6838  0.0590 -0.6421
   96SAPS   H4Y 9565   1.740   5.549   7.121 -1.5396  0.0755 -3.3205
   96SAPS   C35 9566   1.587   5.538   7.280 -0.2217  0.2888 -0.3731
   96SAPS   H5X 9567   1.561   5.431   7.263 -0.3267  0.8048 -4.1512
   96SAPS   H5Y 9568   1.488   5.587   7.293 -0.7415 -0.7842 -0.2074
   96SAPS   C36 9569   1.688   5.554   7.391  0.2213  0.5358  0.3958
   96SAPS   H6X 9570   1.728   5.657   7.397  2.4359 -0.1330 -1.3283
   96SAPS   H6Y 9571   1.781   5.500   7.364  1.2880  1.7968  1.4286
   96SAPS   C37 9572   1.640   5.497   7.522 -0.2213 -0.2103  0.8535
   96SAPS   H7X 9573   1.618   5.389   7.507 -0.5293 -0.1896  1.1442
   96SAPS   H7Y 9574   1.544   5.543   7.553 -0.4557  0.3379 -0.5871
   96SAPS   C38 9575   1.750   5.517   7.628 -0.5276 -0.0743  0.1623
   96SAPS   H8X 9576   1.804   5.612   7.608  0.2172 -0.1462  1.6961
   96SAPS   H8Y 9577   1.830   5.443   7.608  0.5116  0.6180  1.6236
   96SAPS   C39 9578   1.712   5.485   7.769  0.3486 -0.0927 -0.2637
   96SAPS   H9X 9579   1.663   5.387   7.788 -4.3873  2.5901  3.8644
   96SAPS   H9Y 9580   1.631   5.560   7.787 -1.2568 -1.7392 -0.3427
   96SAPS  C310 9581   1.825   5.504   7.874 -0.5250 -0.1077 -0.4283
   96SAPS  H10X 9582   1.894   5.588   7.849 -0.6869  0.3760  0.6808
   96SAPS  H10Y 9583   1.889   5.414   7.875 -0.4362 -0.0661  1.9505
   96SAPS  C311 9584   1.757   5.523   8.014 -0.1498  0.1520 -0.3868
   96SAPS  H11X 9585   1.696   5.616   8.012  0.0741  0.3079 -2.8632
   96SAPS  H11Y 9586   1.844   5.531   8.083 -2.6962 -1.4766  3.3089
   96SAPS  C312 9587   1.686   5.393   8.065  0.9177 -0.1225 -0.1832
   96SAPS  H12X 9588   1.764   5.315   8.050  2.4486  1.1155  1.0158
   96SAPS  H12Y 9589   1.596   5.364   8.007  1.3316  0.6346 -1.2343
   96SAPS  C313 9590   1.644   5.422   8.211 -0.2724 -0.0463 -0.0015
   96SAPS  H13X 9591   1.727   5.468   8.269 -0.0855  1.0801 -1.0917
   96SAPS  H13Y 9592   1.608   5.328   8.257 -1.9581 -0.1766 -1.4428
   96SAPS  C314 9593   1.518   5.507   8.211 -0.9565 -0.3921 -0.2154
   96SAPS  H14X 9594   1.440   5.453   8.154  1.7135 -1.8787 -2.7233
   96SAPS  H14Y 9595   1.540   5.606   8.166  3.9710 -0.2041  1.9301
   96SAPS  C315 9596   1.470   5.529   8.359  0.1203 -0.2487  0.2077
   96SAPS  H15X 9597   1.431   5.444   8.419 -2.0515  0.4128 -0.1775
   96SAPS  H15Y 9598   1.390   5.605   8.348  1.6481  1.3582 -0.1685
   96SAPS  C316 9599   1.567   5.614   8.433  0.5106 -0.4227  0.4842
   96SAPS  H16X 9600   1.586   5.710   8.379 -1.5303  0.2957  0.9371
   96SAPS  H16Y 9601   1.656   5.553   8.460  0.0520 -1.0305  0.6379
   96SAPS  C317 9602   1.496   5.645   8.569 -0.1457  0.7032 -0.5248
   96SAPS  H17X 9603   1.465   5.549   8.615  2.3280  0.3058  0.4368
   96SAPS  H17Y 9604   1.411   5.707   8.532  0.6140  1.1191 -1.6098
   96SAPS  C318 9605   1.579   5.720   8.675 -0.0327  0.7255 -0.2117
   96SAPS  H18X 9606   1.646   5.653   8.734 -1.8230 -0.6685  0.3361
   96SAPS  H18Y 9607   1.518   5.762   8.757 -1.5516  2.3997 -2.1140
   96SAPS  H18Z 9608   1.636   5.804   8.630 -1.2281  0.3332 -2.6319
   97SAPS     N 9609   5.231   4.223   5.993 -0.1445 -0.3141  0.1925
   97SAPS   HN1 9610   5.152   4.163   6.024  1.3466 -2.4959 -0.0061
   97SAPS   HN2 9611   5.306   4.165   5.951 -1.4105 -0.2130 -2.4150
   97SAPS   HN3 9612   5.266   4.274   6.077  0.7127 -1.2834  0.4387
   97SAPS   C12 9613   5.180   4.326   5.886  0.0184  0.3496  0.3147
   97SAPS  H12A 9614   5.259   4.392   5.854 -0.0235  0.3213  0.1550
   97SAPS   C13 9615   5.131   4.256   5.758  0.7809 -0.2921  0.0476
   97SAPS  O13A 9616   5.147   4.132   5.747  0.5849 -0.3059 -0.0121
   97SAPS  O13B 9617   5.113   4.330   5.655  0.2891 -0.1103  0.4265
   97SAPS   C11 9618   5.054   4.400   5.948 -0.3884  0.4468 -0.7704
   97SAPS  H11A 9619   4.976   4.327   5.982 -0.6941  1.3767  0.6108
   97SAPS  H11B 9620   5.016   4.472   5.872  0.4514  0.6124 -1.0342
   97SAPS     P 9621   5.009   4.564   6.151 -0.1542 -0.1056 -0.6591
   97SAPS   O13 9622   5.104   4.633   6.247 -0.3262 -0.3177 -0.2505
   97SAPS   O14 9623   4.923   4.649   6.066  0.0425 -0.1603 -0.4405
   97SAPS   O12 9624   5.096   4.468   6.066  0.0053  0.3819 -0.3771
   97SAPS   O11 9625   4.913   4.467   6.235 -0.0723 -0.4108  0.1200
   97SAPS    C1 9626   4.976   4.356   6.300 -0.7448 -0.4148  0.0862
   97SAPS    HA 9627   4.921   4.263   6.272 -1.5844  0.0798  0.0530
   97SAPS    HB 9628   5.083   4.342   6.276 -0.6466  1.3247 -0.6427
   97SAPS    C2 9629   4.966   4.356   6.455 -0.1265 -0.1502  0.2696
   97SAPS    HS 9630   5.027   4.268   6.485 -1.3193 -1.1718 -0.2330
   97SAPS   O21 9631   4.828   4.336   6.495  0.1956  0.6604  0.1761
   97SAPS   C21 9632   4.793   4.247   6.586  0.7613 -0.3885 -0.3516
   97SAPS   O22 9633   4.873   4.171   6.641  0.0489  0.0191 -0.3870
   97SAPS   C22 9634   4.642   4.232   6.596  0.3059 -0.0221 -0.3611
   97SAPS   H2R 9635   4.608   4.247   6.491 -0.3888  0.9573 -0.0102
   97SAPS   H2S 9636   4.626   4.127   6.626  1.4635  0.3990  1.9517
   97SAPS    C3 9637   5.033   4.481   6.522  1.3029 -0.1040  0.0404
   97SAPS    HX 9638   4.980   4.570   6.481 -0.4728 -1.3961 -0.5675
   97SAPS    HY 9639   5.139   4.479   6.490  1.7032  0.2005  1.2655
   97SAPS   O31 9640   5.013   4.467   6.661 -0.4960 -0.1022 -0.3874
   97SAPS   C31 9641   4.930   4.549   6.725  0.0413  0.4206  0.1964
   97SAPS   O32 9642   4.875   4.644   6.682  0.5170 -1.4823  0.3908
   97SAPS   C32 9643   4.906   4.490   6.863 -0.8264  0.0590 -0.3711
   97SAPS   H2X 9644   5.007   4.471   6.904 -1.0096 -0.7729 -0.2889
   97SAPS   H2Y 9645   4.854   4.394   6.844  0.5330 -1.0293  1.1654
   97SAPS   C23 9646   4.571   4.331   6.699 -0.1219  0.5714 -0.0310
   97SAPS   H3R 9647   4.469   4.350   6.662  0.1603  1.1710 -0.5163
   97SAPS   H3S 9648   4.615   4.433   6.694  0.7614  0.2331  0.5081
   97SAPS   C24 9649   4.568   4.292   6.845  0.4828  0.5807  0.2960
   97SAPS   H4R 9650   4.503   4.366   6.896 -1.0884 -0.3403 -0.3205
   97SAPS   H4S 9651   4.672   4.290   6.883  1.4772 -1.3802 -2.2181
   97SAPS   C25 9652   4.509   4.157   6.866 -0.0265  0.1305 -0.4987
   97SAPS   H5R 9653   4.445   4.111   6.789  0.4082 -2.0378  0.3604
   97SAPS   C26 9654   4.547   4.071   6.967 -0.6503  0.4166  0.3964
   97SAPS   H6R 9655   4.503   3.972   6.980  1.3064 -0.0692  5.0832
   97SAPS   C27 9656   4.653   4.090   7.078 -0.3448  0.0364 -0.0182
   97SAPS   H7R 9657   4.606   4.131   7.169  0.6814  2.9397 -0.7079
   97SAPS   H7S 9658   4.729   4.163   7.043 -1.3577  1.2670  0.2853
   97SAPS   C28 9659   4.722   3.960   7.112  0.0283 -0.0404  0.4060
   97SAPS   H8R 9660   4.736   3.889   7.030 -3.0260  1.2139 -1.3537
   97SAPS   C29 9661   4.762   3.919   7.232 -0.1726  0.1082 -0.1737
   97SAPS   H9R 9662   4.807   3.819   7.243 -1.6045 -0.5494 -0.0218
   97SAPS  C210 9663   4.750   3.989   7.367  0.0381 -0.0571  0.4307
   97SAPS  H10R 9664   4.742   4.097   7.346  0.8815  0.4789  2.5978
   97SAPS  H10S 9665   4.843   3.997   7.428  1.2421 -0.3924 -1.2940
   97SAPS  C211 9666   4.641   3.935   7.459  0.1656 -0.5647  0.1968
   97SAPS  H11R 9667   4.578   3.855   7.419  0.3876 -1.0029  0.7202
   97SAPS  C212 9668   4.639   3.962   7.590  0.7156 -0.2357  0.7417
   97SAPS  H12R 9669   4.557   3.911   7.643 -1.6751 -0.7888 -3.0287
   97SAPS  C213 9670   4.736   4.048   7.661  0.1686 -0.1092 -0.3529
   97SAPS  H13R 9671   4.673   4.106   7.732 -1.5265 -0.1471 -1.7695
   97SAPS  H13S 9672   4.787   4.124   7.599  1.0280  0.5700  1.1276
   97SAPS  C214 9673   4.841   3.970   7.745 -0.2220  0.6425  0.6982
   97SAPS  H14R 9674   4.901   3.907   7.678 -0.9448  2.8688 -2.2485
   97SAPS  C215 9675   4.868   3.979   7.875  0.1286  0.2518  0.3335
   97SAPS  H15R 9676   4.958   3.923   7.905  1.3643  0.0390 -3.2730
   97SAPS  C216 9677   4.784   4.057   7.979  0.3235  0.2041 -0.2996
   97SAPS  H16R 9678   4.675   4.032   7.977  0.2563  0.3529  1.0560
   97SAPS  H16S 9679   4.797   4.166   7.962 -0.3345  0.3553  0.1430
   97SAPS  C217 9680   4.836   4.024   8.126  0.0252 -0.1193  0.0957
   97SAPS  H17R 9681   4.778   4.091   8.193 -0.0964  0.3251 -0.4420
   97SAPS  H17S 9682   4.939   4.065   8.125  0.1677 -0.3930 -2.2157
   97SAPS  C218 9683   4.831   3.875   8.166  0.3883 -0.5046 -0.2876
   97SAPS  H18R 9684   4.837   3.819   8.071  1.0302 -1.3652  0.2531
   97SAPS  H18S 9685   4.727   3.847   8.196 -0.0905  1.2645 -0.1766
   97SAPS  C219 9686   4.951   3.834   8.244 -0.4296 -0.6587  0.2354
   97SAPS  H19R 9687   4.920   3.859   8.348 -0.0493  1.2789 -0.0775
   97SAPS  H19S 9688   5.037   3.903   8.235 -1.7501  0.9819 -0.3576
   97SAPS  C220 9689   4.979   3.691   8.222 -0.0122 -0.0700  0.0918
   97SAPS  H20R 9690   4.998   3.676   8.113 -2.1236 -0.0913 -0.3203
   97SAPS  H20S 9691   4.884   3.638   8.246 -0.6425  1.9108  2.2165
   97SAPS  H20T 9692   5.068   3.642   8.266  1.2753  1.5244 -0.6643
   97SAPS   C33 9693   4.836   4.578   6.974  0.2457  0.7183  0.2277
   97SAPS   H3X 9694   4.735   4.602   6.935  0.2780 -2.4908 -2.1535
   97SAPS   H3Y 9695   4.897   4.670   6.989  1.9171 -0.0965 -1.2531
   97SAPS   C34 9696   4.817   4.499   7.107  0.5131 -0.1695  0.0552
   97SAPS   H4X 9697   4.913   4.467   7.152 -0.2180 -1.2117  0.9531
   97SAPS   H4Y 9698   4.756   4.407   7.089 -0.0807  0.6791 -2.7764
   97SAPS   C35 9699   4.759   4.603   7.201 -0.4579  0.2319 -0.0553
   97SAPS   H5X 9700   4.664   4.626   7.149  0.3067 -0.7656 -1.9754
   97SAPS   H5Y 9701   4.823   4.694   7.198  1.3899 -0.9664  1.0159
   97SAPS   C36 9702   4.743   4.559   7.344 -0.4165 -0.1484 -0.0894
   97SAPS   H6X 9703   4.738   4.449   7.355  0.6986 -0.1646  0.4639
   97SAPS   H6Y 9704   4.645   4.606   7.366 -0.4540  0.2711 -1.1054
   97SAPS   C37 9705   4.873   4.600   7.424 -0.9046 -0.4777 -0.3092
   97SAPS   H7X 9706   4.896   4.705   7.396 -1.1189 -0.2433  0.3811
   97SAPS   H7Y 9707   4.955   4.541   7.378  3.5810  2.4836  2.9704
   97SAPS   C38 9708   4.865   4.599   7.579  0.4471  1.0709  0.4243
   97SAPS   H8X 9709   4.860   4.498   7.626 -1.1650  0.9168 -0.0238
   97SAPS   H8Y 9710   4.774   4.650   7.615  0.1852 -1.0624  3.0665
   97SAPS   C39 9711   4.981   4.677   7.649  0.2262  0.4324 -0.2462
   97SAPS   H9X 9712   4.996   4.771   7.593  0.9689  0.2886 -0.3049
   97SAPS   H9Y 9713   5.077   4.623   7.635  0.2213 -0.4394  2.3868
   97SAPS  C310 9714   4.948   4.695   7.800 -0.5723 -0.3400 -0.0305
   97SAPS  H10X 9715   4.842   4.730   7.802 -0.6860 -0.5500 -1.5079
   97SAPS  H10Y 9716   5.005   4.782   7.839 -1.3182  1.2736 -2.3098
   97SAPS  C311 9717   4.973   4.583   7.904  0.2598  0.5401 -0.2065
   97SAPS  H11X 9718   4.900   4.509   7.865  1.9110 -0.9486 -0.5898
   97SAPS  H11Y 9719   4.944   4.621   8.004  4.1799  0.6647  1.0492
   97SAPS  C312 9720   5.122   4.531   7.905 -0.3978 -0.3932 -0.6561
   97SAPS  H12X 9721   5.163   4.506   7.805  0.5251 -1.9890  0.0903
   97SAPS  H12Y 9722   5.127   4.433   7.958  1.2943  1.1475  2.2734
   97SAPS  C313 9723   5.216   4.641   7.979  0.7277  0.5939  0.2403
   97SAPS  H13X 9724   5.207   4.616   8.087 -5.1094 -2.5359 -0.5804
   97SAPS  H13Y 9725   5.175   4.744   7.969  3.6996  1.8907  0.2658
   97SAPS  C314 9726   5.361   4.650   7.932  0.0743 -0.4312 -0.1941
   97SAPS  H14X 9727   5.402   4.555   7.972  1.0134 -0.5518 -1.3903
   97SAPS  H14Y 9728   5.424   4.726   7.984  2.5158 -1.5730 -1.3320
   97SAPS  C315 9729   5.392   4.659   7.774  0.1189 -0.2859  0.0687
   97SAPS  H15X 9730   5.345   4.566   7.733 -1.1558  0.5900 -0.5388
   97SAPS  H15Y 9731   5.499   4.642   7.751 -0.0327 -0.0070 -0.8709
   97SAPS  C316 9732   5.330   4.788   7.704 -0.4919 -0.1465 -0.0604
   97SAPS  H16X 9733   5.362   4.883   7.750  1.5101 -1.4320  1.3920
   97SAPS  H16Y 9734   5.219   4.790   7.710 -0.4020  0.6336  2.0499
   97SAPS  C317 9735   5.363   4.797   7.547 -0.0407  0.1719  0.0378
   97SAPS  H17X 9736   5.470   4.824   7.540  0.6616 -2.2716  0.5937
   97SAPS  H17Y 9737   5.297   4.880   7.514  1.0818  0.4886 -1.5047
   97SAPS  C318 9738   5.324   4.680   7.458  0.3192 -0.3342  0.1084
   97SAPS  H18X 9739   5.344   4.687   7.349 -1.2151 -2.4534 -0.3709
   97SAPS  H18Y 9740   5.215   4.660   7.466 -0.0900  2.1182  1.8092
   97SAPS  H18Z 9741   5.380   4.589   7.488 -0.8733 -1.6086 -1.3519
   98SAPS     N 9742   2.403   2.804   6.184 -0.0308  0.0439  0.0733
   98SAPS   HN1 9743   2.461   2.721   6.162  1.0732  0.6856  0.4517
   98SAPS   HN2 9744   2.408   2.871   6.104  0.5191  1.5607  1.3238
   98SAPS   HN3 9745   2.440   2.852   6.269 -2.2323  1.5163  0.2753
   98SAPS   C12 9746   2.263   2.765   6.215  1.1144  0.1755  0.6155
   98SAPS  H12A 9747   2.274   2.695   6.297 -0.2584  1.2401  1.7600
   98SAPS   C13 9748   2.172   2.886   6.245  0.2436 -0.3541  0.1349
   98SAPS  O13A 9749   2.221   3.001   6.262  0.4079 -0.3522  0.4213
   98SAPS  O13B 9750   2.047   2.870   6.242 -0.3168 -0.1821  0.0910
   98SAPS   C11 9751   2.190   2.681   6.100  0.3040 -0.8254 -0.4544
   98SAPS  H11A 9752   2.175   2.751   6.015  0.1108  0.8735  0.9336
   98SAPS  H11B 9753   2.093   2.645   6.139  0.5165 -1.2958 -0.3512
   98SAPS     P 9754   2.219   2.422   6.032  0.2050 -0.3189  0.1087
   98SAPS   O13 9755   2.123   2.430   5.920  0.1052  0.3350 -0.0440
   98SAPS   O14 9756   2.334   2.326   6.011  0.1012 -0.2042 -0.0027
   98SAPS   O12 9757   2.275   2.571   6.057 -0.2151  0.1198 -0.4918
   98SAPS   O11 9758   2.129   2.386   6.162 -0.0579  0.1857  0.0859
   98SAPS    C1 9759   2.203   2.375   6.285  0.0837  0.3320  0.3585
   98SAPS    HA 9760   2.313   2.381   6.272  0.0888  0.3999  0.4309
   98SAPS    HB 9761   2.182   2.457   6.357  0.9524 -0.7003  1.8624
   98SAPS    C2 9762   2.174   2.239   6.343 -0.0808  0.8491  0.0175
   98SAPS    HS 9763   2.204   2.160   6.270 -0.1881 -0.8680  1.7207
   98SAPS   O21 9764   2.037   2.228   6.370 -0.1750 -0.3825  0.4619
   98SAPS   C21 9765   1.995   2.110   6.402  0.5382 -0.1449 -0.2364
   98SAPS   O22 9766   2.057   2.007   6.395  0.2997  1.2678 -0.1612
   98SAPS   C22 9767   1.851   2.110   6.449 -0.4085  0.0479  0.0834
   98SAPS   H2R 9768   1.792   2.153   6.366 -1.3186  0.0355  0.7160
   98SAPS   H2S 9769   1.826   2.002   6.454  1.8570 -0.4824  1.4375
   98SAPS    C3 9770   2.257   2.210   6.473  0.1323 -0.0083 -0.2021
   98SAPS    HX 9771   2.361   2.242   6.451  0.3639 -0.2138  0.5950
   98SAPS    HY 9772   2.256   2.100   6.490  0.7635  0.1088  0.6465
   98SAPS   O31 9773   2.192   2.271   6.587 -0.2007  0.1585  0.1546
   98SAPS   C31 9774   2.251   2.395   6.619 -0.2442  0.5185  0.0664
   98SAPS   O32 9775   2.344   2.446   6.563  0.4323  0.1148 -0.1954
   98SAPS   C32 9776   2.178   2.439   6.749 -0.0912 -0.6840  0.3778
   98SAPS   H2X 9777   2.070   2.449   6.724  0.0255  2.0530  0.6838
   98SAPS   H2Y 9778   2.213   2.543   6.767 -0.5578 -0.4560  0.0108
   98SAPS   C23 9779   1.827   2.186   6.585  0.1243  0.2869 -0.3595
   98SAPS   H3R 9780   1.718   2.194   6.606 -0.0177 -0.7448 -0.6773
   98SAPS   H3S 9781   1.867   2.289   6.570 -1.1813  0.7627 -0.7683
   98SAPS   C24 9782   1.907   2.134   6.702 -0.0631  0.1419 -0.3376
   98SAPS   H4R 9783   1.885   2.204   6.785  1.5548  0.7318 -0.3585
   98SAPS   H4S 9784   2.016   2.153   6.691 -0.5055  1.6765 -3.0009
   98SAPS   C25 9785   1.876   1.991   6.748 -0.6552 -0.9231 -0.2356
   98SAPS   H5R 9786   1.890   1.920   6.666  1.4282 -0.5424 -0.2617
   98SAPS   C26 9787   1.851   1.941   6.868  0.2118  0.4925 -0.0571
   98SAPS   H6R 9788   1.825   1.834   6.876 -3.2935  1.3366  1.5198
   98SAPS   C27 9789   1.823   2.024   6.993  0.4729 -1.0762  0.1718
   98SAPS   H7R 9790   1.750   2.105   6.972  0.7337 -0.9748 -0.3477
   98SAPS   H7S 9791   1.920   2.065   7.029  1.2875 -1.9450 -0.9356
   98SAPS   C28 9792   1.772   1.932   7.100 -0.1657  0.2432 -0.8927
   98SAPS   H8R 9793   1.750   1.826   7.083 -1.8462  0.2556  0.7723
   98SAPS   C29 9794   1.778   1.962   7.234  0.1683  0.0399  0.2143
   98SAPS   H9R 9795   1.757   1.890   7.314 -1.2644  2.1613  1.8612
   98SAPS  C210 9796   1.811   2.099   7.277  0.3965  0.1613 -0.8533
   98SAPS  H10R 9797   1.810   2.177   7.198  0.5772  1.5933  0.5153
   98SAPS  H10S 9798   1.914   2.112   7.316 -0.1573  0.5352  0.5190
   98SAPS  C211 9799   1.710   2.146   7.377  1.0447  0.7741  0.4339
   98SAPS  H11R 9800   1.612   2.178   7.337  1.1884  1.6011  0.7303
   98SAPS  C212 9801   1.736   2.156   7.503  0.5500  0.1178 -0.7177
   98SAPS  H12R 9802   1.650   2.183   7.567  0.3340  1.2813 -1.4720
   98SAPS  C213 9803   1.860   2.132   7.584 -0.3265  0.6001 -0.6119
   98SAPS  H13R 9804   1.949   2.133   7.518 -0.5796 -3.5199 -1.3246
   98SAPS  H13S 9805   1.853   2.028   7.624  1.8280  0.1445 -1.2950
   98SAPS  C214 9806   1.887   2.238   7.692 -0.1384  0.2439  0.8736
   98SAPS  H14R 9807   1.910   2.337   7.650 -1.1937 -0.7356 -2.2652
   98SAPS  C215 9808   1.883   2.214   7.824 -0.4411  0.0413 -0.2653
   98SAPS  H15R 9809   1.903   2.300   7.890  0.0974  1.0003 -1.6401
   98SAPS  C216 9810   1.842   2.092   7.897 -0.1590  0.0663  0.0817
   98SAPS  H16R 9811   1.778   2.030   7.831  0.0651 -0.6202  0.4953
   98SAPS  H16S 9812   1.789   2.130   7.987  0.6907  0.4492  0.4329
   98SAPS  C217 9813   1.963   2.008   7.936 -1.3433 -0.5410 -0.5169
   98SAPS  H17R 9814   2.016   1.953   7.856  0.6467 -1.0547  1.0707
   98SAPS  H17S 9815   1.925   1.928   8.002  0.5602 -1.5822 -0.6099
   98SAPS  C218 9816   2.067   2.094   8.012 -0.5698  0.3057 -0.6260
   98SAPS  H18R 9817   2.007   2.152   8.086  0.0646  1.9130 -1.3191
   98SAPS  H18S 9818   2.108   2.175   7.948 -2.4217 -0.6206 -3.1635
   98SAPS  C219 9819   2.170   2.021   8.097 -0.0746  0.5892 -0.7717
   98SAPS  H19R 9820   2.227   1.957   8.027 -0.9568 -0.8792 -0.1900
   98SAPS  H19S 9821   2.124   1.948   8.166 -1.3310  1.1545 -0.9770
   98SAPS  C220 9822   2.278   2.110   8.164  0.1584 -0.4198  0.3266
   98SAPS  H20R 9823   2.324   2.178   8.090 -1.9176 -0.4150 -1.0375
   98SAPS  H20S 9824   2.360   2.053   8.213  0.8368  0.4503  0.2264
   98SAPS  H20T 9825   2.229   2.169   8.244 -0.6325 -1.7727  0.8793
   98SAPS   C33 9826   2.203   2.350   6.871  0.4927 -0.3309  1.0732
   98SAPS   H3X 9827   2.308   2.316   6.878  0.8691 -0.0778 -2.0545
   98SAPS   H3Y 9828   2.141   2.259   6.855 -1.3521  0.9732  0.4691
   98SAPS   C34 9829   2.177   2.427   7.005 -0.3595 -0.0442  0.2731
   98SAPS   H4X 9830   2.212   2.532   7.016 -0.0414 -0.2998  1.9811
   98SAPS   H4Y 9831   2.245   2.383   7.081 -1.9316 -0.0458  1.7415
   98SAPS   C35 9832   2.035   2.408   7.051 -0.0283 -0.5983 -0.6807
   98SAPS   H5X 9833   2.009   2.300   7.052  1.9104 -1.1092  0.8018
   98SAPS   H5Y 9834   1.973   2.456   6.973 -0.7629 -1.4829 -0.6578
   98SAPS   C36 9835   1.995   2.474   7.186 -0.9200 -0.7316 -0.6628
   98SAPS   H6X 9836   1.885   2.459   7.195 -1.3613  0.8880 -2.7311
   98SAPS   H6Y 9837   2.013   2.583   7.176  1.1437 -1.0306 -0.7073
   98SAPS   C37 9838   2.086   2.432   7.310 -0.0275  0.0658  1.0061
   98SAPS   H7X 9839   2.192   2.452   7.281 -1.3223  2.6836 -2.5672
   98SAPS   H7Y 9840   2.084   2.324   7.336  3.0006 -0.5959 -0.9365
   98SAPS   C38 9841   2.055   2.516   7.428  0.1257 -0.0231 -0.2082
   98SAPS   H8X 9842   1.950   2.506   7.463  0.6497 -3.1921  0.7647
   98SAPS   H8Y 9843   2.072   2.623   7.405 -1.0162  0.4117  0.8303
   98SAPS   C39 9844   2.147   2.470   7.551  0.1317  0.0559  0.3638
   98SAPS   H9X 9845   2.256   2.472   7.530  0.3143  0.9013  1.2719
   98SAPS   H9Y 9846   2.118   2.369   7.588  0.9195  0.1469  1.2743
   98SAPS  C310 9847   2.133   2.559   7.680  0.6288  0.0154  0.2476
   98SAPS  H10X 9848   2.030   2.554   7.722  0.7970 -0.8011  0.5889
   98SAPS  H10Y 9849   2.162   2.660   7.645 -0.4815 -0.2219 -1.5062
   98SAPS  C311 9850   2.203   2.504   7.804  0.1485 -1.0773  0.9107
   98SAPS  H11X 9851   2.311   2.492   7.780 -0.3102 -1.8905 -0.9457
   98SAPS  H11Y 9852   2.165   2.406   7.838  0.9995 -1.1288  1.7438
   98SAPS  C312 9853   2.186   2.609   7.925 -0.0004 -0.3724  0.0282
   98SAPS  H12X 9854   2.078   2.631   7.940  0.5539  2.8554 -0.0310
   98SAPS  H12Y 9855   2.226   2.705   7.884 -1.9388  0.9886  1.1527
   98SAPS  C313 9856   2.254   2.563   8.052  0.2384 -0.5215  0.2744
   98SAPS  H13X 9857   2.211   2.474   8.104  1.2392 -0.2187  1.6742
   98SAPS  H13Y 9858   2.240   2.650   8.119  1.0982  0.4262 -0.7376
   98SAPS  C314 9859   2.401   2.531   8.026 -0.1474  0.0427  0.0451
   98SAPS  H14X 9860   2.443   2.612   7.962 -1.1845  1.0533  0.6215
   98SAPS  H14Y 9861   2.417   2.440   7.965  0.1211  0.0807  0.0576
   98SAPS  C315 9862   2.479   2.517   8.155 -0.1423  0.1936 -0.0480
   98SAPS  H15X 9863   2.572   2.460   8.133 -1.0015 -1.4031  0.2872
   98SAPS  H15Y 9864   2.420   2.459   8.230 -3.7147  1.0362 -1.9910
   98SAPS  C316 9865   2.518   2.649   8.216  0.7254  0.2031 -0.4321
   98SAPS  H16X 9866   2.582   2.638   8.306  1.9330  1.4731 -1.0988
   98SAPS  H16Y 9867   2.425   2.703   8.244  1.9658  1.9709  0.4679
   98SAPS  C317 9868   2.607   2.741   8.130 -0.3354  0.6361  0.6333
   98SAPS  H17X 9869   2.560   2.759   8.032  0.9018  0.0735 -0.0934
   98SAPS  H17Y 9870   2.701   2.682   8.120 -0.5285  0.5842 -1.0197
   98SAPS  C318 9871   2.619   2.870   8.203 -0.2562 -0.0937 -0.0339
   98SAPS  H18X 9872   2.517   2.915   8.206 -0.2335 -0.0722  0.5914
   98SAPS  H18Y 9873   2.691   2.946   8.166 -0.9864  0.8675  0.4699
   98SAPS  H18Z 9874   2.652   2.848   8.307  0.6574 -1.1122 -0.5194
   99SAPS     N 9875   5.035   0.410   5.943  0.6418 -0.8150  0.1239
   99SAPS   HN1 9876   5.038   0.334   5.873  1.5485 -0.0154 -0.7490
   99SAPS   HN2 9877   5.010   0.376   6.038 -0.0543  1.9384  1.0385
   99SAPS   HN3 9878   4.956   0.474   5.922  0.6041 -0.4091  1.4289
   99SAPS   C12 9879   5.159   0.494   5.924  0.1661 -0.5627 -0.6708
   99SAPS  H12A 9880   5.230   0.431   5.873  0.9552  0.9595 -1.5144
   99SAPS   C13 9881   5.132   0.617   5.832  0.3137  0.2521 -0.0948
   99SAPS  O13A 9882   5.012   0.650   5.811 -0.5348  0.7096  0.2526
   99SAPS  O13B 9883   5.231   0.679   5.789 -0.2175  0.2983 -0.4267
   99SAPS   C11 9884   5.217   0.536   6.065 -0.2016  0.4127  0.2127
   99SAPS  H11A 9885   5.123   0.574   6.110 -1.1206 -0.1199 -1.1911
   99SAPS  H11B 9886   5.288   0.621   6.056  0.1904 -0.1197 -2.6818
   99SAPS     P 9887   5.391   0.435   6.228  0.2356 -0.0261 -0.1481
   99SAPS   O13 9888   5.415   0.303   6.293 -0.0943 -0.1960  0.2913
   99SAPS   O14 9889   5.499   0.500   6.159  0.0323 -0.4624 -0.3739
   99SAPS   O12 9890   5.270   0.413   6.124  0.1302 -0.2839 -0.5837
   99SAPS   O11 9891   5.342   0.528   6.340  0.5719  0.4755 -0.3616
   99SAPS    C1 9892   5.411   0.589   6.448 -0.1016 -0.2883 -0.0641
   99SAPS    HA 9893   5.494   0.649   6.407 -0.4311 -0.7956 -1.5294
   99SAPS    HB 9894   5.334   0.656   6.493 -0.1303  0.9237 -1.8460
   99SAPS    C2 9895   5.475   0.493   6.556  0.5288 -0.5508  0.8966
   99SAPS    HS 9896   5.534   0.422   6.494 -1.2549 -2.4097  1.2059
   99SAPS   O21 9897   5.360   0.433   6.624 -0.4088  0.0190  0.3179
   99SAPS   C21 9898   5.381   0.313   6.675 -0.4284 -0.7199  0.1008
   99SAPS   O22 9899   5.489   0.257   6.676 -0.5013  0.3660  0.5610
   99SAPS   C22 9900   5.254   0.276   6.743  0.4208 -0.5890  0.1825
   99SAPS   H2R 9901   5.173   0.284   6.668  1.2825 -1.1672 -0.8389
   99SAPS   H2S 9902   5.270   0.174   6.782  3.5784  0.4702  2.1143
   99SAPS    C3 9903   5.564   0.583   6.653  0.4961 -0.4199  0.5996
   99SAPS    HX 9904   5.496   0.650   6.709 -0.4045 -0.1515 -0.7676
   99SAPS    HY 9905   5.637   0.638   6.589  0.9280 -0.4651  1.0462
   99SAPS   O31 9906   5.636   0.502   6.750  0.4705  0.6685 -0.0082
   99SAPS   C31 9907   5.736   0.431   6.699  0.4667  1.5880  0.2772
   99SAPS   O32 9908   5.764   0.435   6.580 -0.3488  0.2305  0.6031
   99SAPS   C32 9909   5.816   0.351   6.799  0.5575  0.5696  0.2687
   99SAPS   H2X 9910   5.904   0.413   6.828 -0.1566  1.7282  0.0445
   99SAPS   H2Y 9911   5.863   0.265   6.747 -0.6171  0.4305 -0.5977
   99SAPS   C23 9912   5.218   0.361   6.873  0.2179  0.0465 -0.1786
   99SAPS   H3R 9913   5.141   0.302   6.927 -0.0014  1.0637  0.6377
   99SAPS   H3S 9914   5.176   0.459   6.841 -0.3014  0.0936  0.6241
   99SAPS   C24 9915   5.337   0.372   6.966  0.4270 -0.1042  0.4320
   99SAPS   H4R 9916   5.303   0.450   7.037 -1.8701 -0.3701 -0.2903
   99SAPS   H4S 9917   5.421   0.425   6.917  2.1542 -1.1771  2.1035
   99SAPS   C25 9918   5.395   0.254   7.034  0.1880  0.7331  0.1613
   99SAPS   H5R 9919   5.439   0.179   6.966  0.2116 -1.5951  2.5982
   99SAPS   C26 9920   5.369   0.216   7.162 -0.3444 -0.1872  0.5988
   99SAPS   H6R 9921   5.413   0.124   7.204  0.4097 -0.7223 -1.2759
   99SAPS   C27 9922   5.281   0.300   7.252  0.5107 -0.0988  0.1003
   99SAPS   H7R 9923   5.183   0.314   7.202  0.8359  0.8310 -0.2937
   99SAPS   H7S 9924   5.326   0.402   7.251 -1.1426  0.6673  0.9262
   99SAPS   C28 9925   5.272   0.244   7.390  0.5592  0.2317 -0.2413
   99SAPS   H8R 9926   5.373   0.227   7.429  1.0408 -2.6985 -2.4301
   99SAPS   C29 9927   5.173   0.223   7.470 -0.2501  0.0453  0.6925
   99SAPS   H9R 9928   5.188   0.211   7.578 -1.7765  1.0691  1.0499
   99SAPS  C210 9929   5.029   0.243   7.435 -0.2370 -0.4954 -0.3519
   99SAPS  H10R 9930   5.012   0.267   7.328  1.2614 -1.3820 -0.8217
   99SAPS  H10S 9931   4.986   0.329   7.489 -1.6226 -0.8189 -0.9042
   99SAPS  C211 9932   4.952   0.113   7.469  0.8943  0.0014 -0.1171
   99SAPS  H11R 9933   4.927   0.051   7.382 -0.1934  1.5565 -0.9564
   99SAPS  C212 9934   4.897   0.085   7.592  0.3929 -0.3336  0.3153
   99SAPS  H12R 9935   4.830  -0.003   7.593 -1.0923  0.7656  0.9015
   99SAPS  C213 9936   4.902   0.180   7.708 -0.0877 -0.6526 -0.2256
   99SAPS  H13R 9937   4.800   0.185   7.751  0.2302 -0.8066  0.5618
   99SAPS  H13S 9938   4.931   0.281   7.672 -4.5031  0.3803 -1.4696
   99SAPS  C214 9939   4.996   0.125   7.811  0.8137 -0.1673 -0.8606
   99SAPS  H14R 9940   5.083   0.073   7.768  0.2087 -2.3286  0.3832
   99SAPS  C215 9941   4.966   0.129   7.945 -0.1193 -0.3858 -0.5474
   99SAPS  H15R 9942   5.042   0.085   8.011  1.1937  2.8252  0.2769
   99SAPS  C216 9943   4.843   0.196   8.005 -0.4345 -0.2250  0.0257
   99SAPS  H16R 9944   4.798   0.259   7.925  0.7124 -0.3015 -0.7039
   99SAPS  H16S 9945   4.874   0.271   8.081 -4.1964 -0.3640  1.9356
   99SAPS  C217 9946   4.737   0.103   8.067 -0.0761  0.7008 -0.4439
   99SAPS  H17R 9947   4.767   0.019   8.133  0.0167 -1.6601 -3.3276
   99SAPS  H17S 9948   4.682   0.036   7.998 -0.7864 -1.2088  1.8430
   99SAPS  C218 9949   4.624   0.184   8.140  0.2970  0.0921  0.1821
   99SAPS  H18R 9950   4.568   0.235   8.059  3.7359 -0.0890 -2.5432
   99SAPS  H18S 9951   4.668   0.240   8.225 -0.6229  2.9458 -1.1173
   99SAPS  C219 9952   4.513   0.098   8.207 -0.3512 -0.0846  0.9297
   99SAPS  H19R 9953   4.456   0.170   8.269  0.0510 -0.5077  1.7999
   99SAPS  H19S 9954   4.570   0.026   8.270  2.8740  0.2606 -1.3402
   99SAPS  C220 9955   4.409   0.028   8.113 -0.4746  0.0459  0.1104
   99SAPS  H20R 9956   4.346  -0.043   8.171  1.9394  0.5423  3.6841
   99SAPS  H20S 9957   4.466  -0.024   8.032 -0.5994  0.2412 -0.1051
   99SAPS  H20T 9958   4.343   0.104   8.066 -0.2608 -0.5354 -1.2049
   99SAPS   C33 9959   5.728   0.297   6.913  0.1173  0.0137 -0.6097
   99SAPS   H3X 9960   5.625   0.269   6.883 -0.8003  0.2256  2.0871
   99SAPS   H3Y 9961   5.707   0.390   6.969  1.5238  0.2138 -0.3752
   99SAPS   C34 9962   5.798   0.202   7.017 -0.0056  0.2401  0.6753
   99SAPS   H4X 9963   5.896   0.248   7.041 -0.0615  2.1679 -2.3517
   99SAPS   H4Y 9964   5.826   0.107   6.968 -1.2636  2.1658 -4.3811
   99SAPS   C35 9965   5.710   0.184   7.137 -0.0394  0.0125 -0.2432
   99SAPS   H5X 9966   5.640   0.098   7.126  0.3906 -0.3454 -0.1751
   99SAPS   H5Y 9967   5.648   0.276   7.140 -2.0894 -1.2940 -0.4682
   99SAPS   C36 9968   5.783   0.165   7.273 -0.3979 -0.0775 -0.1782
   99SAPS   H6X 9969   5.833   0.260   7.301 -0.4205  0.0544 -0.5824
   99SAPS   H6Y 9970   5.852   0.080   7.253 -0.2606 -0.3572  1.3353
   99SAPS   C37 9971   5.687   0.129   7.383 -0.1594 -0.1430  0.1619
   99SAPS   H7X 9972   5.635   0.034   7.359 -0.3232  0.1282 -0.5736
   99SAPS   H7Y 9973   5.603   0.201   7.391 -0.2962  0.0640 -2.5131
   99SAPS   C38 9974   5.759   0.114   7.520  0.4483  0.4115  0.4852
   99SAPS   H8X 9975   5.810   0.209   7.549  0.5889  0.4761  0.0383
   99SAPS   H8Y 9976   5.833   0.031   7.523 -0.2189 -0.3638 -2.0694
   99SAPS   C39 9977   5.652   0.083   7.634 -0.5984 -0.2004 -0.0649
   99SAPS   H9X 9978   5.605  -0.014   7.606  0.3006 -0.6738  0.0421
   99SAPS   H9Y 9979   5.580   0.168   7.634 -0.9535 -0.4952 -0.2794
   99SAPS  C310 9980   5.722   0.066   7.767 -0.5842 -0.5199  0.2418
   99SAPS  H10X 9981   5.794  -0.018   7.773 -0.0095  0.0530  2.2897
   99SAPS  H10Y 9982   5.645   0.047   7.846 -1.5201  3.3855  0.4774
   99SAPS  C311 9983   5.791   0.200   7.819  0.5102 -0.4394  0.0234
   99SAPS  H11X 9984   5.725   0.288   7.830  3.1934  2.3115 -3.6066
   99SAPS  H11Y 9985   5.885   0.228   7.767  1.7798 -1.4471  1.6718
   99SAPS  C312 9986   5.844   0.170   7.959  0.5575 -1.0076  0.0063
   99SAPS  H12X 9987   5.907   0.079   7.947 -0.1127 -1.5967  0.8381
   99SAPS  H12Y 9988   5.757   0.154   8.027 -0.7266 -0.1698 -1.3752
   99SAPS  C313 9989   5.924   0.293   8.014 -0.0306 -0.5467 -0.3139
   99SAPS  H13X 9990   5.886   0.395   7.992  0.5969 -0.3979 -0.7242
   99SAPS  H13Y 9991   6.023   0.282   7.965 -0.2374 -3.2671 -0.3052
   99SAPS  C314 9992   5.955   0.293   8.163  0.4524  0.6451 -0.5023
   99SAPS  H14X 9993   6.021   0.382   8.174  1.3429  0.0057 -0.5555
   99SAPS  H14Y 9994   6.018   0.203   8.180  1.1052  1.0581 -0.7148
   99SAPS  C315 9995   5.829   0.291   8.248 -0.4773 -0.3450 -0.3400
   99SAPS  H15X 9996   5.869   0.298   8.351 -0.7607  0.7850 -0.2924
   99SAPS  H15Y 9997   5.775   0.194   8.247 -0.6732 -0.3301  2.2159
   99SAPS  C316 9998   5.727   0.404   8.228  0.4442 -0.0826  0.5507
   99SAPS  H16X 9999   5.646   0.378   8.300 -0.1208 -0.3792 -0.1805
   99SAPS  H16Y10000   5.681   0.400   8.127  0.1181  0.9332  0.6449
   99SAPS  C31710001   5.794   0.536   8.253 -0.5042  0.4521 -0.5162
   99SAPS  H17X10002   5.880   0.546   8.184 -0.0526  0.5067  0.0453
   99SAPS  H17Y10003   5.822   0.540   8.361 -0.4020 -0.5909 -0.4928
   99SAPS  C31810004   5.697   0.655   8.239 -0.8586  0.0393 -0.1357
   99SAPS  H18X10005   5.619   0.649   8.318 -3.3080  0.7702 -2.3319
   99SAPS  H18Y10006   5.650   0.673   8.140 -1.5564  3.0407  0.6503
   99SAPS  H18Z10007   5.758   0.745   8.260  0.3263 -0.8328  0.2558
  100SAPS     N10008   1.720   1.666   6.097 -0.4891 -0.2591 -0.5664
  100SAPS   HN110009   1.807   1.618   6.128  0.6642 -0.0863 -3.2105
  100SAPS   HN210010   1.663   1.695   6.179 -1.7788 -0.5363 -1.3405
  100SAPS   HN310011   1.666   1.588   6.056  1.8600 -2.8373  0.8834
  100SAPS   C1210012   1.750   1.782   6.015 -0.2604 -0.2812 -0.5038
  100SAPS  H12A10013   1.822   1.842   6.068 -0.1772 -1.8895  1.3282
  100SAPS   C1310014   1.802   1.768   5.867  0.1179 -0.3056  0.0035
  100SAPS  O13A10015   1.827   1.661   5.822  0.2772  0.4227  0.0027
  100SAPS  O13B10016   1.832   1.876   5.809 -0.0992  0.4330 -0.6873
  100SAPS   C1110017   1.609   1.853   6.009 -0.1614  0.3961  0.1696
  100SAPS  H11A10018   1.539   1.779   5.965  1.0324 -1.0082  0.5629
  100SAPS  H11B10019   1.618   1.936   5.935 -1.3583  1.0694  0.7412
  100SAPS     P10020   1.421   1.923   6.175 -0.1126 -0.1171 -0.3832
  100SAPS   O1310021   1.359   1.971   6.052  0.6344  0.1621  0.5513
  100SAPS   O1410022   1.359   1.804   6.231  0.0417  0.7229 -0.5747
  100SAPS   O1210023   1.572   1.900   6.139  0.0971  0.3976  0.6372
  100SAPS   O1110024   1.412   2.045   6.281  0.0747 -0.0143 -0.1301
  100SAPS    C110025   1.496   2.043   6.396  0.6475  0.4863 -0.1291
  100SAPS    HA10026   1.602   2.023   6.370  0.4353 -0.2930 -0.4032
  100SAPS    HB10027   1.500   2.143   6.444  0.6409  0.4443 -0.0409
  100SAPS    C210028   1.445   1.953   6.512 -0.2975  0.1354  0.6530
  100SAPS    HS10029   1.450   1.844   6.491  2.5291  0.0254  1.4274
  100SAPS   O2110030   1.314   1.993   6.543 -0.1540 -0.0444 -0.2685
  100SAPS   C2110031   1.229   1.908   6.603 -0.3710 -0.1444  0.3786
  100SAPS   O2210032   1.250   1.790   6.631  0.3708  0.8560 -0.6207
  100SAPS   C2210033   1.099   1.978   6.643 -0.4279  0.2407 -0.0868
  100SAPS   H2R10034   1.054   1.980   6.542 -0.0920 -1.0756 -0.2795
  100SAPS   H2S10035   1.039   1.907   6.704  1.2775 -1.6167 -0.4753
  100SAPS    C310036   1.528   1.990   6.638  0.2560 -0.4861  1.0332
  100SAPS    HX10037   1.497   2.091   6.672 -1.2222 -0.3794 -0.4609
  100SAPS    HY10038   1.638   1.993   6.626  0.2731 -0.5495  1.1765
  100SAPS   O3110039   1.498   1.897   6.748  0.4626 -0.2536 -0.2148
  100SAPS   C3110040   1.543   1.773   6.748  0.1087  0.2541  0.0331
  100SAPS   O3210041   1.598   1.717   6.658 -0.1574  0.6767  0.4271
  100SAPS   C3210042   1.473   1.706   6.872  0.0310 -0.7597  0.1371
  100SAPS   H2X10043   1.363   1.702   6.859 -0.2129 -0.6350  1.9757
  100SAPS   H2Y10044   1.496   1.773   6.958 -1.0401  0.8180 -0.7435
  100SAPS   C2310045   1.121   2.109   6.722 -0.3515  0.5982 -0.3778
  100SAPS   H3R10046   1.026   2.144   6.768 -1.4589 -1.4005 -0.9777
  100SAPS   H3S10047   1.154   2.194   6.660  0.0034  3.3780  3.3013
  100SAPS   C2410048   1.210   2.099   6.851 -0.1268  0.3788  0.5312
  100SAPS   H4R10049   1.193   2.193   6.908 -2.0833  0.4810 -0.1477
  100SAPS   H4S10050   1.316   2.091   6.819  0.3358  1.3404  1.7126
  100SAPS   C2510051   1.178   1.982   6.941 -0.4990  0.3428 -0.6723
  100SAPS   H5R10052   1.183   1.881   6.897 -0.2704 -0.2869  0.7602
  100SAPS   C2610053   1.144   1.984   7.072  0.0231  0.4345 -0.1047
  100SAPS   H6R10054   1.117   1.883   7.107 -0.0376  0.5902  0.3107
  100SAPS   C2710055   1.134   2.096   7.166  0.2428  0.0651  1.1487
  100SAPS   H7R10056   1.029   2.113   7.198  0.1991 -1.1511  1.6956
  100SAPS   H7S10057   1.174   2.187   7.115 -2.1196 -0.2135 -1.4251
  100SAPS   C2810058   1.233   2.070   7.278 -0.1733  0.7267 -0.3931
  100SAPS   H8R10059   1.326   2.014   7.259  0.1394  1.5900 -1.5322
  100SAPS   C2910060   1.202   2.114   7.401 -0.2657  0.2317  0.0103
  100SAPS   H9R10061   1.265   2.081   7.486  0.9260  0.4012 -0.7768
  100SAPS  C21010062   1.075   2.186   7.446  0.0218 -0.2359  0.9023
  100SAPS  H10R10063   0.998   2.186   7.367  1.4408  1.5428 -0.5893
  100SAPS  H10S10064   1.104   2.291   7.469  1.1008 -0.7186  1.8602
  100SAPS  C21110065   1.023   2.139   7.577  0.4822  0.4768  0.4630
  100SAPS  H11R10066   0.984   2.037   7.563  1.5825 -0.0399  1.0770
  100SAPS  C21210067   1.033   2.193   7.701  0.1611  0.5483 -0.7702
  100SAPS  H12R10068   0.992   2.130   7.781  3.6637 -0.5244  0.3782
  100SAPS  C21310069   1.100   2.325   7.743 -0.0530  0.1276 -0.0010
  100SAPS  H13R10070   1.072   2.399   7.665 -0.3291 -0.6855 -0.6839
  100SAPS  H13S10071   1.209   2.308   7.756 -0.3853 -0.5510  2.2619
  100SAPS  C21410072   1.038   2.379   7.864  0.1238 -0.0023 -0.4513
  100SAPS  H14R10073   0.941   2.429   7.849 -0.4271 -0.5795  0.9834
  100SAPS  C21510074   1.088   2.353   7.983 -0.7548 -0.6090 -0.3718
  100SAPS  H15R10075   1.027   2.399   8.063 -1.7651 -0.9153 -0.9569
  100SAPS  C21610076   1.212   2.273   8.012  0.0105  0.3106  0.4108
  100SAPS  H16R10077   1.229   2.185   7.946 -2.6898  0.7356 -1.0036
  100SAPS  H16S10078   1.192   2.231   8.112 -1.3461  3.7138  1.7187
  100SAPS  C21710079   1.333   2.364   8.031  1.6196  0.3473  0.5447
  100SAPS  H17R10080   1.299   2.451   8.091 -1.6665 -1.1083  1.0230
  100SAPS  H17S10081   1.342   2.415   7.933 -1.4386 -1.4103 -0.7760
  100SAPS  C21810082   1.462   2.302   8.070  0.4644  0.4549 -0.0666
  100SAPS  H18R10083   1.497   2.226   7.998  1.4393 -0.9631  1.8090
  100SAPS  H18S10084   1.456   2.250   8.168 -3.3597  0.4714 -0.1488
  100SAPS  C21910085   1.573   2.404   8.091  0.1033  0.2910 -0.3854
  100SAPS  H19R10086   1.660   2.366   8.149 -0.8391  1.3319  1.8569
  100SAPS  H19S10087   1.529   2.486   8.152  2.9066  0.5596  1.4728
  100SAPS  C22010088   1.617   2.466   7.961  0.4930  0.2235  0.4612
  100SAPS  H20R10089   1.626   2.392   7.879  0.7919  2.2789 -1.4492
  100SAPS  H20S10090   1.698   2.541   7.969  1.1597 -0.3519 -0.6302
  100SAPS  H20T10091   1.539   2.535   7.924  1.1322 -0.2354 -1.8922
  100SAPS   C3310092   1.552   1.571   6.892  0.2175 -0.0498  0.3259
  100SAPS   H3X10093   1.657   1.598   6.913  0.5042 -1.3314  0.6085
  100SAPS   H3Y10094   1.550   1.516   6.795 -0.5305  1.7778 -0.7528
  100SAPS   C3410095   1.499   1.493   7.007 -0.5158  0.1937  0.6313
  100SAPS   H4X10096   1.398   1.460   6.975  0.4606 -0.6372 -1.7787
  100SAPS   H4Y10097   1.498   1.559   7.096  2.4944  0.4042  0.5937
  100SAPS   C3510098   1.583   1.365   7.036 -0.3245  0.4731  0.0081
  100SAPS   H5X10099   1.688   1.402   7.036  0.6764 -2.1575 -0.2612
  100SAPS   H5Y10100   1.587   1.292   6.952  2.7682 -0.1849  0.5945
  100SAPS   C3610101   1.551   1.301   7.169 -0.2620 -0.1113  0.5635
  100SAPS   H6X10102   1.588   1.197   7.164  1.6893  0.5643  0.2812
  100SAPS   H6Y10103   1.442   1.282   7.177 -0.1604 -0.8900  0.2056
  100SAPS   C3710104   1.607   1.381   7.287  0.0639  0.5368 -0.1584
  100SAPS   H7X10105   1.571   1.486   7.291 -0.2053  0.4309  0.2168
  100SAPS   H7Y10106   1.715   1.383   7.262 -0.4721  2.7689 -2.8501
  100SAPS   C3810107   1.574   1.314   7.419 -0.0033 -0.1785 -0.1508
  100SAPS   H8X10108   1.598   1.206   7.413 -0.6632 -0.4584  1.7097
  100SAPS   H8Y10109   1.464   1.319   7.432 -0.0386 -0.9234 -0.1632
  100SAPS   C3910110   1.650   1.369   7.545  0.2451 -0.3155 -0.1144
  100SAPS   H9X10111   1.656   1.479   7.532 -1.4881 -0.2431 -0.5299
  100SAPS   H9Y10112   1.756   1.337   7.536  0.8759  1.8495 -1.1423
  100SAPS  C31010113   1.585   1.313   7.672 -0.1332 -1.1292 -0.4648
  100SAPS  H10X10114   1.612   1.205   7.680 -0.5650 -1.1977  0.1716
  100SAPS  H10Y10115   1.475   1.326   7.664  0.0251 -0.3927 -1.6260
  100SAPS  C31110116   1.633   1.374   7.807  0.5191 -0.2665  0.9015
  100SAPS  H11X10117   1.635   1.483   7.789 -1.4594 -0.2626  0.4467
  100SAPS  H11Y10118   1.741   1.347   7.812 -0.1499 -3.0996  2.7496
  100SAPS  C31210119   1.548   1.342   7.927 -0.3316 -0.2444  0.0925
  100SAPS  H12X10120   1.522   1.234   7.937  1.7505 -0.7768  0.2256
  100SAPS  H12Y10121   1.448   1.390   7.918 -0.9688 -1.8104 -1.7554
  100SAPS  C31310122   1.599   1.386   8.069 -0.2281 -0.4562  0.6589
  100SAPS  H13X10123   1.518   1.387   8.144  2.4697  2.6322  3.8647
  100SAPS  H13Y10124   1.654   1.483   8.069  3.1055 -2.1505 -0.5367
  100SAPS  C31410125   1.713   1.290   8.130  0.0110 -0.3023 -0.7260
  100SAPS  H14X10126   1.801   1.319   8.070  0.0195  2.1148  0.3533
  100SAPS  H14Y10127   1.680   1.192   8.088 -0.5465 -0.3533 -0.1945
  100SAPS  C31510128   1.728   1.292   8.275  0.2953  0.6410 -0.2604
  100SAPS  H15X10129   1.637   1.255   8.326  0.0979  1.8452  0.2999
  100SAPS  H15Y10130   1.744   1.399   8.302  0.2584  1.5707 -3.5227
  100SAPS  C31610131   1.852   1.207   8.336 -0.8258  0.4061  0.1244
  100SAPS  H16X10132   1.849   1.107   8.289  2.1877  0.6424 -0.8265
  100SAPS  H16Y10133   1.837   1.198   8.446 -0.4499  0.3034  0.1709
  100SAPS  C31710134   1.976   1.273   8.299 -0.3188  0.2413 -0.0079
  100SAPS  H17X10135   1.988   1.372   8.348  2.7529  0.2297 -0.5069
  100SAPS  H17Y10136   1.989   1.298   8.191  0.7824 -0.7721 -0.1318
  100SAPS  C31810137   2.093   1.181   8.340  0.3046 -0.1506 -0.3357
  100SAPS  H18X10138   2.184   1.242   8.323  0.8550 -0.7092  0.5533
  100SAPS  H18Y10139   2.100   1.084   8.286  0.9820 -0.1016 -0.3374
  100SAPS  H18Z10140   2.094   1.167   8.451  1.4032  0.5583 -0.2482
  101OSM      N10141   0.909   6.214  10.953  0.2111 -0.0374  0.9705
  101OSM    C1510142   0.786   6.146  11.007 -0.2404  0.0759 -0.2185
  101OSM   H15A10143   0.800   6.045  11.042  0.5328 -0.1223 -1.0588
  101OSM   H15B10144   0.699   6.146  10.942 -1.0849 -3.8828  0.6565
  101OSM   H15C10145   0.761   6.205  11.093 -0.3916 -0.1443 -0.1125
  101OSM    C1410146   0.883   6.358  10.940 -0.4231 -0.6668 -0.6570
  101OSM   H14A10147   0.828   6.389  10.852  1.4861 -1.1445 -2.0765
  101OSM   H14B10148   0.972   6.420  10.947  1.4082 -3.2959  1.2529
  101OSM   H14C10149   0.837   6.388  11.033 -0.2277  0.5578 -0.9292
  101OSM    C1310150   1.019   6.200  11.048 -0.1814 -0.1120 -0.3831
  101OSM   H13A10151   1.109   6.254  11.021 -0.8443  0.1428 -2.2489
  101OSM   H13B10152   1.027   6.095  11.069 -0.5794 -0.1167 -0.2461
  101OSM   H13C10153   0.987   6.247  11.140 -4.3198  1.7125 -2.4377
  101OSM    C1210154   0.933   6.161  10.812 -0.2997 -0.0155  0.6890
  101OSM   H12A10155   1.019   6.213  10.773 -2.1077  1.1875 -1.9839
  101OSM   H12B10156   0.850   6.189  10.749  0.0452 -2.0503 -0.7431
  101OSM    C1110157   0.959   6.013  10.797  0.1868  0.2968 -0.1231
  101OSM   H11A10158   0.945   5.982  10.691  0.9856  0.2243 -0.2143
  101OSM   H11B10159   0.873   5.958  10.840  1.5335 -0.2333  2.0616
  101OSM      P10160   1.211   6.005  10.792  0.0271 -0.2174 -0.2173
  101OSM    O1310161   1.210   6.151  10.765  0.2995  0.7734  0.1953
  101OSM    O1410162   1.318   5.955  10.881 -0.7652  0.2657 -0.2167
  101OSM    O1110163   1.205   5.925  10.654 -0.8091 -0.1543 -0.9949
  101OSM    O1210164   1.078   5.972  10.864  0.7633  0.0043  0.3441
  101OSM    C1S10165   1.151   5.796  10.637 -0.5150 -0.2706  0.3123
  101OSM    H1S10166   1.051   5.788  10.685 -0.9443 -1.8875 -0.7701
  101OSM    H1T10167   1.224   5.728  10.686  1.7837  2.2803  0.6918
  101OSM     NF10168   1.064   5.657  10.449  0.5465 -0.6843  0.0163
  101OSM    HNF10169   1.110   5.582  10.402  0.0552 -2.4171  2.1379
  101OSM    C2S10170   1.142   5.767  10.480 -0.0153 -0.4595 -0.4499
  101OSM    H2S10171   1.089   5.855  10.437  0.5457  0.3340  0.4536
  101OSM    C3S10172   1.285   5.769  10.405  0.3116 -0.0295 -0.4284
  101OSM    H3S10173   1.352   5.686  10.436  0.1241 -1.4580 -3.5171
  101OSM     O310174   1.352   5.884  10.444 -0.4536  0.0084 -0.2894
  101OSM    HO310175   1.292   5.927  10.507  0.3276  1.0179 -0.2094
  101OSM    C4S10176   1.259   5.757  10.257 -0.2889 -0.5164 -0.5586
  101OSM    H4S10177   1.268   5.653  10.223  2.9092  0.4774 -3.4529
  101OSM    C5S10178   1.235   5.854  10.168 -0.3740  0.0085 -0.2897
  101OSM    H5S10179   1.233   5.962  10.190  2.4190 -0.1478  1.1709
  101OSM    C6S10180   1.201   5.834  10.020  0.0206 -0.3035 -0.1992
  101OSM    H6S10181   1.258   5.909   9.961  1.7226 -2.9642 -2.1999
  101OSM    H6T10182   1.094   5.861  10.015 -0.2567 -1.1900  0.6474
  101OSM    C7S10183   1.234   5.695   9.956 -0.0039 -0.4419  0.3632
  101OSM    H7S10184   1.195   5.616  10.024 -0.7744  2.0286  2.9977
  101OSM    H7T10185   1.339   5.665   9.942 -0.7761 -3.5325  0.4621
  101OSM    C8S10186   1.170   5.675   9.811  0.2940  0.0171  0.6884
  101OSM    H8S10187   1.060   5.693   9.814  0.1984  0.2348 -1.7660
  101OSM    H8T10188   1.200   5.568   9.801  1.5902  0.5059 -1.1222
  101OSM    C9S10189   1.230   5.753   9.696 -0.6778 -0.1726 -0.2916
  101OSM    H9S10190   1.338   5.727   9.693 -0.5085  0.4845 -0.0508
  101OSM    H9T10191   1.236   5.863   9.711  1.4772 -0.1335 -1.0222
  101OSM   C10S10192   1.169   5.717   9.562 -0.0705  0.0867  0.3140
  101OSM   H10S10193   1.061   5.741   9.573  0.0592  1.1000 -0.4876
  101OSM   H10T10194   1.187   5.609   9.547 -0.0639  0.2120 -0.6345
  101OSM   C11S10195   1.227   5.800   9.446 -0.2455  0.8843 -0.0190
  101OSM   H11S10196   1.337   5.802   9.457 -0.3644  2.0409  1.2725
  101OSM   H11T10197   1.193   5.906   9.457 -0.7226  1.0034 -2.1676
  101OSM   C12S10198   1.177   5.764   9.304 -0.2539  1.1102  0.2963
  101OSM   H12S10199   1.070   5.795   9.299 -0.0943  1.6801  0.3134
  101OSM   H12T10200   1.196   5.660   9.269  0.4777  2.1415 -2.6911
  101OSM   C13S10201   1.246   5.849   9.198  0.4577  0.4199 -0.2214
  101OSM   H13S10202   1.347   5.815   9.167  1.4678  2.3231  0.7900
  101OSM   H13T10203   1.257   5.953   9.236 -2.4786  0.6022  0.3799
  101OSM   C14S10204   1.154   5.858   9.073 -0.0023  0.2388  0.0678
  101OSM   H14S10205   1.060   5.909   9.104 -0.3725 -0.8150  0.7549
  101OSM   H14T10206   1.122   5.760   9.030  0.1261  0.3026 -0.1744
  101OSM   C15S10207   1.219   5.943   8.966 -0.2337 -0.4732  0.2746
  101OSM   H15S10208   1.301   5.881   8.923 -0.0775  0.2079 -0.4451
  101OSM   H15T10209   1.255   6.036   9.014 -1.4465  0.3617 -0.3754
  101OSM   C16S10210   1.102   5.974   8.866  0.0648  0.1421 -1.0307
  101OSM   H16S10211   1.007   6.014   8.905  1.0833 -0.7281  2.7123
  101OSM   H16T10212   1.066   5.877   8.825 -0.6310  0.1820 -0.5130
  101OSM   C17S10213   1.140   6.071   8.750  0.1192  0.0964  0.0289
  101OSM   H17S10214   1.191   6.159   8.794  1.8210 -0.6765 -0.3253
  101OSM   H17T10215   1.047   6.104   8.700 -1.4509 -0.1579  2.6032
  101OSM   C18S10216   1.239   6.012   8.652 -0.1801 -0.1647 -0.0763
  101OSM   H18S10217   1.291   6.084   8.585  1.7748 -0.6865  0.8203
  101OSM   H18T10218   1.173   5.953   8.585  0.9711 -1.9726  0.3120
  101OSM   H18U10219   1.313   5.944   8.699  0.4423 -0.3341 -1.2483
  101OSM    C1F10220   0.931   5.655  10.458 -0.2132  0.3805 -0.1197
  101OSM     OF10221   0.868   5.759  10.469  0.4784 -0.0081  0.7926
  101OSM    C2F10222   0.869   5.519  10.453  0.3105 -0.7786  0.2266
  101OSM    H2F10223   0.812   5.505  10.547  0.1977  0.1709  0.3028
  101OSM    H2G10224   0.942   5.437  10.438 -0.7592 -1.2605 -3.3720
  101OSM    C3F10225   0.778   5.512  10.336  0.3282 -0.6506  0.1405
  101OSM    H3F10226   0.699   5.588  10.321  3.0727  1.7258 -4.0922
  101OSM    H3G10227   0.728   5.414  10.353 -1.0590 -0.1396 -0.8787
  101OSM    C4F10228   0.836   5.518  10.195 -0.2634 -0.6886 -0.0338
  101OSM    H4F10229   0.901   5.428  10.188  1.3716  0.5565 -1.6248
  101OSM    H4G10230   0.902   5.606  10.184  1.3037 -1.6255  1.5166
  101OSM    C5F10231   0.735   5.505  10.083  0.8324  0.3291 -0.2681
  101OSM    H5F10232   0.665   5.590  10.101 -1.3123 -1.6230  1.1362
  101OSM    H5G10233   0.680   5.410  10.097  0.8049  0.7280  3.3966
  101OSM    C6F10234   0.795   5.522   9.945  0.0826  0.3075  0.0088
  101OSM    H6F10235   0.881   5.451   9.948  1.3472  1.8259  1.2135
  101OSM    H6G10236   0.835   5.625   9.940  1.7858 -0.2774  0.7160
  101OSM    C7F10237   0.696   5.487   9.831 -0.2926 -0.8305 -0.1042
  101OSM    H7F10238   0.595   5.530   9.849 -0.7495 -1.7956 -0.2741
  101OSM    H7G10239   0.668   5.379   9.833  0.8715 -1.1447  2.5078
  101OSM    C8F10240   0.751   5.524   9.699 -0.0004 -0.4671 -0.3650
  101OSM    H8F10241   0.754   5.635   9.702 -2.1952 -0.3842  1.6270
  101OSM    H8G10242   0.671   5.493   9.628 -1.0935  1.2841  0.0489
  101OSM    C9F10243   0.886   5.469   9.664  0.6903  0.3009 -0.5416
  101OSM    H9F10244   0.966   5.511   9.728  0.6363 -2.0318  1.1780
  101OSM   C10F10245   0.921   5.380   9.571  1.4457 -0.3917 -0.3211
  101OSM   H10F10246   1.028   5.358   9.564  2.0067  1.6120  1.0858
  101OSM   C11F10247   0.834   5.316   9.462 -0.0805 -0.3715 -0.3242
  101OSM   H11F10248   0.725   5.328   9.477  0.1213 -0.1509  1.0984
  101OSM   H11G10249   0.848   5.206   9.460  0.0203 -0.3547 -0.7068
  101OSM   C12F10250   0.878   5.358   9.323  0.4909 -0.0135  0.0961
  101OSM   H12F10251   0.819   5.304   9.247 -0.5346  0.7062  0.3588
  101OSM   H12G10252   0.983   5.321   9.322 -0.4237 -2.7794  0.3620
  101OSM   C13F10253   0.869   5.509   9.298 -0.6151 -0.2678  0.1533
  101OSM   H13F10254   0.926   5.563   9.376 -0.0138  1.1652 -1.2029
  101OSM   H13G10255   0.763   5.541   9.305  0.1288  2.0569  3.0253
  101OSM   C14F10256   0.941   5.552   9.172 -0.4545 -0.6661  0.7724
  101OSM   H14F10257   1.045   5.516   9.162 -0.5505 -0.4184 -1.6680
  101OSM   H14G10258   0.942   5.663   9.165 -2.1784 -0.6376  0.5511
  101OSM   C15F10259   0.874   5.499   9.053 -0.4578  0.8350 -0.3375
  101OSM   H15F10260   0.764   5.506   9.066 -0.2226  2.5373  1.0955
  101OSM   H15G10261   0.906   5.395   9.030  1.0017  1.2091 -0.1301
  101OSM   C16F10262   0.907   5.565   8.920 -0.1452  0.1866  0.0152
  101OSM   H16F10263   1.010   5.535   8.895 -0.2101 -0.9088  0.9456
  101OSM   H16G10264   0.897   5.675   8.933  0.9712  0.4295 -1.0102
  101OSM   C17F10265   0.812   5.531   8.802  0.0293  0.9210  0.0459
  101OSM   H17F10266   0.833   5.595   8.714  2.2936 -0.2703 -0.3625
  101OSM   H17G10267   0.703   5.534   8.824 -0.0055 -2.1777  0.8127
  101OSM   C18F10268   0.830   5.392   8.741 -0.6168 -0.3965 -0.0412
  101OSM   H18F10269   0.756   5.372   8.661 -0.0041  0.6853 -0.9162
  101OSM   H18G10270   0.815   5.319   8.823  1.0955 -1.9362 -1.0146
  101OSM   H18H10271   0.932   5.384   8.698  0.0457  2.4580  0.7217
  102OSM      N10272   6.117   3.730  11.022  0.2028  0.3626 -0.5432
  102OSM    C1510273   6.090   3.875  11.059  0.2837  0.1559 -0.0197
  102OSM   H15A10274   6.101   3.954  10.987 -0.5613  0.4174  0.1282
  102OSM   H15B10275   6.153   3.890  11.146  1.1153 -0.0290 -0.5826
  102OSM   H15C10276   5.994   3.882  11.108 -1.2268 -0.3226 -2.7240
  102OSM    C1410277   6.261   3.708  10.994 -0.8398  0.0592  0.7629
  102OSM   H14A10278   6.323   3.751  11.071  1.0244  1.8425 -1.5667
  102OSM   H14B10279   6.285   3.759  10.902 -0.8405  0.6476  1.0863
  102OSM   H14C10280   6.269   3.601  10.984 -2.1656 -0.1510  1.7285
  102OSM    C1310281   6.081   3.650  11.144 -0.3371 -0.3984 -0.3822
  102OSM   H13A10282   6.072   3.546  11.115  0.4273 -0.5203 -0.2081
  102OSM   H13B10283   5.990   3.677  11.195  0.4025  0.8601  0.3291
  102OSM   H13C10284   6.166   3.651  11.211 -1.5015 -1.4540  1.1931
  102OSM    C1210285   6.036   3.682  10.912  0.1591 -0.3888 -0.0712
  102OSM   H12A10286   6.051   3.738  10.821 -1.4450  5.7256  2.9321
  102OSM   H12B10287   5.935   3.716  10.928 -0.2368 -1.4455 -0.2441
  102OSM    C1110288   6.043   3.528  10.887  0.3946 -0.1898 -0.0780
  102OSM   H11A10289   5.981   3.507  10.797 -0.2086  0.8074  0.0921
  102OSM   H11B10290   5.993   3.480  10.974  0.4171  0.0139  0.0490
  102OSM      P10291   6.211   3.322  10.866  0.0029 -0.4189 -0.1355
  102OSM    O1310292   6.358   3.305  10.863  0.3362  0.8941  0.4554
  102OSM    O1410293   6.141   3.248  10.972 -0.1854 -0.9234  0.2446
  102OSM    O1110294   6.144   3.279  10.727 -1.0046  0.7987 -0.3047
  102OSM    O1210295   6.177   3.472  10.871  0.5340 -0.0978 -0.2217
  102OSM    C1S10296   6.169   3.365  10.624  0.4096  0.6470  0.2699
  102OSM    H1S10297   6.274   3.401  10.616  0.1999  1.0599 -0.8060
  102OSM    H1T10298   6.097   3.449  10.617 -0.8105 -0.4231 -0.5064
  102OSM     NF10299   6.106   3.413  10.395 -0.5005 -0.0766 -0.3200
  102OSM    HNF10300   6.014   3.449  10.388 -0.7255 -0.7758 -1.2372
  102OSM    C2S10301   6.133   3.292  10.484  0.4211  0.0353 -0.0703
  102OSM    H2S10302   6.229   3.238  10.475 -1.2066 -3.1107  0.2713
  102OSM    C3S10303   6.009   3.193  10.498  0.5372 -0.2064 -0.7073
  102OSM    H3S10304   5.929   3.254  10.546 -1.3525 -0.4040 -3.3836
  102OSM     O310305   6.013   3.088  10.598 -0.2596  0.0416 -0.1489
  102OSM    HO310306   6.079   3.122  10.658 -0.6930 -0.6488  0.7382
  102OSM    C4S10307   5.979   3.154  10.358  0.4541  0.2715  0.3403
  102OSM    H4S10308   5.915   3.224  10.302 -1.0345  0.0269  1.6564
  102OSM    C5S10309   6.032   3.045  10.291 -0.8549 -0.0771  0.6868
  102OSM    H5S10310   6.105   2.984  10.346  1.1398  2.3832  0.9234
  102OSM    C6S10311   6.024   3.006  10.144 -0.6048 -1.0391  0.4499
  102OSM    H6S10312   5.943   2.932  10.131  0.5368 -1.9805 -1.7259
  102OSM    H6T10313   6.123   2.974  10.105 -0.2753 -0.3352  0.6721
  102OSM    C7S10314   5.981   3.117  10.039 -0.0406 -0.8283  0.1484
  102OSM    H7S10315   5.899   3.171  10.091  2.0644  1.0846  1.6527
  102OSM    H7T10316   5.943   3.073   9.944 -0.3295 -0.5633  0.1385
  102OSM    C8S10317   6.085   3.231  10.027 -0.1537  1.1134  0.3233
  102OSM    H8S10318   6.167   3.187   9.966 -1.7894 -0.6340 -0.7106
  102OSM    H8T10319   6.123   3.265  10.126  0.3631  0.8204  0.2334
  102OSM    C9S10320   6.043   3.354   9.947  0.1050  0.3105  0.3641
  102OSM    H9S10321   6.131   3.412   9.912 -1.4740  2.6686  0.0713
  102OSM    H9T10322   5.998   3.428  10.018  1.6668  1.5012  0.1729
  102OSM   C10S10323   5.972   3.309   9.818 -0.3722 -0.0583  0.8633
  102OSM   H10S10324   5.878   3.256   9.845  0.1687 -0.7187  1.4683
  102OSM   H10T10325   6.043   3.243   9.763 -1.4264 -0.2968 -0.2607
  102OSM   C11S10326   5.918   3.431   9.741 -0.1421  0.7175 -0.5008
  102OSM   H11S10327   5.872   3.500   9.815 -0.6982 -0.2870  0.1074
  102OSM   H11T10328   5.843   3.413   9.662 -1.0174  0.3744  0.3893
  102OSM   C12S10329   6.037   3.513   9.690 -0.2159 -0.4537 -0.3180
  102OSM   H12S10330   6.123   3.449   9.661 -0.0056 -0.2403 -0.1657
  102OSM   H12T10331   6.081   3.585   9.762 -0.6849  0.1066 -0.5858
  102OSM   C13S10332   6.000   3.606   9.574  0.5839  0.1944 -0.2465
  102OSM   H13S10333   5.960   3.700   9.618 -0.8593 -1.0019  1.1440
  102OSM   H13T10334   5.909   3.573   9.520  1.9338  1.1585 -3.3142
  102OSM   C14S10335   6.116   3.630   9.481  0.2961  0.2572 -0.2131
  102OSM   H14S10336   6.168   3.534   9.462 -1.5344 -0.8358  0.0245
  102OSM   H14T10337   6.182   3.704   9.530 -0.1982  0.5350  0.0437
  102OSM   C15S10338   6.082   3.684   9.342 -0.8752  0.3976 -0.4999
  102OSM   H15S10339   6.179   3.702   9.290 -0.1753  0.7188  0.8750
  102OSM   H15T10340   6.022   3.777   9.353 -1.4758 -0.0791  0.3207
  102OSM   C16S10341   5.998   3.581   9.251  0.7148  0.3978  0.2393
  102OSM   H16S10342   5.910   3.536   9.302  1.6519 -1.5687  0.2335
  102OSM   H16T10343   6.058   3.488   9.243  1.3451  0.8491 -0.4844
  102OSM   C17S10344   5.976   3.615   9.101  0.4786  0.3568  0.0144
  102OSM   H17S10345   5.944   3.530   9.037  0.8389  1.6007 -1.8978
  102OSM   H17T10346   6.079   3.638   9.069  1.9269  1.2397  4.5142
  102OSM   C18S10347   5.875   3.726   9.081 -0.3830  0.0458 -0.2513
  102OSM   H18S10348   5.775   3.692   9.115  0.3430 -1.7052  0.2557
  102OSM   H18T10349   5.872   3.742   8.972 -2.5491 -1.7513 -0.5348
  102OSM   H18U10350   5.903   3.815   9.142 -4.6237  2.0471 -0.8542
  102OSM    C1F10351   6.214   3.487  10.359  0.0880  0.5914  0.2715
  102OSM     OF10352   6.331   3.455  10.374  0.2804 -0.1495 -0.7474
  102OSM    C2F10353   6.184   3.621  10.312 -0.2758  0.4032  0.5140
  102OSM    H2F10354   6.182   3.689  10.400 -0.3751 -2.0846  2.5930
  102OSM    H2G10355   6.082   3.626  10.268 -0.6453 -0.9203  1.1393
  102OSM    C3F10356   6.285   3.687  10.224 -0.6597  0.6443  0.0873
  102OSM    H3F10357   6.325   3.634  10.135 -0.6581  1.3563 -0.3432
  102OSM    H3G10358   6.377   3.693  10.285 -0.5981 -1.3982  0.2850
  102OSM    C4F10359   6.235   3.824  10.182 -0.5038 -0.2205  0.3906
  102OSM    H4F10360   6.201   3.867  10.279 -1.2263 -0.3137  0.1827
  102OSM    H4G10361   6.151   3.815  10.110 -0.6946  1.7717  0.2896
  102OSM    C5F10362   6.350   3.917  10.126  0.3320 -0.2528 -0.4464
  102OSM    H5F10363   6.420   3.935  10.210 -0.1648  0.2794 -0.1371
  102OSM    H5G10364   6.310   4.016  10.095  0.6140  0.1366  0.4186
  102OSM    C6F10365   6.438   3.857  10.011  1.0891  0.0929 -0.3904
  102OSM    H6F10366   6.367   3.797   9.950  1.6733 -1.2667  0.2299
  102OSM    H6G10367   6.494   3.774  10.058 -0.1988 -0.5491  0.0751
  102OSM    C7F10368   6.524   3.958   9.943  0.0428 -0.6806  0.5582
  102OSM    H7F10369   6.468   4.055   9.939  1.3334  0.0683  0.0497
  102OSM    H7G10370   6.545   3.932   9.837  0.6808 -0.5014  0.6390
  102OSM    C8F10371   6.661   3.991  10.003  0.9068  0.2854  0.7789
  102OSM    H8F10372   6.652   4.026  10.108  4.0246 -1.6746  1.8330
  102OSM    H8G10373   6.721   4.074   9.959  0.2455  0.9521  1.1246
  102OSM    C9F10374   6.746   3.871  10.007 -0.3646  0.1060  0.1962
  102OSM    H9F10375   6.706   3.796  10.077  0.5386  0.5948  1.2519
  102OSM   C10F10376   6.851   3.843   9.926  0.1238  0.1009 -0.0495
  102OSM   H10F10377   6.893   3.742   9.942 -0.8316 -0.2574  0.2940
  102OSM   C11F10378   6.898   3.923   9.807 -0.0243 -0.1542 -0.1545
  102OSM   H11F10379   6.974   3.990   9.853 -2.2923  1.7303  1.0244
  102OSM   H11G10380   6.815   3.992   9.780  1.8354  2.3905  0.2405
  102OSM   C12F10381   6.935   3.848   9.680  0.4996  0.1658 -0.1128
  102OSM   H12F10382   6.852   3.782   9.647  1.6657 -0.9403 -0.9675
  102OSM   H12G10383   7.026   3.784   9.689  1.8035  1.9057 -0.3472
  102OSM   C13F10384   6.959   3.951   9.568  0.1974  0.0971  0.0387
  102OSM   H13F10385   7.037   4.026   9.593  0.1215  0.2755 -0.2599
  102OSM   H13G10386   6.866   4.006   9.544  0.9749  0.8209 -1.4648
  102OSM   C14F10387   6.996   3.872   9.435  0.3053  0.7151 -0.5896
  102OSM   H14F10388   6.911   3.809   9.400 -1.6299  2.5409  0.5309
  102OSM   H14G10389   7.072   3.802   9.474 -0.7741  0.3227  0.9160
  102OSM   C15F10390   7.047   3.956   9.322 -0.1097  0.5114 -0.3509
  102OSM   H15F10391   7.093   3.896   9.241  0.8630  0.8346 -0.0529
  102OSM   H15G10392   7.128   4.016   9.369 -0.1058 -0.0816  0.4249
  102OSM   C16F10393   6.933   4.037   9.261 -0.0220  0.1675  0.8271
  102OSM   H16F10394   6.868   4.080   9.340 -0.9522 -0.2945  0.3288
  102OSM   H16G10395   6.867   3.976   9.197 -0.3744  2.9393 -1.6274
  102OSM   C17F10396   6.987   4.144   9.163  0.5887  0.4381 -0.3425
  102OSM   H17F10397   7.025   4.081   9.080 -1.9813 -2.5964  0.5895
  102OSM   H17G10398   7.068   4.199   9.216  0.0343  0.9452  0.0008
  102OSM   C18F10399   6.875   4.241   9.128 -0.3907  0.1032  0.1621
  102OSM   H18F10400   6.905   4.320   9.056  0.0492 -0.8975 -0.7969
  102OSM   H18G10401   6.821   4.289   9.212 -1.4455 -1.3269  0.3494
  102OSM   H18H10402   6.801   4.182   9.069 -1.2601 -1.4655  2.6677
  103OSM      N10403   6.721   5.836  10.996 -0.4856 -1.0195  1.2765
  103OSM    C1510404   6.637   5.814  10.875  0.0898 -0.1326 -0.3739
  103OSM   H15A10405   6.557   5.744  10.890 -0.5412  0.3363 -1.4738
  103OSM   H15B10406   6.698   5.779  10.793  1.4364  3.0115 -0.8600
  103OSM   H15C10407   6.594   5.909  10.850 -0.5145 -0.3547 -0.1934
  103OSM    C1410408   6.632   5.852  11.118 -0.5276 -0.5523 -0.0615
  103OSM   H14A10409   6.684   5.880  11.208 -1.2307 -0.3978  0.3038
  103OSM   H14B10410   6.578   5.758  11.120 -0.2003 -0.8478 -2.2253
  103OSM   H14C10411   6.561   5.929  11.091 -1.7392 -0.7095  2.3991
  103OSM    C1310412   6.802   5.714  11.022  0.1015  0.5566 -0.0248
  103OSM   H13A10413   6.886   5.696  10.957 -0.6649  0.8549 -1.1230
  103OSM   H13B10414   6.738   5.627  11.031 -0.9248  1.3591  0.7588
  103OSM   H13C10415   6.854   5.737  11.115  0.7962  1.3697 -0.5949
  103OSM    C1210416   6.808   5.960  10.971 -0.2358 -0.2871  0.4631
  103OSM   H12A10417   6.874   5.980  11.054  2.5569  0.4483 -1.7861
  103OSM   H12B10418   6.749   6.051  10.968 -0.9645 -0.7664 -0.8409
  103OSM    C1110419   6.895   5.969  10.838 -0.9851  0.7275 -0.9392
  103OSM   H11A10420   6.933   6.074  10.830  0.9191  0.5554  3.1216
  103OSM   H11B10421   6.837   5.948  10.746 -2.0831  3.3490 -0.9478
  103OSM      P10422   7.145   5.900  10.894 -0.2159 -0.0489  0.1092
  103OSM    O1310423   7.126   5.976  11.020  0.3454 -0.1532  0.0528
  103OSM    O1410424   7.223   5.775  10.906  0.0282  0.2221  0.0907
  103OSM    O1110425   7.217   5.992  10.783  0.0769  0.1367 -0.1160
  103OSM    O1210426   7.003   5.869  10.832  0.6711  0.5217 -0.9322
  103OSM    C1S10427   7.234   5.948  10.648 -0.5070 -0.8955  0.1353
  103OSM    H1S10428   7.137   5.929  10.597 -0.1361 -2.5902  0.0126
  103OSM    H1T10429   7.297   5.857  10.640 -0.3085 -0.7489  0.0138
  103OSM     NF10430   7.323   6.022  10.418  0.2315  0.1891 -0.1036
  103OSM    HNF10431   7.412   5.994  10.384 -0.0345 -2.1784  1.0088
  103OSM    C2S10432   7.300   6.067  10.559  0.5243  0.2895  0.6324
  103OSM    H2S10433   7.225   6.148  10.571 -0.4867 -0.6549  0.9273
  103OSM    C3S10434   7.438   6.125  10.612 -0.3240 -0.4631  0.2321
  103OSM    H3S10435   7.510   6.041  10.616 -2.0093 -1.9406  2.2857
  103OSM     O310436   7.434   6.162  10.754 -0.3327 -0.4703  0.9664
  103OSM    HO310437   7.373   6.100  10.794 -1.1123  0.2129  0.8776
  103OSM    C4S10438   7.495   6.245  10.531 -0.0104 -0.2638 -0.3415
  103OSM    H4S10439   7.552   6.214  10.443 -0.2678 -0.1512 -0.5467
  103OSM    C5S10440   7.460   6.377  10.539  0.8287  0.0562  0.1110
  103OSM    H5S10441   7.385   6.406  10.615  0.0910 -0.7559 -0.2932
  103OSM    C6S10442   7.526   6.487  10.461  0.3921 -0.3761  0.2116
  103OSM    H6S10443   7.602   6.531  10.529 -1.9605  0.2443  2.6434
  103OSM    H6T10444   7.462   6.568  10.420 -0.4574 -0.3204  1.5704
  103OSM    C7S10445   7.596   6.432  10.333 -0.1809 -1.3243  0.4368
  103OSM    H7S10446   7.525   6.367  10.278 -1.5727 -0.1681  0.8085
  103OSM    H7T10447   7.682   6.371  10.367  1.3604  0.5939  0.1756
  103OSM    C8S10448   7.657   6.538  10.240 -0.4823 -0.0184  0.2247
  103OSM    H8S10449   7.749   6.570  10.292 -1.6785  0.6864  2.0387
  103OSM    H8T10450   7.577   6.615  10.236  0.0242  0.7118  2.4146
  103OSM    C9S10451   7.695   6.485  10.102 -0.4204  0.2542  0.3255
  103OSM    H9S10452   7.604   6.443  10.053 -0.5990  0.2593  0.6527
  103OSM    H9T10453   7.777   6.410  10.107 -0.8442 -0.3183 -0.8631
  103OSM   C10S10454   7.740   6.607  10.012  0.1561 -0.1228  0.4834
  103OSM   H10S10455   7.813   6.661  10.077  1.1975 -0.8561 -0.0529
  103OSM   H10T10456   7.653   6.671   9.985 -1.1775 -0.7226  3.0254
  103OSM   C11S10457   7.809   6.559   9.882  0.0700 -0.5818  0.5562
  103OSM   H11S10458   7.723   6.512   9.828  0.2713 -2.9056  2.1134
  103OSM   H11T10459   7.890   6.491   9.914  1.4934  1.2169  0.9421
  103OSM   C12S10460   7.873   6.670   9.802  0.0018 -0.1217 -0.3752
  103OSM   H12S10461   7.965   6.702   9.856 -0.9930 -0.1740  1.4234
  103OSM   H12T10462   7.801   6.755   9.799 -1.2894 -1.1903 -3.3145
  103OSM   C13S10463   7.908   6.634   9.655 -0.0953  0.5493 -0.3083
  103OSM   H13S10464   7.813   6.598   9.609 -0.0248  0.9550 -0.7831
  103OSM   H13T10465   7.982   6.552   9.656  1.7191  2.1284  0.2767
  103OSM   C14S10466   7.955   6.752   9.568 -0.1905  0.1064  0.1640
  103OSM   H14S10467   8.022   6.816   9.629 -0.7727 -1.5601  2.7331
  103OSM   H14T10468   7.869   6.815   9.537 -0.3102 -0.2809 -0.3053
  103OSM   C15S10469   8.047   6.716   9.450  0.0031  0.5199  0.5128
  103OSM   H15S10470   8.001   6.640   9.384 -0.6083  1.1469  0.2025
  103OSM   H15T10471   8.134   6.657   9.487 -0.1884  0.5707  1.0518
  103OSM   C16S10472   8.099   6.840   9.372 -0.3611  0.1522  0.6222
  103OSM   H16S10473   8.192   6.811   9.318 -0.5592  1.8029 -0.6598
  103OSM   H16T10474   8.133   6.920   9.441  0.3611 -0.5956  1.1672
  103OSM   C17S10475   7.999   6.889   9.272 -0.5517 -0.5985  0.8123
  103OSM   H17S10476   7.909   6.944   9.308 -0.3815 -0.0177  0.3634
  103OSM   H17T10477   7.966   6.805   9.208  0.6920  0.2067 -0.9716
  103OSM   C18S10478   8.075   6.981   9.171 -0.0710 -0.1618 -0.6595
  103OSM   H18S10479   8.145   7.048   9.226 -2.0197  0.7923  0.7549
  103OSM   H18T10480   8.012   7.039   9.100  2.5932  2.4733 -1.0911
  103OSM   H18U10481   8.139   6.912   9.111  3.1601 -0.5803  2.8676
  103OSM    C1F10482   7.214   5.986  10.344  0.3728  0.2963 -1.0562
  103OSM     OF10483   7.096   6.008  10.382  0.0550  0.1166  0.2659
  103OSM    C2F10484   7.230   5.915  10.216  0.0528 -0.2482 -0.7475
  103OSM    H2F10485   7.314   5.843  10.220 -1.2643 -1.8023  0.2141
  103OSM    H2G10486   7.241   5.997  10.142 -1.1250  1.1315  0.5367
  103OSM    C3F10487   7.100   5.843  10.166 -0.0560 -0.1963 -0.0267
  103OSM    H3F10488   7.025   5.918  10.131  1.1777 -0.3194 -3.3368
  103OSM    H3G10489   7.053   5.788  10.250  0.5666  0.6103  0.8734
  103OSM    C4F10490   7.135   5.749  10.053  0.0102 -0.6305  0.5356
  103OSM    H4F10491   7.066   5.662  10.048  1.4328 -1.7513 -2.0555
  103OSM    H4G10492   7.228   5.691  10.070 -0.2221 -1.7884 -1.7242
  103OSM    C5F10493   7.132   5.825   9.918 -0.7892  0.2294  0.1684
  103OSM    H5F10494   7.209   5.905   9.908 -0.4628 -0.2924 -1.9601
  103OSM    H5G10495   7.034   5.874   9.901 -1.5635 -1.4030 -0.2602
  103OSM    C6F10496   7.152   5.731   9.796 -0.1526 -0.7976 -0.0491
  103OSM    H6F10497   7.082   5.645   9.796 -0.1626 -0.7936  0.8244
  103OSM    H6G10498   7.255   5.688   9.793 -0.4316 -1.4107 -1.1112
  103OSM    C7F10499   7.133   5.807   9.665  0.1723 -0.4971 -0.3888
  103OSM    H7F10500   7.190   5.901   9.678 -0.2069  0.4234 -4.2784
  103OSM    H7G10501   7.025   5.833   9.676 -0.0502 -1.3243 -0.5641
  103OSM    C8F10502   7.166   5.727   9.545  0.0042 -0.7229 -0.4562
  103OSM    H8F10503   7.097   5.640   9.543  2.6779 -3.0308  1.6683
  103OSM    H8G10504   7.264   5.682   9.569 -0.7281 -0.9309  2.4882
  103OSM    C9F10505   7.174   5.802   9.411 -0.0059 -0.5709  0.1956
  103OSM    H9F10506   7.267   5.859   9.400 -0.4606  0.1363 -0.1084
  103OSM   C10F10507   7.081   5.803   9.317  0.2792  0.3037  0.0832
  103OSM   H10F10508   7.105   5.854   9.223 -0.1099  1.2585  0.4903
  103OSM   C11F10509   6.952   5.728   9.320 -0.5641  0.0884 -0.0420
  103OSM   H11F10510   6.944   5.649   9.398 -3.1350  0.4700  0.1613
  103OSM   H11G10511   6.935   5.683   9.220  4.3143  1.2696 -1.6829
  103OSM   C12F10512   6.831   5.827   9.334 -0.4596 -0.0398 -0.0179
  103OSM   H12F10513   6.737   5.768   9.338  0.0295 -0.8483 -0.3428
  103OSM   H12G10514   6.829   5.903   9.253 -2.5156  0.6811  0.6597
  103OSM   C13F10515   6.829   5.907   9.468 -0.2724 -0.3734 -0.1771
  103OSM   H13F10516   6.851   5.829   9.544 -1.5106  2.3233  3.2210
  103OSM   H13G10517   6.916   5.975   9.466  0.9993 -1.9135  0.5426
  103OSM   C14F10518   6.695   5.976   9.497 -0.1710 -0.1579 -0.5059
  103OSM   H14F10519   6.604   5.912   9.497 -0.1426 -0.1986 -0.3299
  103OSM   H14G10520   6.691   6.059   9.423 -1.7227  1.4786  1.3291
  103OSM   C15F10521   6.690   6.049   9.633  0.7660 -0.1806 -0.5753
  103OSM   H15F10522   6.589   6.095   9.642  0.4245 -1.0902  0.4306
  103OSM   H15G10523   6.772   6.124   9.634  1.9012 -1.3936 -0.5474
  103OSM   C16F10524   6.718   5.953   9.748  0.9914  0.2879  0.1372
  103OSM   H16F10525   6.825   5.924   9.742  1.3040  0.7693  2.5018
  103OSM   H16G10526   6.648   5.867   9.747  0.8243  0.4188 -1.0196
  103OSM   C17F10527   6.713   6.028   9.888  0.7311 -0.4313 -0.4361
  103OSM   H17F10528   6.612   6.073   9.903  0.7871 -0.1514 -0.8865
  103OSM   H17G10529   6.787   6.110   9.887 -1.8714  2.0917 -0.5991
  103OSM   C18F10530   6.745   5.927  10.001 -0.3303 -0.1040 -0.3291
  103OSM   H18F10531   6.820   5.854   9.964 -0.0512  0.3000 -0.5785
  103OSM   H18G10532   6.661   5.868  10.042 -0.5677  0.6546  0.2916
  103OSM   H18H10533   6.794   5.980  10.086  1.5318 -0.2029 -1.2833
  104OSM      N10534   2.422   1.191  10.534  0.5988 -0.1860  0.1673
  104OSM    C1510535   2.341   1.275  10.626  0.6172 -0.5016  0.0725
  104OSM   H15A10536   2.350   1.378  10.597  1.3825 -0.4525  0.4675
  104OSM   H15B10537   2.377   1.255  10.726  0.4019 -1.5580 -0.0485
  104OSM   H15C10538   2.239   1.239  10.629  2.3607 -6.6543  3.2708
  104OSM    C1410539   2.416   1.048  10.572  0.9490  0.3646 -0.3699
  104OSM   H14A10540   2.459   1.028  10.670 -0.1539 -0.4355 -0.0182
  104OSM   H14B10541   2.485   0.997  10.506 -0.0098  0.5519 -1.5506
  104OSM   H14C10542   2.316   1.005  10.572  1.7226 -1.5736  0.5951
  104OSM    C1310543   2.370   1.211  10.397  0.2249  0.1832  0.0415
  104OSM   H13A10544   2.264   1.189  10.390  0.6813 -3.1490  1.4621
  104OSM   H13B10545   2.425   1.138  10.339  0.6214  0.4248  0.1119
  104OSM   H13C10546   2.389   1.309  10.357  0.7348 -0.3382 -1.0403
  104OSM    C1210547   2.565   1.241  10.548  0.0330 -0.4287  0.1294
  104OSM   H12A10548   2.558   1.347  10.528 -1.7289 -0.5973 -0.3065
  104OSM   H12B10549   2.627   1.201  10.469  1.0668 -0.6007  1.0061
  104OSM    C1110550   2.635   1.227  10.687 -0.4110  0.1550  0.0368
  104OSM   H11A10551   2.580   1.280  10.767  0.4911  0.3772  0.5262
  104OSM   H11B10552   2.722   1.296  10.692 -0.3497  0.2489 -1.6599
  104OSM      P10553   2.791   1.028  10.666  0.1526  0.4019 -0.0903
  104OSM    O1310554   2.908   1.094  10.722 -0.3179  0.0833  0.2560
  104OSM    O1410555   2.782   0.885  10.699  0.1929  0.0944  0.5864
  104OSM    O1110556   2.793   1.052  10.506  0.5363  0.3362 -0.2362
  104OSM    O1210557   2.658   1.089  10.730  0.9302  0.0421  0.3967
  104OSM    C1S10558   2.871   0.965  10.428 -0.1223 -0.2986 -0.1727
  104OSM    H1S10559   2.804   0.877  10.422 -2.1812  1.0703  1.3864
  104OSM    H1T10560   2.964   0.936  10.481  0.5485 -0.1228 -1.2105
  104OSM     NF10561   2.958   0.905  10.206  0.2238  0.1538  0.2289
  104OSM    HNF10562   3.049   0.889  10.169 -0.4245  1.3153 -2.1279
  104OSM    C2S10563   2.909   1.014  10.291 -0.3084  0.2892 -0.6539
  104OSM    H2S10564   2.820   1.063  10.247  0.8295  2.0204 -1.1676
  104OSM    C3S10565   3.013   1.129  10.313 -0.3649 -0.3708  0.3327
  104OSM    H3S10566   3.092   1.085  10.378 -2.2785 -0.6570  2.6014
  104OSM     O310567   2.958   1.236  10.392 -0.5397 -0.0210 -0.6023
  104OSM    HO310568   2.871   1.201  10.412 -0.1960 -1.3990 -1.3732
  104OSM    C4S10569   3.066   1.166  10.181 -0.0973 -0.5006  0.1415
  104OSM    H4S10570   3.160   1.118  10.152  0.3290  0.8197 -0.7498
  104OSM    C5S10571   3.019   1.259  10.092  0.2317 -0.3785  0.2886
  104OSM    H5S10572   2.923   1.310  10.108 -0.0125 -0.7669  0.0741
  104OSM    C6S10573   3.077   1.286   9.959 -0.0860 -0.7382 -0.0917
  104OSM    H6S10574   3.182   1.251   9.960  0.7837  1.6968  0.5963
  104OSM    H6T10575   3.071   1.396   9.943  0.7382 -0.3012  2.2349
  104OSM    C7S10576   3.008   1.212   9.839  0.1409 -0.2842 -0.2594
  104OSM    H7S10577   2.904   1.250   9.826  0.3124  0.6755  1.0333
  104OSM    H7T10578   2.999   1.102   9.849  0.0187 -0.3710 -1.2251
  104OSM    C8S10579   3.079   1.238   9.704  0.1963  0.0625 -0.3239
  104OSM    H8S10580   3.187   1.216   9.714  0.0363  0.0119  1.7980
  104OSM    H8T10581   3.064   1.346   9.682 -0.5102  0.5125  2.1122
  104OSM    C9S10582   3.018   1.162   9.590  0.1429 -0.2296  0.2772
  104OSM    H9S10583   2.912   1.191   9.575 -0.2721 -0.8554  1.8255
  104OSM    H9T10584   3.018   1.054   9.617 -1.4686 -0.5249 -0.7674
  104OSM   C10S10585   3.099   1.188   9.457  0.5985 -0.1935  0.4105
  104OSM   H10S10586   3.166   1.102   9.435 -0.8389 -1.1100 -0.5558
  104OSM   H10T10587   3.174   1.269   9.473  0.2864  0.0939  0.4221
  104OSM   C11S10588   3.011   1.212   9.331  0.3665 -0.5180 -1.0151
  104OSM   H11S10589   2.956   1.308   9.335  1.6073  0.2679 -2.1409
  104OSM   H11T10590   2.937   1.130   9.316 -0.0330 -1.7969  5.1614
  104OSM   C12S10591   3.094   1.223   9.205 -0.6472  0.4419  0.6770
  104OSM   H12S10592   3.175   1.148   9.193  0.0866  1.3008  0.1899
  104OSM   H12T10593   3.139   1.324   9.199 -3.1611  1.7504  1.9389
  104OSM   C13S10594   3.001   1.225   9.083 -0.1779 -0.3235 -0.0511
  104OSM   H13S10595   2.938   1.316   9.099  0.5939  0.0549  0.9245
  104OSM   H13T10596   2.943   1.131   9.075  0.9183 -1.3058  2.5089
  104OSM   C14S10597   3.079   1.259   8.953 -0.0310 -0.4300  0.1974
  104OSM   H14S10598   3.175   1.206   8.938  0.7105  0.7308  0.6926
  104OSM   H14T10599   3.094   1.369   8.953 -0.0162 -0.4071 -1.3548
  104OSM   C15S10600   3.006   1.218   8.822  0.0085  0.2745 -0.8240
  104OSM   H15S10601   2.909   1.271   8.822  0.7274  1.6318 -1.2643
  104OSM   H15T10602   2.981   1.110   8.828 -0.7382  0.4680 -0.2778
  104OSM   C16S10603   3.097   1.242   8.702  0.2334  0.7378 -0.4727
  104OSM   H16S10604   3.196   1.194   8.714  0.9233  1.7451 -1.8919
  104OSM   H16T10605   3.114   1.351   8.694  1.5266  0.9254  3.0602
  104OSM   C17S10606   3.043   1.191   8.567  0.5266 -0.5232 -1.2321
  104OSM   H17S10607   2.939   1.227   8.556 -0.6439 -2.9439  0.8488
  104OSM   H17T10608   3.028   1.083   8.587  1.3010 -0.2713  0.9483
  104OSM   C18S10609   3.118   1.222   8.444 -0.1831  0.3127  0.2260
  104OSM   H18S10610   3.112   1.331   8.423  1.8183  0.4017 -0.1068
  104OSM   H18T10611   3.086   1.178   8.347 -3.6363  1.9037  0.5014
  104OSM   H18U10612   3.227   1.202   8.456 -0.0801  0.8752  0.2549
  104OSM    C1F10613   2.878   0.808  10.163 -0.3717 -0.1511  0.1646
  104OSM     OF10614   2.760   0.806  10.190 -0.6541  0.4834  0.2834
  104OSM    C2F10615   2.944   0.697  10.080 -0.1772 -0.1391 -0.7491
  104OSM    H2F10616   2.928   0.602  10.135  1.3495  0.7892  1.4682
  104OSM    H2G10617   3.054   0.712  10.083 -0.2709  0.4905 -0.3320
  104OSM    C3F10618   2.884   0.677   9.942  0.5583  0.1170 -0.6450
  104OSM    H3F10619   2.776   0.655   9.956  0.0477  2.4942 -0.3826
  104OSM    H3G10620   2.931   0.586   9.900  0.1249  0.6828 -2.4297
  104OSM    C4F10621   2.896   0.795   9.850 -0.4228 -0.6099  0.8722
  104OSM    H4F10622   3.003   0.825   9.847 -0.9333  1.7500 -4.6837
  104OSM    H4G10623   2.846   0.881   9.900  1.1347  2.1430 -1.9417
  104OSM    C5F10624   2.862   0.772   9.700  0.4942 -0.3075 -0.6140
  104OSM    H5F10625   2.816   0.868   9.666  0.7370  0.7449  1.7524
  104OSM    H5G10626   2.788   0.691   9.684  1.4512 -1.6124  1.2625
  104OSM    C6F10627   2.985   0.769   9.609  0.3738  0.4445  0.1223
  104OSM    H6F10628   3.041   0.678   9.637 -2.6346 -2.1058 -1.4281
  104OSM    H6G10629   3.059   0.851   9.615  1.1277 -0.0774 -1.3982
  104OSM    C7F10630   2.937   0.748   9.459 -0.3105 -0.9055 -0.2823
  104OSM    H7F10631   2.905   0.844   9.412  2.3449  0.3595  0.3323
  104OSM    H7G10632   2.841   0.691   9.465 -1.2061  0.3749 -1.5320
  104OSM    C8F10633   3.030   0.670   9.374 -0.5261  0.4663  0.1867
  104OSM    H8F10634   2.983   0.639   9.279 -0.5134  0.2617  0.2482
  104OSM    H8G10635   3.052   0.575   9.427 -1.5340 -0.2915 -0.7163
  104OSM    C9F10636   3.156   0.745   9.342 -0.4411 -0.2792  0.6272
  104OSM    H9F10637   3.233   0.749   9.421  1.3716 -3.1118 -0.8061
  104OSM   C10F10638   3.169   0.836   9.235  0.9141  0.9577  0.3668
  104OSM   H10F10639   3.264   0.880   9.205 -0.0646  1.0097 -3.0244
  104OSM   C11F10640   3.061   0.874   9.137  0.5909 -0.1524  0.3926
  104OSM   H11F10641   3.078   0.979   9.104 -0.7129  0.0318  0.2682
  104OSM   H11G10642   2.961   0.876   9.186 -0.4839 -0.0216 -1.7225
  104OSM   C12F10643   3.075   0.789   9.009  0.1863  0.2331  0.1954
  104OSM   H12F10644   2.988   0.813   8.944 -1.7990 -1.9973  1.8688
  104OSM   H12G10645   3.072   0.682   9.038  3.0121 -0.0707 -0.3353
  104OSM   C13F10646   3.203   0.810   8.928  0.1488 -0.5519  0.0887
  104OSM   H13F10647   3.297   0.801   8.987 -0.2130 -0.4665  0.6888
  104OSM   H13G10648   3.208   0.906   8.871  2.0962 -0.6654  0.0010
  104OSM   C14F10649   3.197   0.698   8.828 -0.5721 -0.6164  0.2771
  104OSM   H14F10650   3.101   0.710   8.772 -0.5679  1.1513  0.6186
  104OSM   H14G10651   3.213   0.596   8.870  3.9885  0.1114  0.8149
  104OSM   C15F10652   3.302   0.708   8.718  0.4425 -0.9643  0.6823
  104OSM   H15F10653   3.406   0.716   8.757  0.6530  1.3816 -0.1718
  104OSM   H15G10654   3.290   0.798   8.654  2.8118 -1.9279 -1.2544
  104OSM   C16F10655   3.309   0.579   8.631 -0.1841 -0.8719 -0.2937
  104OSM   H16F10656   3.209   0.545   8.595 -0.1153 -0.6171 -0.7322
  104OSM   H16G10657   3.346   0.501   8.701  1.8937 -0.4868 -0.8898
  104OSM   C17F10658   3.405   0.586   8.505  0.0761  0.3359  0.0441
  104OSM   H17F10659   3.512   0.597   8.534  0.1237 -0.6781  0.2912
  104OSM   H17G10660   3.387   0.683   8.453  0.6668 -0.3673 -1.5581
  104OSM   C18F10661   3.386   0.476   8.400 -0.2980  0.3146  0.1842
  104OSM   H18F10662   3.287   0.480   8.350  0.6918  0.5819 -1.8884
  104OSM   H18G10663   3.395   0.374   8.442 -0.1733 -0.3726 -1.4159
  104OSM   H18H10664   3.463   0.480   8.320 -0.8735 -0.1517 -0.4046
  105OSM      N10665   3.349   6.689  10.810 -0.2325  0.3590 -0.1185
  105OSM    C1510666   3.394   6.572  10.733  0.4517 -0.3547 -0.2436
  105OSM   H15A10667   3.430   6.488  10.789  1.8906  0.7979  0.6268
  105OSM   H15B10668   3.470   6.599  10.661  1.3278  1.7321  1.3406
  105OSM   H15C10669   3.310   6.542  10.672 -1.3298  2.2027  0.7868
  105OSM    C1410670   3.234   6.652  10.903  0.2321 -0.1199 -0.1276
  105OSM   H14A10671   3.196   6.736  10.961 -1.3097 -2.3333  2.3162
  105OSM   H14B10672   3.271   6.578  10.973  2.4823  2.3104  1.4582
  105OSM   H14C10673   3.154   6.608  10.846 -0.7517 -1.0662  1.8634
  105OSM    C1310674   3.464   6.730  10.889 -0.1159 -0.2399 -0.7890
  105OSM   H13A10675   3.555   6.741  10.832  1.4081  0.8509  1.6659
  105OSM   H13B10676   3.488   6.648  10.955 -1.4026 -1.3226 -1.6288
  105OSM   H13C10677   3.444   6.815  10.952 -3.0661 -1.2626 -0.1721
  105OSM    C1210678   3.309   6.796  10.713 -0.2816 -0.3796  0.0638
  105OSM   H12A10679   3.284   6.887  10.766 -0.9069  0.6493 -1.9080
  105OSM   H12B10680   3.215   6.773  10.666 -0.7895  2.7521 -0.6780
  105OSM    C1110681   3.407   6.838  10.596 -0.1901  0.2051  0.0447
  105OSM   H11A10682   3.352   6.907  10.528  0.0017 -3.0733 -3.7759
  105OSM   H11B10683   3.434   6.756  10.526 -1.0020 -0.1802  0.1749
  105OSM      P10684   3.520   7.050  10.700 -0.4602  0.1784  0.6792
  105OSM    O1310685   3.402   7.051  10.789  0.1848 -0.0197 -0.0618
  105OSM    O1410686   3.646   7.091  10.753 -0.3655  0.4598  0.0234
  105OSM    O1110687   3.486   7.138  10.578  0.0271  0.3911  0.4845
  105OSM    O1210688   3.521   6.904  10.638 -0.4470 -0.1523  0.3054
  105OSM    C1S10689   3.583   7.144  10.467  0.2870 -0.0349 -0.9281
  105OSM    H1S10690   3.671   7.079  10.487  0.3202  0.2139 -0.2664
  105OSM    H1T10691   3.626   7.246  10.458  0.0549  0.0173 -1.5442
  105OSM     NF10692   3.613   7.108  10.216 -0.5287 -0.3550  0.4400
  105OSM    HNF10693   3.625   7.190  10.162 -1.7148 -1.2364 -1.2419
  105OSM    C2S10694   3.517   7.119  10.327  0.3586 -0.2105 -0.0796
  105OSM    H2S10695   3.451   7.031  10.336 -2.4648  1.8320  0.5534
  105OSM    C3S10696   3.413   7.239  10.302 -0.4908 -0.0835  0.4356
  105OSM    H3S10697   3.473   7.333  10.296 -1.5762  0.5370 -2.1874
  105OSM     O310698   3.328   7.254  10.411  0.0898 -0.4220  0.3473
  105OSM    HO310699   3.362   7.201  10.483 -0.3217 -1.1275  0.0310
  105OSM    C4S10700   3.341   7.231  10.166 -0.6576  0.2442 -0.0740
  105OSM    H4S10701   3.393   7.292  10.090 -0.5603  0.1515 -0.0813
  105OSM    C5S10702   3.230   7.159  10.138 -0.2331  0.0231  1.1960
  105OSM    H5S10703   3.182   7.107  10.222 -3.3159 -0.8993 -0.9977
  105OSM    C6S10704   3.139   7.158  10.017 -0.6721 -0.1094  0.3499
  105OSM    H6S10705   3.046   7.214  10.037  0.2725  0.9974  1.8660
  105OSM    H6T10706   3.111   7.052  10.001 -1.4393 -0.1609  1.8922
  105OSM    C7S10707   3.204   7.223   9.893 -0.1523 -0.2091 -0.3814
  105OSM    H7S10708   3.312   7.200   9.898 -0.4878 -1.8501 -0.1241
  105OSM    H7T10709   3.193   7.333   9.903 -0.6913 -0.3480  0.7040
  105OSM    C8S10710   3.144   7.166   9.763  0.8745  0.0463  0.2367
  105OSM    H8S10711   3.036   7.186   9.746  0.8191 -1.7829 -2.1009
  105OSM    H8T10712   3.137   7.055   9.759 -0.0913  0.0146  1.9907
  105OSM    C9S10713   3.215   7.220   9.634  0.7544  0.1949 -0.2145
  105OSM    H9S10714   3.320   7.184   9.628  0.4570 -0.6184 -0.7374
  105OSM    H9T10715   3.195   7.329   9.630 -2.0979 -0.2193  0.3296
  105OSM   C10S10716   3.166   7.166   9.502  0.3140  0.1509 -0.2603
  105OSM   H10S10717   3.065   7.201   9.474 -0.4113  0.2172  2.2160
  105OSM   H10T10718   3.161   7.055   9.512 -1.7329  0.0867 -1.4378
  105OSM   C11S10719   3.259   7.200   9.381 -0.5606  0.1012  0.8250
  105OSM   H11S10720   3.364   7.172   9.404 -0.9919 -2.0908  0.3307
  105OSM   H11T10721   3.251   7.311   9.375 -3.7611 -0.0699  0.3811
  105OSM   C12S10722   3.193   7.134   9.257  0.7905 -0.1681 -0.3543
  105OSM   H12S10723   3.084   7.154   9.253  1.0197  1.0718 -0.9634
  105OSM   H12T10724   3.201   7.023   9.267 -1.4163 -0.4180 -0.8949
  105OSM   C13S10725   3.247   7.181   9.124  0.1193 -0.6674  0.1617
  105OSM   H13S10726   3.357   7.179   9.135  0.1900 -0.7512 -0.5085
  105OSM   H13T10727   3.223   7.288   9.104  1.5804 -0.3661 -0.0593
  105OSM   C14S10728   3.220   7.085   9.005 -0.2784 -0.3548 -0.1743
  105OSM   H14S10729   3.241   6.986   9.051 -1.1576 -0.3657  0.2265
  105OSM   H14T10730   3.296   7.093   8.924  0.6785  4.8158  0.8767
  105OSM   C15S10731   3.074   7.083   8.950 -0.0771  0.1889  0.5533
  105OSM   H15S10732   3.039   7.187   8.930 -3.2635 -1.4469 -3.8627
  105OSM   H15T10733   3.006   7.039   9.026  0.8655  0.8623  1.8226
  105OSM   C16S10734   3.069   7.011   8.815 -0.1063  0.2073  0.2390
  105OSM   H16S10735   3.086   7.078   8.728 -1.1432  0.8572  0.5128
  105OSM   H16T10736   2.964   6.975   8.806  0.3577 -1.2273  0.2818
  105OSM   C17S10737   3.138   6.872   8.815 -0.2222  0.2590  0.9327
  105OSM   H17S10738   3.117   6.821   8.912 -1.0397 -1.3779 -0.0477
  105OSM   H17T10739   3.248   6.887   8.810 -0.4988  2.2671 -0.0580
  105OSM   C18S10740   3.085   6.784   8.693 -0.6011 -0.3383  0.2056
  105OSM   H18S10741   3.115   6.829   8.596 -0.4708 -4.6823 -2.0026
  105OSM   H18T10742   2.974   6.778   8.687 -0.6407  1.0128 -1.1107
  105OSM   H18U10743   3.126   6.682   8.684  0.9636  0.2238  0.6211
  105OSM    C1F10744   3.705   7.013  10.194  0.7171  0.0541  0.1134
  105OSM     OF10745   3.743   6.928  10.274 -0.6226  0.3254 -0.1912
  105OSM    C2F10746   3.777   7.022  10.061 -0.2890 -0.3884  0.3320
  105OSM    H2F10747   3.855   7.099  10.079  0.9979 -1.7274  0.6497
  105OSM    H2G10748   3.704   7.067   9.990 -0.0092  0.5907  0.6475
  105OSM    C3F10749   3.819   6.883  10.014 -0.0390 -0.2383 -0.2781
  105OSM    H3F10750   3.735   6.810  10.017  0.0592 -0.3662 -0.5846
  105OSM    H3G10751   3.900   6.861  10.086  0.5483 -0.1289 -0.8930
  105OSM    C4F10752   3.888   6.872   9.873  0.1099 -0.2274 -0.1896
  105OSM    H4F10753   3.941   6.774   9.875  1.3323  0.4180  0.1220
  105OSM    H4G10754   3.969   6.948   9.865  0.8486 -0.9328  0.3560
  105OSM    C5F10755   3.798   6.882   9.753  0.2406  0.1508 -0.6320
  105OSM    H5F10756   3.737   6.974   9.767 -1.2889 -0.3384 -3.3138
  105OSM    H5G10757   3.737   6.789   9.755 -0.1822  0.3558  3.1235
  105OSM    C6F10758   3.878   6.898   9.624 -0.4091 -0.3357  0.5879
  105OSM    H6F10759   3.961   6.824   9.622  0.2956  0.3457  2.2449
  105OSM    H6G10760   3.930   6.996   9.627  0.3570 -0.7309  0.5009
  105OSM    C7F10761   3.798   6.888   9.497 -0.2922  0.3771  0.1314
  105OSM    H7F10762   3.703   6.945   9.506 -0.8102 -0.1363 -1.6380
  105OSM    H7G10763   3.777   6.781   9.479 -1.3565  0.6169 -0.1378
  105OSM    C8F10764   3.856   6.949   9.377 -0.3416 -0.3973  0.3123
  105OSM    H8F10765   3.895   7.053   9.383  1.3107 -0.9018 -0.7806
  105OSM    H8G10766   3.780   6.956   9.297  1.2012 -0.7159 -1.2561
  105OSM    C9F10767   3.966   6.861   9.325 -0.3540 -0.8555  0.7012
  105OSM    H9F10768   4.034   6.841   9.409  1.5535 -1.5813 -0.9417
  105OSM   C10F10769   4.004   6.817   9.202 -0.2338  0.4080  0.7268
  105OSM   H10F10770   4.091   6.750   9.197 -0.4343  0.0830  1.5791
  105OSM   C11F10771   3.923   6.836   9.072 -0.3847 -0.1720 -0.2076
  105OSM   H11F10772   3.888   6.941   9.076 -0.4684 -0.2313  1.7317
  105OSM   H11G10773   3.836   6.767   9.057 -0.4098 -0.2091  0.0981
  105OSM   C12F10774   4.026   6.809   8.957  0.8867  0.4700 -0.1487
  105OSM   H12F10775   4.050   6.701   8.962 -0.9039  0.0305 -0.3812
  105OSM   H12G10776   4.113   6.874   8.981 -0.8895  2.3524  1.5814
  105OSM   C13F10777   3.969   6.831   8.813 -0.2987 -0.0374 -0.4247
  105OSM   H13F10778   3.949   6.940   8.812  1.7517  0.4234 -2.7037
  105OSM   H13G10779   3.878   6.771   8.791  0.6257 -0.8135 -2.3735
  105OSM   C14F10780   4.073   6.800   8.704  0.3610 -0.4941 -0.7196
  105OSM   H14F10781   4.076   6.689   8.699 -0.7718 -0.6626  1.2012
  105OSM   H14G10782   4.174   6.831   8.737  0.9688 -0.1485 -2.7754
  105OSM   C15F10783   4.022   6.863   8.575 -0.3050 -0.1586 -0.1024
  105OSM   H15F10784   4.051   6.970   8.570  3.4888 -1.0494 -0.4443
  105OSM   H15G10785   3.914   6.842   8.561  0.2922 -1.7993 -3.2271
  105OSM   C16F10786   4.089   6.801   8.451  0.4765  0.5587 -0.1485
  105OSM   H16F10787   4.066   6.692   8.450 -0.8059  0.7908  0.7267
  105OSM   H16G10788   4.200   6.798   8.460  0.3627 -0.7641  1.2576
  105OSM   C17F10789   4.051   6.860   8.320 -0.3624 -0.4459  0.6125
  105OSM   H17F10790   3.943   6.859   8.293  0.1303 -0.8318 -1.5715
  105OSM   H17G10791   4.095   6.803   8.235  1.3207  0.9299  0.5220
  105OSM   C18F10792   4.102   7.002   8.297 -0.4341 -0.4775 -0.1339
  105OSM   H18F10793   4.056   7.040   8.204  0.3808  1.7631  0.3178
  105OSM   H18G10794   4.213   7.013   8.290 -0.4712 -0.2000 -0.2998
  105OSM   H18H10795   4.073   7.067   8.382 -2.6669 -2.0137  0.3662
  106OSM      N10796   5.871   2.777  10.800  0.2172 -0.1201 -0.3017
  106OSM    C1510797   6.004   2.805  10.859 -0.7115  0.0528 -0.3775
  106OSM   H15A10798   6.038   2.743  10.941 -1.1753 -0.6867 -0.7286
  106OSM   H15B10799   5.994   2.907  10.892 -2.1222  0.6145 -2.3103
  106OSM   H15C10800   6.089   2.806  10.793  0.8405  1.7144  1.5248
  106OSM    C1410801   5.863   2.637  10.771 -0.3218 -0.3866 -0.0342
  106OSM   H14A10802   5.959   2.618  10.725 -0.7550 -2.0277 -0.3406
  106OSM   H14B10803   5.780   2.609  10.708 -1.0991  2.0309 -0.1870
  106OSM   H14C10804   5.848   2.578  10.861 -0.1554 -1.8398 -0.9279
  106OSM    C1310805   5.759   2.821  10.893  0.3555  0.0648 -0.0152
  106OSM   H13A10806   5.760   2.927  10.915 -0.5367 -0.3302  2.2213
  106OSM   H13B10807   5.762   2.783  10.994 -0.4078  3.6044  1.4992
  106OSM   H13C10808   5.660   2.796  10.859 -0.4863  0.2813  2.1042
  106OSM    C1210809   5.864   2.851  10.667 -0.0051  0.1352  0.2438
  106OSM   H12A10810   5.949   2.814  10.611  0.3285  2.7932 -1.1824
  106OSM   H12B10811   5.880   2.957  10.678 -0.8147  0.1510  1.4612
  106OSM    C1110812   5.740   2.831  10.566 -0.4910 -0.5201  0.1491
  106OSM   H11A10813   5.729   2.722  10.547 -1.2030 -0.3724 -0.3049
  106OSM   H11B10814   5.772   2.876  10.470  0.7041  1.6184  1.4493
  106OSM      P10815   5.569   3.025  10.590 -0.1464 -0.1214  0.0438
  106OSM    O1310816   5.421   3.018  10.625 -0.8318  0.5025  0.4570
  106OSM    O1410817   5.647   3.124  10.665 -0.5283 -0.3021  1.1761
  106OSM    O1110818   5.591   3.045  10.438  0.1063  0.8265  0.1602
  106OSM    O1210819   5.618   2.880  10.622 -0.0232  0.1569  0.1553
  106OSM    C1S10820   5.533   2.979  10.327  0.5121  0.7368 -0.1527
  106OSM    H1S10821   5.461   2.898  10.352  1.0919  0.1447 -0.3546
  106OSM    H1T10822   5.626   2.933  10.286  0.5128  0.5833  0.0193
  106OSM     NF10823   5.402   3.016  10.124  0.4614  0.0744  0.2145
  106OSM    HNF10824   5.472   2.988  10.059  1.9154 -1.1382  2.2116
  106OSM    C2S10825   5.472   3.086  10.231 -0.2751  0.2320 -0.4232
  106OSM    H2S10826   5.400   3.148  10.289  0.5518  0.3094  0.5422
  106OSM    C3S10827   5.586   3.175  10.175 -0.0526  0.0836  0.2255
  106OSM    H3S10828   5.664   3.122  10.116  0.2498 -0.5808  1.1964
  106OSM     O310829   5.658   3.254  10.274 -0.0484 -0.1556 -0.0772
  106OSM    HO310830   5.626   3.204  10.350 -0.0931 -1.2092 -0.7577
  106OSM    C4S10831   5.519   3.280  10.078 -0.2652  0.0285 -1.0606
  106OSM    H4S10832   5.431   3.331  10.121 -0.9002 -2.4422  0.8232
  106OSM    C5S10833   5.564   3.297   9.953  0.4233  0.8254 -0.1249
  106OSM    H5S10834   5.642   3.237   9.904  0.0950 -0.3998  0.7960
  106OSM    C6S10835   5.514   3.405   9.862 -0.0007  0.2408  1.1310
  106OSM    H6S10836   5.603   3.463   9.829  0.7422 -0.9108  1.0208
  106OSM    H6T10837   5.447   3.480   9.908  0.8784  0.7223  1.6553
  106OSM    C7S10838   5.440   3.356   9.738  0.2304  0.7961 -0.7261
  106OSM    H7S10839   5.389   3.434   9.677 -2.7992 -0.6241 -0.1593
  106OSM    H7T10840   5.355   3.292   9.768 -0.2431  0.8490 -1.8880
  106OSM    C8S10841   5.536   3.266   9.655 -0.8590  1.0101  0.0632
  106OSM    H8S10842   5.564   3.170   9.703 -0.0846 -0.2829 -2.7889
  106OSM    H8T10843   5.632   3.321   9.644  0.1054 -0.2841  1.5418
  106OSM    C9S10844   5.495   3.229   9.515  0.1885 -0.4971 -0.3266
  106OSM    H9S10845   5.451   3.319   9.468  0.1745  1.6499  3.3971
  106OSM    H9T10846   5.416   3.152   9.525 -0.5952  0.4176  0.7557
  106OSM   C10S10847   5.608   3.164   9.428 -0.3543  0.3634 -0.1187
  106OSM   H10S10848   5.640   3.067   9.471 -0.2558  0.5410  0.2091
  106OSM   H10T10849   5.697   3.228   9.410  0.9678 -1.3045  0.2446
  106OSM   C11S10850   5.548   3.125   9.285 -0.0237  0.3558 -0.0895
  106OSM   H11S10851   5.438   3.135   9.295 -0.0674 -0.8553  0.7509
  106OSM   H11T10852   5.558   3.015   9.281  0.0873  0.3144  1.1530
  106OSM   C12S10853   5.617   3.211   9.175  0.1234  0.3614 -0.0452
  106OSM   H12S10854   5.723   3.233   9.202 -0.1090  3.0077 -0.9418
  106OSM   H12T10855   5.567   3.310   9.162  0.7519  0.8833  1.3105
  106OSM   C13S10856   5.630   3.145   9.036  0.1964 -0.3869  0.3607
  106OSM   H13S10857   5.535   3.111   8.988 -0.5030  1.7022  0.1698
  106OSM   H13T10858   5.693   3.054   9.041 -0.0025 -0.4632  2.4003
  106OSM   C14S10859   5.687   3.238   8.919  0.9312  0.2605  0.5652
  106OSM   H14S10860   5.721   3.167   8.840  2.1001  2.3435 -0.8906
  106OSM   H14T10861   5.779   3.291   8.954  2.1607 -0.9923 -0.6399
  106OSM   C15S10862   5.591   3.345   8.863  0.1121 -0.2220 -0.5192
  106OSM   H15S10863   5.660   3.383   8.785 -2.0440 -0.3889 -2.6118
  106OSM   H15T10864   5.575   3.419   8.945  1.4458 -0.7106  0.2186
  106OSM   C16S10865   5.457   3.309   8.810 -0.3116 -0.0669 -0.0622
  106OSM   H16S10866   5.396   3.287   8.901  2.3064  2.2954  2.4771
  106OSM   H16T10867   5.455   3.211   8.757 -0.9321  1.6236 -3.4473
  106OSM   C17S10868   5.393   3.417   8.724 -0.0564  1.4176 -0.3891
  106OSM   H17S10869   5.382   3.512   8.782  2.5285  0.2982  2.1996
  106OSM   H17T10870   5.294   3.371   8.702 -0.4062  1.8848  0.1630
  106OSM   C18S10871   5.464   3.457   8.595  0.6437  0.0865  0.4040
  106OSM   H18S10872   5.547   3.524   8.626  2.8296 -2.0269 -0.6124
  106OSM   H18T10873   5.402   3.500   8.513  1.5131  0.3408 -0.1255
  106OSM   H18U10874   5.504   3.371   8.538  0.4908  0.2782  0.0021
  106OSM    C1F10875   5.287   2.944  10.135  0.9493 -0.1711 -0.0017
  106OSM     OF10876   5.217   2.943  10.238 -0.1958 -0.0218 -0.3920
  106OSM    C2F10877   5.241   2.873  10.020  0.1167 -0.0108  0.2280
  106OSM    H2F10878   5.146   2.820  10.046  0.4076 -2.0609 -2.4644
  106OSM    H2G10879   5.306   2.786   9.997 -1.2036 -0.9050 -0.2521
  106OSM    C3F10880   5.221   2.964   9.908 -0.5200 -0.1286  0.3241
  106OSM    H3F10881   5.314   2.996   9.857 -0.5153 -0.2882  0.2304
  106OSM    H3G10882   5.164   3.057   9.925 -1.4245 -0.8997  1.7309
  106OSM    C4F10883   5.139   2.888   9.804 -0.6254  0.0936  0.3332
  106OSM    H4F10884   5.031   2.882   9.832 -0.7814 -3.1120 -0.5911
  106OSM    H4G10885   5.179   2.785   9.797 -1.3560 -0.2709  1.1910
  106OSM    C5F10886   5.150   2.977   9.675  0.1781  0.6097  0.7913
  106OSM    H5F10887   5.254   2.991   9.642  0.2286  1.3228  1.2209
  106OSM    H5G10888   5.099   3.073   9.697 -1.7455 -0.6439  2.2584
  106OSM    C6F10889   5.079   2.905   9.560  0.5576  0.8201  0.0848
  106OSM    H6F10890   5.068   2.978   9.478  2.3854  1.9443  0.7764
  106OSM    H6G10891   4.980   2.863   9.587  0.4576 -0.9457 -2.6726
  106OSM    C7F10892   5.142   2.773   9.504 -0.6922 -0.6856 -0.2268
  106OSM    H7F10893   5.172   2.704   9.586  1.1140  1.0401  0.6495
  106OSM    H7G10894   5.240   2.809   9.464 -0.6050  0.6025  1.0509
  106OSM    C8F10895   5.061   2.708   9.395  0.4162 -0.1053  0.5726
  106OSM    H8F10896   5.042   2.782   9.314 -2.3699  1.7441  2.6976
  106OSM    H8G10897   4.959   2.678   9.429  0.2221  1.3591  1.3615
  106OSM    C9F10898   5.143   2.579   9.353 -0.3789  0.7482 -0.0234
  106OSM    H9F10899   5.160   2.507   9.434 -2.6998  0.2458  0.1036
  106OSM   C10F10900   5.183   2.555   9.230 -0.5769 -0.0032  0.0835
  106OSM   H10F10901   5.219   2.456   9.201  0.0991  0.5683 -1.0983
  106OSM   C11F10902   5.160   2.652   9.117  0.0340  0.7296  0.1340
  106OSM   H11F10903   5.163   2.759   9.147  0.5133 -0.2377  4.0278
  106OSM   H11G10904   5.057   2.631   9.082  0.4133 -1.9618  0.4739
  106OSM   C12F10905   5.246   2.615   8.995 -0.6256 -0.6073 -0.1856
  106OSM   H12F10906   5.267   2.506   8.995 -1.3757 -0.7557  0.0508
  106OSM   H12G10907   5.342   2.670   9.010  0.7102 -2.7781 -0.3047
  106OSM   C13F10908   5.194   2.663   8.859 -0.5593 -0.3583  0.1797
  106OSM   H13F10909   5.178   2.773   8.862  0.4959 -0.1138 -1.6397
  106OSM   H13G10910   5.099   2.611   8.837 -0.8582  0.1633  0.2147
  106OSM   C14F10911   5.299   2.630   8.746 -0.0988  0.0085  0.3873
  106OSM   H14F10912   5.315   2.521   8.737  0.5337  0.1178  0.1142
  106OSM   H14G10913   5.400   2.664   8.778 -0.2093 -0.2939  1.0808
  106OSM   C15F10914   5.268   2.691   8.612 -0.0476 -0.1070  0.4136
  106OSM   H15F10915   5.278   2.802   8.618 -0.1259  0.0099 -1.0842
  106OSM   H15G10916   5.164   2.660   8.591 -0.4239  1.1104  0.4255
  106OSM   C16F10917   5.351   2.644   8.493  0.1327 -0.3311 -0.3777
  106OSM   H16F10918   5.460   2.659   8.497  0.5987 -2.4714 -2.3298
  106OSM   H16G10919   5.314   2.710   8.412  1.4146  2.2026  1.0188
  106OSM   C17F10920   5.323   2.497   8.461  0.0658  0.0387 -0.4529
  106OSM   H17F10921   5.217   2.484   8.429 -0.0356  0.7831 -0.4276
  106OSM   H17G10922   5.324   2.428   8.548  2.2714  0.3627 -0.1431
  106OSM   C18F10923   5.405   2.432   8.348  0.1739 -0.7143  0.4401
  106OSM   H18F10924   5.511   2.410   8.375  0.4902 -0.1056 -0.2626
  106OSM   H18G10925   5.396   2.505   8.264 -2.0386  0.2588  1.4687
  106OSM   H18H10926   5.360   2.334   8.321 -1.4836  0.0043  0.5399
  107OSM      N10927   5.407   1.178  11.284  0.4131 -0.2918  0.5512
  107OSM    C1510928   5.318   1.074  11.254  0.7207  0.6378  0.6918
  107OSM   H15A10929   5.371   0.981  11.272 -0.1932  0.5923  3.6314
  107OSM   H15B10930   5.282   1.082  11.152 -0.8224  1.0937  1.2444
  107OSM   H15C10931   5.234   1.060  11.321 -1.1932  1.8505 -1.3145
  107OSM    C1410932   5.330   1.311  11.275 -0.9068 -0.2820  0.1307
  107OSM   H14A10933   5.254   1.305  11.352 -0.7420 -1.4645  0.2305
  107OSM   H14B10934   5.283   1.319  11.177  0.9243  4.1598 -0.6137
  107OSM   H14C10935   5.403   1.387  11.296  0.3235 -1.6900  1.1874
  107OSM    C1310936   5.470   1.162  11.420 -0.3754  0.1272 -0.5605
  107OSM   H13A10937   5.398   1.144  11.499 -0.9388  2.3098 -0.4941
  107OSM   H13B10938   5.529   1.249  11.444  1.3385 -1.0288 -0.4586
  107OSM   H13C10939   5.530   1.073  11.422  1.2903  1.2132  0.6084
  107OSM    C1210940   5.521   1.187  11.179  0.2557  0.7373 -0.5152
  107OSM   H12A10941   5.563   1.088  11.173  0.2566  0.7741 -1.1587
  107OSM   H12B10942   5.591   1.260  11.217 -1.5177  0.4350  4.0292
  107OSM    C1110943   5.484   1.233  11.032 -0.6966 -0.1777  0.5275
  107OSM   H11A10944   5.572   1.234  10.964 -0.0656  0.6172  1.3353
  107OSM   H11B10945   5.447   1.338  11.041 -0.1833 -0.0181  0.7807
  107OSM      P10946   5.328   1.168  10.839  0.3994  0.0956  0.3443
  107OSM    O1310947   5.251   1.045  10.807 -0.8917  0.7377 -0.4350
  107OSM    O1410948   5.260   1.301  10.849 -1.0469  0.2175  0.2463
  107OSM    O1110949   5.461   1.175  10.750  0.1735 -0.2125 -0.2310
  107OSM    O1210950   5.393   1.145  10.975  0.1192  0.7187 -1.2187
  107OSM    C1S10951   5.541   1.060  10.721 -0.4753 -0.2307  0.4001
  107OSM    H1S10952   5.485   0.969  10.750  0.7746 -1.4633 -0.9452
  107OSM    H1T10953   5.633   1.058  10.783 -0.5701  3.1378  0.8595
  107OSM     NF10954   5.644   0.940  10.541  0.2034 -0.2250  0.1010
  107OSM    HNF10955   5.743   0.943  10.552  0.1102 -0.5897  1.1465
  107OSM    C2S10956   5.575   1.064  10.568  0.1795 -0.3002  0.4203
  107OSM    H2S10957   5.482   1.061  10.508  0.7752  0.2565 -0.5645
  107OSM    C3S10958   5.649   1.198  10.533 -0.1312  0.2478  0.0267
  107OSM    H3S10959   5.744   1.204  10.590  0.1488 -0.5154 -0.3369
  107OSM     O310960   5.577   1.313  10.559 -0.3096 -0.4470 -0.2372
  107OSM    HO310961   5.515   1.277  10.622 -0.2667 -1.1019 -0.5587
  107OSM    C4S10962   5.688   1.198  10.385 -0.3924  0.1877 -0.6096
  107OSM    H4S10963   5.602   1.209  10.317  0.1007  0.9966 -1.1136
  107OSM    C5S10964   5.812   1.190  10.328 -0.1354 -1.0494  0.0994
  107OSM    H5S10965   5.903   1.174  10.387  2.0380  1.8361 -2.2084
  107OSM    C6S10966   5.842   1.193  10.177  0.2634 -0.7392 -0.0222
  107OSM    H6S10967   5.922   1.120  10.154 -1.0662 -2.7209  1.3965
  107OSM    H6T10968   5.882   1.294  10.151 -1.6147  0.3188  0.9865
  107OSM    C7S10969   5.733   1.162  10.074 -0.4266  0.5644 -0.1487
  107OSM    H7S10970   5.661   1.246  10.064 -0.3028  0.4666 -2.6220
  107OSM    H7T10971   5.678   1.072  10.108 -0.0309  0.6411  0.7131
  107OSM    C8S10972   5.787   1.148   9.928 -0.2378  0.6035  0.4447
  107OSM    H8S10973   5.868   1.071   9.926 -0.3523  0.4869  0.3195
  107OSM    H8T10974   5.830   1.248   9.906  1.4719 -0.4978 -1.6683
  107OSM    C9S10975   5.681   1.103   9.837  0.6158 -0.5924  0.1468
  107OSM    H9S10976   5.628   1.198   9.812  0.0157 -0.5852  1.3910
  107OSM    H9T10977   5.607   1.030   9.876 -0.4233 -0.3002 -1.1890
  107OSM   C10S10978   5.742   1.053   9.703  0.2342  0.0786  0.4214
  107OSM   H10S10979   5.769   0.946   9.712  1.2952  0.1275 -1.5434
  107OSM   H10T10980   5.833   1.107   9.670  0.9176 -0.9941  0.5009
  107OSM   C11S10981   5.642   1.060   9.592  0.1785  0.5348  0.2868
  107OSM   H11S10982   5.577   1.149   9.605 -0.3894  0.1590  0.0422
  107OSM   H11T10983   5.575   0.973   9.607  0.3346  0.1839 -0.9589
  107OSM   C12S10984   5.701   1.069   9.453 -0.0468  0.2113 -0.3791
  107OSM   H12S10985   5.769   0.982   9.446  0.0988  0.1078  1.6428
  107OSM   H12T10986   5.746   1.169   9.434  1.4905 -0.5671 -1.0057
  107OSM   C13S10987   5.593   1.065   9.349 -0.0471  0.5989 -0.0927
  107OSM   H13S10988   5.510   1.137   9.367  0.4308  1.0283  0.4196
  107OSM   H13T10989   5.556   0.965   9.377  2.9999 -0.0195  2.1925
  107OSM   C14S10990   5.641   1.086   9.201  0.4978  0.2885 -0.9457
  107OSM   H14S10991   5.705   0.999   9.175  0.1937 -0.2837  0.1673
  107OSM   H14T10992   5.710   1.172   9.188  2.5225 -0.7949  1.7309
  107OSM   C15S10993   5.521   1.099   9.098  0.3529  0.1870 -0.4676
  107OSM   H15S10994   5.464   1.195   9.097 -0.0230 -0.0295 -2.0266
  107OSM   H15T10995   5.450   1.024   9.139  0.3186  0.1903 -0.5219
  107OSM   C16S10996   5.553   1.057   8.957 -0.3279  0.0479  0.2425
  107OSM   H16S10997   5.597   0.955   8.957 -1.7044 -0.5850 -0.8864
  107OSM   H16T10998   5.631   1.130   8.926  0.8344 -1.5696 -0.8004
  107OSM   C17S10999   5.433   1.068   8.860  0.1030 -0.0968 -0.5968
  107OSM   H17S11000   5.423   1.173   8.826  0.1892  0.3426  0.7020
  107OSM   H17T11001   5.334   1.044   8.905 -0.5369  0.5919 -1.5830
  107OSM   C18S11002   5.453   0.984   8.738  0.2408 -0.5462  0.1425
  107OSM   H18S11003   5.491   0.883   8.765 -0.0639 -0.9092 -0.7200
  107OSM   H18T11004   5.528   1.038   8.676 -0.8860  0.3026 -0.5296
  107OSM   H18U11005   5.351   0.982   8.693  0.4973  0.1785 -0.4912
  107OSM    C1F11006   5.576   0.825  10.550 -0.1161  0.1690 -0.7219
  107OSM     OF11007   5.453   0.828  10.545 -0.2795  0.1473  0.4402
  107OSM    C2F11008   5.667   0.702  10.568 -0.2008  0.2464 -0.0621
  107OSM    H2F11009   5.650   0.658  10.669  1.1108 -0.5466 -0.1552
  107OSM    H2G11010   5.775   0.726  10.558 -0.1806 -0.4099 -1.7429
  107OSM    C3F11011   5.638   0.583  10.471 -0.8528 -0.2148  0.5249
  107OSM    H3F11012   5.653   0.618  10.366 -0.2820  0.7129  0.9039
  107OSM    H3G11013   5.533   0.558  10.494 -1.9093  2.9457 -0.3935
  107OSM    C4F11014   5.744   0.465  10.491  0.0154  0.2251  0.5081
  107OSM    H4F11015   5.722   0.423  10.591  0.2065  1.9514  1.3060
  107OSM    H4G11016   5.847   0.505  10.478 -0.5319  1.1285 -1.4650
  107OSM    C5F11017   5.716   0.365  10.380  0.2132  0.0885  0.2173
  107OSM    H5F11018   5.705   0.416  10.282 -1.5612 -0.7456 -0.0683
  107OSM    H5G11019   5.616   0.317  10.394  0.9739 -1.7236 -0.2573
  107OSM    C6F11020   5.814   0.247  10.358 -0.3198  0.2138  0.0218
  107OSM    H6F11021   5.793   0.171  10.436 -2.3807 -0.2819 -0.9445
  107OSM    H6G11022   5.922   0.274  10.359 -0.3512  0.5045 -1.4085
  107OSM    C7F11023   5.789   0.174  10.223  0.1472 -0.4128 -0.0217
  107OSM    H7F11024   5.779   0.252  10.144 -1.3181 -2.5937 -2.1631
  107OSM    H7G11025   5.686   0.134  10.234 -1.5421  3.3691 -0.4685
  107OSM    C8F11026   5.897   0.071  10.179  0.6394 -0.3171 -0.5679
  107OSM    H8F11027   5.852   0.022  10.091 -1.1963  1.1391 -0.5195
  107OSM    H8G11028   5.903  -0.010  10.255 -0.0019  0.8856  0.8292
  107OSM    C9F11029   6.031   0.132  10.160  0.2687  0.7322  0.0073
  107OSM    H9F11030   6.091   0.156  10.249  1.7928 -1.1028 -0.4657
  107OSM   C10F11031   6.097   0.142  10.042  0.1442 -0.5534  0.0281
  107OSM   H10F11032   6.189   0.201  10.038 -0.1490 -0.0860  0.1886
  107OSM   C11F11033   6.046   0.100   9.902  0.1094 -0.3336  0.0313
  107OSM   H11F11034   5.936   0.084   9.904 -0.4968  3.1331  1.8595
  107OSM   H11G11035   6.094   0.004   9.871  0.1941 -0.8926  1.7998
  107OSM   C12F11036   6.070   0.216   9.799 -0.6805  0.1384 -0.6684
  107OSM   H12F11037   6.177   0.240   9.814 -0.0448 -2.8953  0.4109
  107OSM   H12G11038   6.016   0.311   9.822 -1.5916  0.0738 -2.3496
  107OSM   C13F11039   6.052   0.174   9.660  0.2629 -0.2076  0.4446
  107OSM   H13F11040   5.943   0.169   9.642  0.4349 -1.0817 -0.4602
  107OSM   H13G11041   6.082   0.067   9.648 -2.3477 -1.1021  1.2624
  107OSM   C14F11042   6.116   0.257   9.546 -0.3310 -0.6632  0.0561
  107OSM   H14F11043   6.223   0.276   9.569 -0.5112 -1.6327  2.0021
  107OSM   H14G11044   6.067   0.355   9.565 -0.8160 -1.1904  1.8166
  107OSM   C15F11045   6.094   0.208   9.406 -0.2306 -0.2218  0.2941
  107OSM   H15F11046   5.987   0.187   9.383 -0.4837 -0.9770  1.9749
  107OSM   H15G11047   6.156   0.115   9.403  1.6437  0.9754  0.6266
  107OSM   C16F11048   6.145   0.318   9.312  0.3460 -0.1950  0.2355
  107OSM   H16F11049   6.231   0.364   9.365 -0.5669  1.8503  0.0146
  107OSM   H16G11050   6.065   0.394   9.321 -0.5085 -1.2973  2.5584
  107OSM   C17F11051   6.165   0.278   9.163 -0.2795 -0.3288 -0.2992
  107OSM   H17F11052   6.208   0.368   9.113 -1.2769 -0.8022 -2.1216
  107OSM   H17G11053   6.074   0.268   9.099  0.2609 -2.2450 -0.8247
  107OSM   C18F11054   6.258   0.157   9.144  0.1038 -0.2660  0.1615
  107OSM   H18F11055   6.284   0.147   9.037  0.4843  1.2027  0.0967
  107OSM   H18G11056   6.212   0.069   9.194  2.8124 -0.8295  1.9081
  107OSM   H18H11057   6.356   0.177   9.192  0.2846 -0.7578  0.0085
  108OSM      N11058   2.540   0.162  11.288  0.1255 -0.2708 -0.0904
  108OSM    C1511059   2.555   0.193  11.435  0.1494  0.7462  0.4648
  108OSM   H15A11060   2.462   0.228  11.476 -1.4601 -1.8797 -0.7226
  108OSM   H15B11061   2.632   0.269  11.440  0.7316  0.2075 -0.1613
  108OSM   H15C11062   2.593   0.109  11.491  2.0824  0.1696 -1.5421
  108OSM    C1411063   2.671   0.126  11.223  0.3279  0.7312  0.7157
  108OSM   H14A11064   2.658   0.093  11.120  1.8744 -0.2426  0.7921
  108OSM   H14B11065   2.728   0.054  11.279  0.2730 -0.0557 -0.2041
  108OSM   H14C11066   2.721   0.220  11.207  1.6915 -0.1100 -0.1857
  108OSM    C1311067   2.452   0.038  11.280  0.0203  0.1061 -0.4056
  108OSM   H13A11068   2.506  -0.038  11.333 -0.9284  0.1926  0.7162
  108OSM   H13B11069   2.427   0.013  11.178 -0.5853  1.0117 -0.4955
  108OSM   H13C11070   2.362   0.064  11.334  0.4792  1.3579 -0.1914
  108OSM    C1211071   2.471   0.272  11.215 -0.0462  0.2569  0.4613
  108OSM   H12A11072   2.542   0.353  11.212 -0.0726  0.2725  0.2307
  108OSM   H12B11073   2.378   0.304  11.260 -1.1639 -2.7322  0.5208
  108OSM    C1111074   2.443   0.242  11.059 -0.1066 -0.1038  0.2102
  108OSM   H11A11075   2.528   0.195  11.005 -1.8909 -2.4148 -0.7611
  108OSM   H11B11076   2.435   0.341  11.010  2.1273 -0.5997 -1.2910
  108OSM      P11077   2.181   0.221  11.008 -0.3237  0.0371  0.0083
  108OSM    O1311078   2.081   0.118  11.043 -0.0501 -0.0667 -0.6269
  108OSM    O1411079   2.165   0.350  11.072  0.4106 -0.5539 -0.2375
  108OSM    O1111080   2.176   0.239  10.848 -0.1133 -0.7611 -0.6602
  108OSM    O1211081   2.330   0.166  11.037 -0.2458 -0.0443  0.2705
  108OSM    C1S11082   2.267   0.171  10.761 -0.1002 -0.2486 -0.5014
  108OSM    H1S11083   2.246   0.061  10.757  0.4429 -0.3321 -3.2807
  108OSM    H1T11084   2.369   0.203  10.790  0.0684  0.6104 -1.9588
  108OSM     NF11085   2.308   0.143  10.525 -0.2682  0.9602  0.2449
  108OSM    HNF11086   2.405   0.165  10.522  0.1550 -0.8703 -1.2342
  108OSM    C2S11087   2.231   0.224  10.615  0.1496 -0.3731  0.0291
  108OSM    H2S11088   2.123   0.210  10.592 -0.1274  0.7471  0.5632
  108OSM    C3S11089   2.271   0.372  10.606  0.1677 -0.1091  0.6703
  108OSM    H3S11090   2.379   0.373  10.631  0.2216  2.6071  0.5707
  108OSM     O311091   2.205   0.462  10.697 -0.3888  0.4838  0.6500
  108OSM    HO311092   2.161   0.401  10.756 -1.4414 -1.2271 -1.7166
  108OSM    C4S11093   2.256   0.419  10.463 -0.6496 -0.1621 -0.1291
  108OSM    H4S11094   2.339   0.398  10.395  0.0935 -2.2018  1.3119
  108OSM    C5S11095   2.144   0.469  10.411 -0.1794 -0.3924 -0.6959
  108OSM    H5S11096   2.060   0.477  10.482  0.4609 -0.8139  0.1430
  108OSM    C6S11097   2.115   0.520  10.272  0.3276 -0.1191 -0.1683
  108OSM    H6S11098   2.115   0.631  10.276 -1.9384 -0.0935 -0.0959
  108OSM    H6T11099   2.017   0.480  10.241  0.7977 -2.0597  0.6857
  108OSM    C7S11100   2.222   0.489  10.165  0.1342  0.4018 -0.4526
  108OSM    H7S11101   2.321   0.519  10.207 -0.1075  1.5261 -0.6767
  108OSM    H7T11102   2.207   0.544  10.070  1.0164 -0.4397 -1.0984
  108OSM    C8S11103   2.232   0.339  10.125 -0.6603  0.2171 -0.7065
  108OSM    H8S11104   2.129   0.320  10.087 -0.0816  0.3835 -2.4643
  108OSM    H8T11105   2.256   0.282  10.217 -1.6619 -3.6599 -2.5936
  108OSM    C9S11106   2.330   0.316  10.012  0.7596  0.5124 -0.0610
  108OSM    H9S11107   2.435   0.344  10.036  0.1952  2.0786  0.6613
  108OSM    H9T11108   2.298   0.390   9.937  0.3867  1.9856  1.5023
  108OSM   C10S11109   2.320   0.173   9.949  0.4863 -0.2954 -0.1886
  108OSM   H10S11110   2.212   0.150   9.939  0.8638 -2.5856  0.3513
  108OSM   H10T11111   2.364   0.104  10.025  0.0506 -0.3822 -0.0159
  108OSM   C11S11112   2.391   0.150   9.820  0.5231  0.7010  0.4851
  108OSM   H11S11113   2.497   0.167   9.848  1.2105 -1.6039 -0.5058
  108OSM   H11T11114   2.360   0.222   9.742  0.3700  0.3758  0.2421
  108OSM   C12S11115   2.365   0.006   9.767 -0.0547 -0.4517  0.3100
  108OSM   H12S11116   2.270   0.015   9.710  1.0280  0.3584 -1.4143
  108OSM   H12T11117   2.345  -0.068   9.848 -1.7867  0.7290  1.0437
  108OSM   C13S11118   2.484  -0.026   9.679 -0.0038  0.8659  0.0564
  108OSM   H13S11119   2.562  -0.040   9.757  0.9358 -1.1555 -1.1634
  108OSM   H13T11120   2.503   0.064   9.615 -0.2220 -0.1371 -1.4850
  108OSM   C14S11121   2.473  -0.153   9.596 -1.0673  0.2524  0.4758
  108OSM   H14S11122   2.568  -0.167   9.540  0.8705 -0.3313  3.6551
  108OSM   H14T11123   2.389  -0.144   9.523 -1.1651 -2.1206  0.1920
  108OSM   C15S11124   2.444  -0.283   9.673  0.3911  0.0797  0.3527
  108OSM   H15S11125   2.361  -0.279   9.746  0.4822 -0.0777  0.4665
  108OSM   H15T11126   2.534  -0.287   9.739  1.5023  1.1051 -1.0102
  108OSM   C16S11127   2.435  -0.392   9.577 -0.0744  0.7775 -0.6709
  108OSM   H16S11128   2.456  -0.490   9.625  2.2218  1.4800 -0.1308
  108OSM   H16T11129   2.513  -0.372   9.500 -1.8651  1.0774 -2.5038
  108OSM   C17S11130   2.294  -0.407   9.510  0.1002  1.0532  0.1836
  108OSM   H17S11131   2.256  -0.317   9.458 -1.6567 -0.4232 -1.2496
  108OSM   H17T11132   2.222  -0.419   9.594 -0.4927 -0.9783 -0.5471
  108OSM   C18S11133   2.272  -0.527   9.409  0.4836 -0.6128 -0.1134
  108OSM   H18S11134   2.298  -0.627   9.449 -0.3043 -1.5593 -1.8305
  108OSM   H18T11135   2.335  -0.518   9.318 -0.4774  0.0064 -0.7419
  108OSM   H18U11136   2.169  -0.535   9.368  0.4425 -0.6470 -0.0029
  108OSM    C1F11137   2.274   0.021  10.481 -0.0984 -0.3232  0.0557
  108OSM     OF11138   2.153  -0.006  10.491  0.5648 -0.0346  0.3067
  108OSM    C2F11139   2.374  -0.074  10.424  0.1848  0.2283 -0.2538
  108OSM    H2F11140   2.476  -0.056  10.466 -0.3238  1.3298  0.5641
  108OSM    H2G11141   2.386  -0.055  10.315  0.4382 -1.5319 -0.5583
  108OSM    C3F11142   2.339  -0.226  10.442 -0.1812  0.2853  0.4694
  108OSM    H3F11143   2.233  -0.242  10.414 -0.3933  0.7493  0.9985
  108OSM    H3G11144   2.359  -0.253  10.547 -0.8727 -6.0057 -0.6394
  108OSM    C4F11145   2.425  -0.317  10.346 -0.0115  0.3804 -0.4071
  108OSM    H4F11146   2.376  -0.295  10.248  0.2352  1.8784 -0.2201
  108OSM    H4G11147   2.410  -0.422  10.377  1.0992  0.8598  1.9327
  108OSM    C5F11148   2.571  -0.282  10.340 -0.3351  0.2725  0.3236
  108OSM    H5F11149   2.620  -0.317  10.433  0.2617 -0.1994 -0.1591
  108OSM    H5G11150   2.581  -0.172  10.325  0.3219  0.2319  0.4538
  108OSM    C6F11151   2.626  -0.356  10.211 -0.3952  0.3221  0.4770
  108OSM    H6F11152   2.574  -0.317  10.121 -0.0126  0.8479  0.4749
  108OSM    H6G11153   2.601  -0.464  10.220  1.1178  0.0191  1.4815
  108OSM    C7F11154   2.773  -0.337  10.200  0.4132 -0.7258  0.2849
  108OSM    H7F11155   2.829  -0.390  10.280 -2.3331 -2.0557  1.4421
  108OSM    H7G11156   2.805  -0.231  10.199 -0.3910 -0.4688 -1.2875
  108OSM    C8F11157   2.827  -0.398  10.062  0.4748 -1.3398 -0.6719
  108OSM    H8F11158   2.937  -0.381  10.064  0.4220 -1.0435  0.8596
  108OSM    H8G11159   2.780  -0.333   9.985  0.5367  1.5900  1.6002
  108OSM    C9F11160   2.799  -0.542  10.062  0.2970 -0.2534 -0.0181
  108OSM    H9F11161   2.830  -0.593  10.154 -2.7954 -1.5928  0.3809
  108OSM   C10F11162   2.753  -0.610   9.953  0.7345  0.5197  0.3722
  108OSM   H10F11163   2.717  -0.713   9.968 -0.5967  1.0870  1.3285
  108OSM   C11F11164   2.721  -0.544   9.818  0.1733  0.0755 -0.1009
  108OSM   H11F11165   2.797  -0.465   9.799 -0.9294  1.0687 -0.5251
  108OSM   H11G11166   2.615  -0.512   9.807 -0.1901  0.1305  2.7348
  108OSM   C12F11167   2.758  -0.652   9.708  0.5286  0.3938 -0.9735
  108OSM   H12F11168   2.685  -0.736   9.716  1.9441 -0.7877  0.0019
  108OSM   H12G11169   2.860  -0.694   9.715  0.3101 -0.5853 -2.8754
  108OSM   C13F11170   2.762  -0.579   9.574 -0.0073 -0.4057 -0.0884
  108OSM   H13F11171   2.846  -0.507   9.561  0.0150 -0.5362 -0.7053
  108OSM   H13G11172   2.670  -0.522   9.551  1.5930  1.8025 -1.4669
  108OSM   C14F11173   2.782  -0.679   9.460  0.7586  0.1299  0.5357
  108OSM   H14F11174   2.720  -0.768   9.485  2.4981 -1.0986  0.6876
  108OSM   H14G11175   2.892  -0.698   9.462  0.7124 -0.6194 -1.7549
  108OSM   C15F11176   2.761  -0.636   9.315  0.0327  0.6297  0.6418
  108OSM   H15F11177   2.812  -0.715   9.256 -0.7602  0.5768 -0.0038
  108OSM   H15G11178   2.818  -0.542   9.298  0.0285  0.4581 -0.3822
  108OSM   C16F11179   2.621  -0.607   9.278 -0.9419 -0.1396 -0.4452
  108OSM   H16F11180   2.583  -0.543   9.361 -3.0908 -1.7436 -0.1000
  108OSM   H16G11181   2.555  -0.696   9.284  1.3653 -1.9120  0.3585
  108OSM   C17F11182   2.611  -0.538   9.136  0.1387  0.0014  0.2693
  108OSM   H17F11183   2.503  -0.551   9.112  0.4851 -1.2921 -0.7167
  108OSM   H17G11184   2.664  -0.597   9.058 -1.5420  1.1060 -1.8054
  108OSM   C18F11185   2.657  -0.395   9.111  0.1541  0.1280  0.0027
  108OSM   H18F11186   2.762  -0.374   9.139  0.2188  0.0164 -0.1542
  108OSM   H18G11187   2.585  -0.322   9.153 -0.6454 -1.5384  1.6596
  108OSM   H18H11188   2.648  -0.376   9.002  1.9844 -1.9988 -0.5968
  109OSM      N11189   3.284   2.057  10.755  0.2608  0.2781  0.3495
  109OSM    C1511190   3.350   2.160  10.832 -0.3017 -0.5283 -0.6792
  109OSM   H15A11191   3.443   2.185  10.783  0.3725 -1.1556  0.2489
  109OSM   H15B11192   3.371   2.132  10.935 -2.6615  2.1353  0.6834
  109OSM   H15C11193   3.279   2.242  10.835 -0.1378 -0.1582 -4.0118
  109OSM    C1411194   3.378   1.945  10.761  0.2529  0.9704  0.3441
  109OSM   H14A11195   3.467   1.987  10.716  0.8577  0.6879  1.2571
  109OSM   H14B11196   3.361   1.864  10.692 -1.3378  1.4787  0.0901
  109OSM   H14C11197   3.407   1.921  10.862  0.3205 -0.6273 -0.0322
  109OSM    C1311198   3.161   2.000  10.821  0.0421 -0.4242 -0.2796
  109OSM   H13A11199   3.087   2.079  10.812  1.4582  1.1543  1.0997
  109OSM   H13B11200   3.179   1.973  10.924 -0.8468 -0.3388 -0.0917
  109OSM   H13C11201   3.125   1.909  10.776  2.4191 -1.0826 -0.9978
  109OSM    C1211202   3.260   2.107  10.613  0.3141  0.3526 -0.5505
  109OSM   H12A11203   3.215   2.205  10.617  1.6256  0.9755 -0.6452
  109OSM   H12B11204   3.188   2.055  10.551  0.7488  1.5599 -2.1401
  109OSM    C1111205   3.391   2.139  10.523  0.2354 -0.0077 -0.8510
  109OSM   H11A11206   3.460   2.198  10.587 -0.0349  1.6779 -2.0620
  109OSM   H11B11207   3.367   2.198  10.432  0.4251  1.2287 -0.1209
  109OSM      P11208   3.392   1.906  10.391 -0.1123  0.3992  0.1981
  109OSM    O1311209   3.436   1.778  10.448 -0.2684  0.0930 -0.3917
  109OSM    O1411210   3.251   1.928  10.369  0.1902 -0.4920 -0.1531
  109OSM    O1111211   3.467   1.930  10.251  0.3482  0.5207 -0.4965
  109OSM    O1211212   3.457   2.019  10.482 -0.2037 -0.4741 -0.0001
  109OSM    C1S11213   3.610   1.895  10.230 -0.2589 -0.7523  0.0471
  109OSM    H1S11214   3.659   1.839  10.313  2.5259 -1.4360 -1.9385
  109OSM    H1T11215   3.661   1.993  10.227 -2.0567  0.2005 -1.1915
  109OSM     NF11216   3.795   1.798  10.105 -0.7527 -0.1086 -0.2342
  109OSM    HNF11217   3.844   1.864  10.049  0.7571 -0.7617  0.2543
  109OSM    C2S11218   3.653   1.810  10.104 -0.0367 -0.1487  0.0635
  109OSM    H2S11219   3.613   1.707  10.121  1.2461 -0.4099  1.7814
  109OSM    C3S11220   3.597   1.875   9.975  0.0852 -0.2960  0.9003
  109OSM    H3S11221   3.643   1.972   9.945  1.0638 -1.1529 -0.4527
  109OSM     O311222   3.457   1.903   9.987  0.4304 -0.2612 -0.0254
  109OSM    HO311223   3.432   1.911  10.079  0.9987 -1.1512  0.2119
  109OSM    C4S11224   3.621   1.798   9.845 -1.0418 -0.1931 -0.5585
  109OSM    H4S11225   3.550   1.717   9.821 -0.2173 -0.4793 -2.1664
  109OSM    C5S11226   3.719   1.824   9.761  0.0892 -0.1328  0.5851
  109OSM    H5S11227   3.787   1.908   9.781 -0.9328  0.6187  0.9333
  109OSM    C6S11228   3.753   1.762   9.629  0.4739  0.5003  0.0388
  109OSM    H6S11229   3.709   1.660   9.625 -1.3936  1.2601 -0.0442
  109OSM    H6T11230   3.861   1.745   9.610  0.1721  0.8334 -2.2995
  109OSM    C7S11231   3.684   1.839   9.513 -0.3764 -0.5147  0.2008
  109OSM    H7S11232   3.728   1.941   9.512  1.5217 -1.2703 -1.5508
  109OSM    H7T11233   3.576   1.857   9.528 -0.4172  0.9011 -1.4290
  109OSM    C8S11234   3.720   1.768   9.377  0.4880 -0.3590 -0.3785
  109OSM    H8S11235   3.661   1.673   9.378  1.6281 -1.0975 -1.1711
  109OSM    H8T11236   3.829   1.748   9.377  0.8009  1.2335 -0.6066
  109OSM    C9S11237   3.692   1.860   9.259 -0.2308 -0.5998 -0.2387
  109OSM    H9S11238   3.762   1.944   9.276  0.8349 -0.6077 -3.7519
  109OSM    H9T11239   3.589   1.899   9.270  0.5146  1.0032  1.7961
  109OSM   C10S11240   3.723   1.796   9.123  0.4610 -0.3944 -0.2964
  109OSM   H10S11241   3.642   1.720   9.114  0.5753 -0.8225  1.7038
  109OSM   H10T11242   3.817   1.738   9.129  1.1259  0.0997 -3.8687
  109OSM   C11S11243   3.711   1.897   9.011  0.0674 -0.4766 -0.4176
  109OSM   H11S11244   3.749   1.997   9.040  0.9799 -1.3487  1.6116
  109OSM   H11T11245   3.603   1.911   8.991  0.3667 -1.7120 -3.3209
  109OSM   C12S11246   3.771   1.845   8.880 -0.0766 -0.5577 -0.0024
  109OSM   H12S11247   3.724   1.747   8.855  0.9338 -0.6679 -1.6569
  109OSM   H12T11248   3.880   1.831   8.898 -0.1830 -0.5519  0.6617
  109OSM   C13S11249   3.755   1.941   8.765 -0.1070 -0.3114  0.7607
  109OSM   H13S11250   3.812   2.035   8.781 -0.7037  0.6273 -2.0513
  109OSM   H13T11251   3.649   1.970   8.750 -0.5468 -1.4318  1.5867
  109OSM   C14S11252   3.801   1.874   8.628  0.0070  0.2241 -0.3337
  109OSM   H14S11253   3.725   1.800   8.594  1.4645 -1.3781 -0.2546
  109OSM   H14T11254   3.897   1.819   8.642  1.6190  3.1737  1.0393
  109OSM   C15S11255   3.808   1.970   8.505 -0.3686  0.2513 -0.9733
  109OSM   H15S11256   3.881   2.049   8.532  1.2851 -1.7060  0.6331
  109OSM   H15T11257   3.709   2.021   8.515 -0.3010 -0.0974  2.7252
  109OSM   C16S11258   3.835   1.919   8.364 -0.6117 -0.2723 -0.5654
  109OSM   H16S11259   3.799   1.994   8.290 -3.4323 -0.8748  0.0620
  109OSM   H16T11260   3.777   1.829   8.335  0.9104 -0.7297 -2.3390
  109OSM   C17S11261   3.988   1.897   8.342  0.5135  0.2647 -0.3862
  109OSM   H17S11262   4.016   1.834   8.429  2.0398  0.1951 -0.9002
  109OSM   H17T11263   4.043   1.993   8.348 -0.0507  0.5283  1.1265
  109OSM   C18S11264   4.020   1.817   8.216  0.5080 -0.9025  0.8899
  109OSM   H18S11265   4.127   1.787   8.221  0.8121 -0.0206  0.0087
  109OSM   H18T11266   3.995   1.877   8.126 -0.8399 -0.9886  1.1772
  109OSM   H18U11267   3.953   1.728   8.212 -1.1258  0.2778 -3.2493
  109OSM    C1F11268   3.855   1.687  10.155  0.1529  0.0860 -0.0762
  109OSM     OF11269   3.787   1.604  10.211 -0.0772  0.1202 -0.3248
  109OSM    C2F11270   3.999   1.666  10.135 -1.2397 -0.8441  0.3136
  109OSM    H2F11271   4.054   1.649  10.230 -1.2785 -1.3455  0.2464
  109OSM    H2G11272   4.052   1.754  10.093 -1.2106  0.2447  2.4613
  109OSM    C3F11273   4.040   1.553  10.040  0.0852 -0.7557 -0.6940
  109OSM    H3F11274   3.998   1.584   9.941 -0.1614  2.8248  0.3592
  109OSM    H3G11275   4.003   1.457  10.080  2.6464 -0.7212  2.0545
  109OSM    C4F11276   4.190   1.533  10.034  0.2851 -0.4652 -0.2388
  109OSM    H4F11277   4.224   1.483  10.127  1.3226 -1.9621 -1.3767
  109OSM    H4G11278   4.245   1.628  10.019 -0.9945  0.7817  2.2373
  109OSM    C5F11279   4.225   1.436   9.925  0.0545  0.2821  0.1240
  109OSM    H5F11280   4.149   1.469   9.850 -1.2921  1.7343  2.0040
  109OSM    H5G11281   4.207   1.332   9.957 -0.3160  0.3111  0.0162
  109OSM    C6F11282   4.369   1.460   9.874 -0.0943  0.5197 -0.3573
  109OSM    H6F11283   4.443   1.426   9.949 -0.2957 -1.0327 -0.8355
  109OSM    H6G11284   4.402   1.566   9.863 -0.6596  0.8191  0.7824
  109OSM    C7F11285   4.407   1.397   9.742  0.6408  0.3657 -0.1924
  109OSM    H7F11286   4.353   1.435   9.653  2.9439  0.0595 -1.8187
  109OSM    H7G11287   4.375   1.290   9.743 -1.4760  0.9576  0.4310
  109OSM    C8F11288   4.552   1.428   9.704  0.2854  0.1273  0.7713
  109OSM    H8F11289   4.608   1.386   9.790 -2.6702 -4.4758  0.7685
  109OSM    H8G11290   4.582   1.535   9.703 -0.8785  0.4649  0.7812
  109OSM    C9F11291   4.590   1.343   9.581  0.2812  0.1783  0.9502
  109OSM    H9F11292   4.649   1.254   9.606  1.3443  0.3265 -0.8158
  109OSM   C10F11293   4.573   1.370   9.447  0.3155  0.1033 -0.2156
  109OSM   H10F11294   4.616   1.301   9.374  0.0997  0.3914 -0.6184
  109OSM   C11F11295   4.511   1.496   9.401 -0.3648 -0.9023  0.9164
  109OSM   H11F11296   4.586   1.573   9.373 -0.2105 -0.9186  1.2911
  109OSM   H11G11297   4.437   1.529   9.477 -0.8807  0.6872 -0.2104
  109OSM   C12F11298   4.435   1.468   9.271  0.3281  0.3258  0.1659
  109OSM   H12F11299   4.372   1.553   9.237  1.6663  1.2193 -0.1345
  109OSM   H12G11300   4.365   1.381   9.280 -1.2441  1.6141  0.8614
  109OSM   C13F11301   4.531   1.433   9.153 -0.4028  0.0698 -0.1004
  109OSM   H13F11302   4.620   1.389   9.203  0.4785  2.1761  0.3010
  109OSM   H13G11303   4.580   1.522   9.108  3.2802 -1.4727  0.5168
  109OSM   C14F11304   4.462   1.352   9.042 -0.1522  0.1009  1.3073
  109OSM   H14F11305   4.407   1.263   9.080  0.6925 -1.2996 -0.5546
  109OSM   H14G11306   4.541   1.313   8.975 -1.3550 -1.6726  0.8452
  109OSM   C15F11307   4.366   1.430   8.952  0.2876  0.6253 -0.2962
  109OSM   H15F11308   4.425   1.513   8.907  0.4072 -0.4737 -2.2806
  109OSM   H15G11309   4.276   1.466   9.006  1.5298  2.2324  0.7968
  109OSM   C16F11310   4.318   1.347   8.837 -0.2868  0.9301  1.3192
  109OSM   H16F11311   4.234   1.399   8.788 -1.0741  0.5121  2.1998
  109OSM   H16G11312   4.288   1.246   8.872  0.2797  0.4664  0.4888
  109OSM   C17F11313   4.431   1.343   8.726  0.7659  0.1335  0.2390
  109OSM   H17F11314   4.509   1.265   8.743 -0.6604 -0.9897  1.9053
  109OSM   H17G11315   4.466   1.448   8.732 -1.0110  1.0051 -2.5743
  109OSM   C18F11316   4.380   1.332   8.582  0.0250  0.9516 -0.0026
  109OSM   H18F11317   4.475   1.313   8.527  0.6304 -1.1102  1.6271
  109OSM   H18G11318   4.318   1.423   8.565  0.5951  1.3832  0.2538
  109OSM   H18H11319   4.323   1.237   8.569  2.4545 -0.8013  1.3713
  110OSM      N11320   0.008   4.311  10.789  0.5221 -0.3595 -0.1327
  110OSM    C1511321   0.014   4.238  10.659  0.1095  0.2428  0.3761
  110OSM   H15A11322  -0.085   4.199  10.637 -0.3006  1.0302  0.7745
  110OSM   H15B11323   0.078   4.152  10.647 -2.2193 -1.6259  0.6265
  110OSM   H15C11324   0.048   4.313  10.589  0.0958 -0.8291 -0.8185
  110OSM    C1411325  -0.036   4.228  10.906 -0.0574 -0.4990 -0.2090
  110OSM   H14A11326  -0.130   4.188  10.871  0.4435  0.8271 -3.3451
  110OSM   H14B11327  -0.045   4.289  10.995 -0.3411 -0.4458 -0.2755
  110OSM   H14C11328   0.042   4.159  10.935  0.4122 -0.0089 -0.3031
  110OSM    C1311329   0.151   4.357  10.810 -0.3884  0.4398 -0.1427
  110OSM   H13A11330   0.185   4.434  10.741  0.4189  0.8116  0.6481
  110OSM   H13B11331   0.222   4.276  10.809 -1.0259 -0.4086  4.0707
  110OSM   H13C11332   0.157   4.406  10.906 -1.1291 -0.9599  0.6412
  110OSM    C1211333  -0.078   4.440  10.774 -0.2874 -0.2397 -1.3924
  110OSM   H12A11334  -0.019   4.507  10.713  1.1575  1.0519  1.2863
  110OSM   H12B11335  -0.095   4.485  10.871  0.3857 -0.4705 -1.1694
  110OSM    C1111336  -0.216   4.421  10.711 -0.3868  0.4410 -0.3316
  110OSM   H11A11337  -0.187   4.392  10.608  0.0449  2.5185 -0.8369
  110OSM   H11B11338  -0.257   4.522  10.730  1.9547  1.0714  1.9311
  110OSM      P11339  -0.440   4.346  10.833  0.0073 -0.3981  0.1477
  110OSM    O1311340  -0.473   4.243  10.936  0.3537  0.2999  0.0118
  110OSM    O1411341  -0.444   4.484  10.878  0.8152 -0.3969 -0.3553
  110OSM    O1111342  -0.540   4.329  10.718  0.4556  0.6031  0.0914
  110OSM    O1211343  -0.302   4.313  10.763 -0.4381 -0.1116 -0.3483
  110OSM    C1S11344  -0.523   4.402  10.594  0.0898 -0.1787 -0.2082
  110OSM    H1S11345  -0.420   4.409  10.553  1.2347 -2.2808  2.0439
  110OSM    H1T11346  -0.573   4.501  10.608 -0.8118 -0.6497  0.0092
  110OSM     NF11347  -0.579   4.374  10.350  0.5174  0.8154  0.3743
  110OSM    HNF11348  -0.651   4.428  10.306 -2.0636 -1.7910  1.0470
  110OSM    C2S11349  -0.612   4.342  10.483  0.4656  0.2275  0.6690
  110OSM    H2S11350  -0.597   4.232  10.485  0.9956  0.2639  3.7203
  110OSM    C3S11351  -0.762   4.369  10.518  0.1475 -0.3883  0.1100
  110OSM    H3S11352  -0.785   4.477  10.524 -3.4645 -0.7509 -3.4044
  110OSM     O311353  -0.798   4.323  10.649  0.6250 -0.2159 -0.2962
  110OSM    HO311354  -0.710   4.321  10.689  0.9638  3.0728 -0.5746
  110OSM    C4S11355  -0.854   4.306  10.404  0.4144 -0.6219 -0.1965
  110OSM    H4S11356  -0.880   4.383  10.330  1.4543  0.2927  0.3741
  110OSM    C5S11357  -0.897   4.179  10.396  0.4789  0.4309 -0.1078
  110OSM    H5S11358  -0.884   4.118  10.487 -2.3375  1.6824  1.2816
  110OSM    C6S11359  -0.990   4.127  10.286 -0.4100 -0.8783 -0.2268
  110OSM    H6S11360  -1.093   4.122  10.329 -0.3710  1.1677  0.2072
  110OSM    H6T11361  -0.968   4.024  10.251  0.2848 -0.6852 -0.3630
  110OSM    C7S11362  -0.984   4.201  10.150 -0.4065  0.0806 -0.1416
  110OSM    H7S11363  -1.018   4.305  10.172  1.8945  0.8856 -0.1432
  110OSM    H7T11364  -1.053   4.158  10.074  1.0271 -0.4914 -1.1553
  110OSM    C8S11365  -0.844   4.215  10.084  0.2617  0.3101 -0.9035
  110OSM    H8S11366  -0.775   4.265  10.155  1.4859 -2.1416 -0.2457
  110OSM    H8T11367  -0.857   4.288  10.001  2.3685  0.3918 -1.2145
  110OSM    C9S11368  -0.789   4.084  10.038  0.2428  0.0483  0.0589
  110OSM    H9S11369  -0.878   4.018  10.026  1.8166 -2.0809 -0.4300
  110OSM    H9T11370  -0.746   4.026  10.122 -0.0941  0.0794  0.2527
  110OSM   C10S11371  -0.704   4.088   9.905 -0.1361 -0.2030 -0.2648
  110OSM   H10S11372  -0.639   3.998   9.907 -0.7393 -0.6260  0.9876
  110OSM   H10T11373  -0.640   4.178   9.921 -1.1404  0.0870  2.6216
  110OSM   C11S11374  -0.787   4.101   9.783 -0.2388 -0.5341 -0.4743
  110OSM   H11S11375  -0.826   4.204   9.771  1.0016  0.0081 -0.0772
  110OSM   H11T11376  -0.881   4.042   9.786  0.4750 -1.6809  0.2697
  110OSM   C12S11377  -0.695   4.091   9.662 -0.4967  0.9998  0.0986
  110OSM   H12S11378  -0.643   3.994   9.682 -1.8587 -0.4753 -2.9371
  110OSM   H12T11379  -0.619   4.172   9.665 -0.6401  1.2474 -1.9265
  110OSM   C13S11380  -0.771   4.077   9.531  0.7149 -0.1664 -0.0173
  110OSM   H13S11381  -0.863   4.016   9.544  0.4727  0.4070  1.1405
  110OSM   H13T11382  -0.712   4.029   9.450 -1.1107 -1.7773 -0.4899
  110OSM   C14S11383  -0.833   4.212   9.486  0.3935  1.1689  0.3719
  110OSM   H14S11384  -0.749   4.285   9.487  2.4813 -1.0587  2.2583
  110OSM   H14T11385  -0.910   4.239   9.561  0.7490  1.6059  0.5811
  110OSM   C15S11386  -0.900   4.210   9.344 -0.4750  0.1803  0.3076
  110OSM   H15S11387  -0.822   4.198   9.266 -2.2944  0.7774 -1.7131
  110OSM   H15T11388  -0.958   4.304   9.336 -2.8021 -1.1390  0.4411
  110OSM   C16S11389  -0.999   4.096   9.319 -0.6501  0.5183  0.3006
  110OSM   H16S11390  -1.086   4.099   9.388 -0.6737 -2.3081  0.5041
  110OSM   H16T11391  -0.948   3.998   9.329 -0.6605  0.5161  0.3317
  110OSM   C17S11392  -1.071   4.105   9.184 -1.2196 -0.0238  0.7430
  110OSM   H17S11393  -0.997   4.106   9.102  0.2272  0.2583  1.9981
  110OSM   H17T11394  -1.110   4.208   9.171 -1.5241 -0.3809 -1.5355
  110OSM   C18S11395  -1.187   4.003   9.159  0.1914 -0.9154 -0.2131
  110OSM   H18S11396  -1.138   3.910   9.124 -0.4743 -1.3840  0.0705
  110OSM   H18T11397  -1.252   4.048   9.081 -0.0042  1.7575  1.3712
  110OSM   H18U11398  -1.252   3.980   9.246  1.6682 -0.4105  1.0638
  110OSM    C1F11399  -0.462   4.351  10.291  0.1123  0.4482 -0.0317
  110OSM     OF11400  -0.375   4.294  10.348 -0.1840  0.0873 -0.1671
  110OSM    C2F11401  -0.443   4.395  10.148  0.5926 -0.0658  0.5524
  110OSM    H2F11402  -0.443   4.506  10.155  1.5854 -0.0685  0.6986
  110OSM    H2G11403  -0.524   4.358  10.081  0.1724  1.9662 -0.1390
  110OSM    C3F11404  -0.307   4.348  10.088 -0.4488 -0.0730  1.2656
  110OSM    H3F11405  -0.302   4.242  10.057  1.0132  0.3603 -0.1312
  110OSM    H3G11406  -0.226   4.382  10.157 -1.3561 -0.8818  2.7809
  110OSM    C4F11407  -0.273   4.429   9.961 -0.8073 -0.5765 -0.7019
  110OSM    H4F11408  -0.269   4.540   9.973 -0.3817 -0.6157 -0.4362
  110OSM    H4G11409  -0.363   4.414   9.899  0.3103  2.3953 -3.2856
  110OSM    C5F11410  -0.167   4.357   9.881  0.1296  0.6618  0.0376
  110OSM    H5F11411  -0.200   4.254   9.855 -1.7532  1.4629 -0.9051
  110OSM    H5G11412  -0.079   4.342   9.947 -1.0157 -2.1476  1.0970
  110OSM    C6F11413  -0.128   4.424   9.747 -0.1908  0.4376 -0.0354
  110OSM    H6F11414  -0.100   4.528   9.771  2.7807  0.0066 -1.2735
  110OSM    H6G11415  -0.224   4.429   9.690 -0.3561  0.0187  0.2039
  110OSM    C7F11416  -0.038   4.328   9.672 -1.0138 -0.8039  0.4087
  110OSM    H7F11417  -0.099   4.236   9.657 -1.7701 -0.1432 -0.7336
  110OSM    H7G11418   0.052   4.308   9.734 -1.8128 -3.5965  0.7868
  110OSM    C8F11419  -0.002   4.390   9.533 -0.1200 -0.5702  0.3960
  110OSM    H8F11420  -0.085   4.385   9.460  0.5923 -1.3931 -0.3899
  110OSM    H8G11421   0.076   4.323   9.491  0.8162  0.3422  0.6297
  110OSM    C9F11422   0.052   4.531   9.543 -0.0964  0.0351  0.6237
  110OSM    H9F11423   0.102   4.552   9.638 -1.7927  1.8287  1.1969
  110OSM   C10F11424   0.072   4.610   9.432  0.8269 -0.9310 -0.3833
  110OSM   H10F11425   0.105   4.713   9.453  0.0783 -0.8552  0.5324
  110OSM   C11F11426   0.034   4.579   9.292  0.0600  0.3836 -0.2338
  110OSM   H11F11427   0.033   4.468   9.296 -0.6388  0.4160  1.4882
  110OSM   H11G11428   0.109   4.601   9.213 -0.3691 -1.0182 -1.0760
  110OSM   C12F11429  -0.108   4.622   9.259  0.1648  0.0839 -0.7544
  110OSM   H12F11430  -0.120   4.732   9.268 -1.0973 -0.0968  0.0178
  110OSM   H12G11431  -0.182   4.582   9.331  0.1792 -1.0394 -1.3540
  110OSM   C13F11432  -0.155   4.594   9.116  0.5455 -0.3635  0.3370
  110OSM   H13F11433  -0.255   4.641   9.111  0.7774  0.0558 -0.5886
  110OSM   H13G11434  -0.174   4.485   9.101  0.2682 -0.2360 -0.2813
  110OSM   C14F11435  -0.069   4.656   9.006 -0.9710 -0.9724 -0.6729
  110OSM   H14F11436   0.032   4.609   9.005 -0.8798 -0.7973  0.0523
  110OSM   H14G11437  -0.062   4.765   9.029 -0.8176 -0.8182 -1.3961
  110OSM   C15F11438  -0.139   4.643   8.872  0.2391  0.1991  0.7140
  110OSM   H15F11439  -0.059   4.642   8.795 -0.0919  0.1824  0.3672
  110OSM   H15G11440  -0.209   4.728   8.857 -2.4771 -1.8841  0.8056
  110OSM   C16F11441  -0.225   4.516   8.843  0.5447  0.2223 -0.0474
  110OSM   H16F11442  -0.331   4.532   8.874  0.7279  2.2314 -0.3550
  110OSM   H16G11443  -0.183   4.428   8.897  1.2313  0.8601  0.4594
  110OSM   C17F11444  -0.230   4.472   8.695 -0.8492 -0.0995  0.2489
  110OSM   H17F11445  -0.128   4.442   8.661 -1.0197 -0.4866  0.0766
  110OSM   H17G11446  -0.258   4.558   8.630  0.1513 -1.0328 -1.5228
  110OSM   C18F11447  -0.324   4.357   8.671  0.0022  0.0976  0.0329
  110OSM   H18F11448  -0.317   4.273   8.744  2.5975  1.5639  1.6041
  110OSM   H18G11449  -0.303   4.310   8.573  1.6671 -1.7286  1.1772
  110OSM   H18H11450  -0.427   4.400   8.676 -0.3540 -0.8420  2.0893
  111OSM      N11451   0.387   1.907  10.551  1.3842 -0.4227 -0.4066
  111OSM    C1511452   0.415   2.008  10.445 -0.1596 -0.9141  0.5593
  111OSM   H15A11453   0.471   2.092  10.483  1.0176 -0.0263 -2.7572
  111OSM   H15B11454   0.325   2.049  10.400  0.4690  0.8244  0.7965
  111OSM   H15C11455   0.468   1.966  10.361  2.3327  4.4982 -1.0717
  111OSM    C1411456   0.314   1.790  10.493 -0.1285  0.2199 -0.2489
  111OSM   H14A11457   0.377   1.742  10.419  0.1390 -0.5074  0.4361
  111OSM   H14B11458   0.226   1.823  10.441 -1.2669 -1.6347  0.4226
  111OSM   H14C11459   0.293   1.709  10.562 -2.7868  0.3133 -0.8690
  111OSM    C1311460   0.511   1.859  10.618  0.1806  0.5406 -0.2349
  111OSM   H13A11461   0.577   1.816  10.544 -0.2002 -1.9437  0.7589
  111OSM   H13B11462   0.498   1.778  10.689  0.0308  0.1702 -0.6808
  111OSM   H13C11463   0.563   1.938  10.670  2.2109 -2.1167  2.0967
  111OSM    C1211464   0.297   1.975  10.651 -0.0296 -0.2647 -0.3735
  111OSM   H12A11465   0.205   1.982  10.594 -0.0418 -0.9523 -0.4510
  111OSM   H12B11466   0.325   2.078  10.665 -0.1706 -0.2606 -0.1168
  111OSM    C1111467   0.258   1.907  10.788 -0.2321  0.4811  0.1360
  111OSM   H11A11468   0.184   1.963  10.848 -1.6784  0.3835 -1.4867
  111OSM   H11B11469   0.350   1.895  10.849 -0.1525  1.7972  0.2955
  111OSM      P11470   0.243   1.641  10.829 -0.0397 -0.1231  0.6516
  111OSM    O1311471   0.382   1.651  10.885 -0.0726 -0.2643  0.4281
  111OSM    O1411472   0.138   1.588  10.915 -0.1637  0.7454 -0.3228
  111OSM    O1111473   0.246   1.541  10.701  0.6443 -0.3790 -0.1196
  111OSM    O1211474   0.201   1.772  10.759 -1.1293  0.6318 -0.4601
  111OSM    C1S11475   0.121   1.518  10.637  0.5614 -0.0874  0.0092
  111OSM    H1S11476   0.093   1.612  10.585  1.9463  0.5409  0.3484
  111OSM    H1T11477   0.037   1.488  10.703 -0.4045 -1.4307 -1.7190
  111OSM     NF11478   0.025   1.406  10.438  0.2897 -0.1648  0.3929
  111OSM    HNF11479  -0.042   1.333  10.438  0.1450 -0.0344  0.2394
  111OSM    C2S11480   0.139   1.412  10.525 -0.1507 -0.0260 -0.0733
  111OSM    H2S11481   0.224   1.449  10.465  0.5518  0.9308  1.4346
  111OSM    C3S11482   0.177   1.270  10.579  0.0102  0.5200  0.4823
  111OSM    H3S11483   0.090   1.221  10.627  0.3391 -0.9371 -0.3416
  111OSM     O311484   0.283   1.282  10.677  0.7151  0.3411 -0.8211
  111OSM    HO311485   0.279   1.376  10.696  0.9787  0.2885 -0.5151
  111OSM    C4S11486   0.226   1.184  10.460  0.1230  0.2568  0.5924
  111OSM    H4S11487   0.322   1.208  10.413  0.4076 -2.0647 -0.1070
  111OSM    C5S11488   0.159   1.085  10.409 -0.3410  0.4301  0.0896
  111OSM    H5S11489   0.058   1.062  10.448  0.0848  0.9091  1.5658
  111OSM    C6S11490   0.199   0.990  10.295  0.2122 -0.3836  0.4378
  111OSM    H6S11491   0.168   0.891  10.334 -0.3307  0.7636  3.1714
  111OSM    H6T11492   0.309   0.990  10.275  0.2966 -1.4218  0.8742
  111OSM    C7S11493   0.125   1.024  10.164  0.1363 -0.2588  0.3918
  111OSM    H7S11494   0.140   0.949  10.084 -2.7443  1.7794 -2.3216
  111OSM    H7T11495   0.157   1.126  10.133 -1.3624  0.1679  0.1896
  111OSM    C8S11496  -0.029   1.046  10.172 -0.1594  0.2178  0.2534
  111OSM    H8S11497  -0.042   1.129  10.245  2.6689 -0.7824  2.0652
  111OSM    H8T11498  -0.072   0.949  10.208 -1.0534 -0.5682 -2.6800
  111OSM    C9S11499  -0.105   1.085  10.048 -0.4127 -0.2711 -0.2121
  111OSM    H9S11500  -0.075   1.188  10.019 -0.9491  0.4812  1.7147
  111OSM    H9T11501  -0.208   1.108  10.085 -1.0602  0.0107 -2.0951
  111OSM   C10S11502  -0.085   0.985   9.941  0.5835  0.4377  0.3027
  111OSM   H10S11503  -0.122   0.890   9.983 -1.1166  1.0060  0.1481
  111OSM   H10T11504   0.021   0.973   9.910  0.2199 -3.3261  0.1207
  111OSM   C11S11505  -0.167   1.028   9.814 -0.5119  0.0904 -0.1587
  111OSM   H11S11506  -0.136   1.131   9.786  1.0829 -0.3969 -0.2633
  111OSM   H11T11507  -0.277   1.021   9.831 -0.4084 -2.3158 -0.2002
  111OSM   C12S11508  -0.133   0.938   9.693  0.6035 -0.8911  0.0602
  111OSM   H12S11509  -0.171   0.838   9.724  2.3969 -1.9873 -1.1115
  111OSM   H12T11510  -0.023   0.938   9.681  0.9800  2.5321  2.1804
  111OSM   C13S11511  -0.177   0.994   9.553  0.3181  0.0224 -0.2725
  111OSM   H13S11512  -0.141   1.098   9.540  1.6410 -0.5777 -1.6594
  111OSM   H13T11513  -0.288   0.998   9.551  0.2737  1.6200  1.6795
  111OSM   C14S11514  -0.134   0.889   9.444  0.5481  0.7588 -0.1176
  111OSM   H14S11515  -0.138   0.784   9.479  3.4730 -0.7338 -3.5754
  111OSM   H14T11516  -0.025   0.899   9.426  0.6025  0.7326  0.1911
  111OSM   C15S11517  -0.210   0.896   9.306  0.8908 -0.3393  0.2934
  111OSM   H15S11518  -0.306   0.841   9.311 -0.5250  1.9905  0.0105
  111OSM   H15T11519  -0.142   0.842   9.236 -1.0909 -0.1706 -1.8804
  111OSM   C16S11520  -0.228   1.038   9.244  0.4545 -1.3646 -0.3754
  111OSM   H16S11521  -0.133   1.095   9.240 -0.9049  0.9946 -1.2785
  111OSM   H16T11522  -0.285   1.109   9.308 -0.2109 -0.6100 -1.7655
  111OSM   C17S11523  -0.288   1.038   9.110  0.1185 -0.2658 -0.6242
  111OSM   H17S11524  -0.389   0.994   9.129  0.9021 -1.6647  0.5183
  111OSM   H17T11525  -0.235   0.970   9.039 -0.7500  0.2610 -1.8194
  111OSM   C18S11526  -0.296   1.176   9.050 -0.3629  1.1431  0.0501
  111OSM   H18S11527  -0.364   1.166   8.963 -2.1588  1.5018  1.3628
  111OSM   H18T11528  -0.195   1.216   9.027  0.6220 -1.0202  0.3323
  111OSM   H18U11529  -0.346   1.237   9.129 -4.5073  0.0461 -1.4611
  111OSM    C1F11530  -0.005   1.511  10.357 -0.4277  0.0604  0.1729
  111OSM     OF11531   0.063   1.609  10.364  0.4860  0.3188  0.0928
  111OSM    C2F11532  -0.129   1.504  10.272 -0.2677 -0.1853 -0.5495
  111OSM    H2F11533  -0.215   1.471  10.334  0.2745 -0.7388 -0.0784
  111OSM    H2G11534  -0.125   1.429  10.190  0.3668 -0.2897 -0.4277
  111OSM    C3F11535  -0.151   1.641  10.210 -0.6242  0.1584  0.5230
  111OSM    H3F11536  -0.063   1.667  10.146 -1.7264  2.1370 -0.3030
  111OSM    H3G11537  -0.159   1.726  10.282 -0.5437  0.8427 -0.2533
  111OSM    C4F11538  -0.277   1.640  10.121 -0.3366  0.4952 -0.2383
  111OSM    H4F11539  -0.361   1.608  10.185 -1.8624  1.7542 -1.5211
  111OSM    H4G11540  -0.253   1.566  10.041 -2.0763  1.4418 -1.7032
  111OSM    C5F11541  -0.320   1.769  10.062  0.7282  0.0245 -1.2249
  111OSM    H5F11542  -0.224   1.819  10.039  0.0790  1.0019 -1.8553
  111OSM    H5G11543  -0.371   1.825  10.143  3.8398 -1.5156  2.0881
  111OSM    C6F11544  -0.413   1.749   9.944 -0.0353 -0.1062  0.0891
  111OSM    H6F11545  -0.500   1.688   9.977  0.0111  0.4782  1.3320
  111OSM    H6G11546  -0.359   1.692   9.864  0.8432 -1.2948  1.4794
  111OSM    C7F11547  -0.469   1.879   9.896  0.0280 -0.3597 -0.0666
  111OSM    H7F11548  -0.383   1.948   9.889  1.2182 -1.8005 -0.1702
  111OSM    H7G11549  -0.544   1.920   9.967  1.2615  1.7600  0.0950
  111OSM    C8F11550  -0.537   1.871   9.754  0.0794 -0.1198 -0.2773
  111OSM    H8F11551  -0.621   1.799   9.753 -1.6202  1.7290  1.3545
  111OSM    H8G11552  -0.459   1.848   9.678  0.9298 -0.2049  0.6034
  111OSM    C9F11553  -0.604   1.998   9.719 -0.2767 -0.3967  0.4284
  111OSM    H9F11554  -0.642   2.050   9.808 -0.9196  0.1065 -0.1210
  111OSM   C10F11555  -0.636   2.053   9.598 -0.4720 -0.3602 -0.0587
  111OSM   H10F11556  -0.665   2.159   9.595 -1.3575 -0.6031 -2.1854
  111OSM   C11F11557  -0.600   2.005   9.456 -0.4319 -0.0499  0.0177
  111OSM   H11F11558  -0.570   1.898   9.457  0.1152  0.0944  1.1444
  111OSM   H11G11559  -0.513   2.052   9.407  0.3956 -0.2445  1.2570
  111OSM   C12F11560  -0.717   2.018   9.353 -0.6482 -0.5758  0.0404
  111OSM   H12F11561  -0.796   1.944   9.379  0.0771 -1.1320  0.6909
  111OSM   H12G11562  -0.674   2.000   9.252  0.1615  0.8573  0.0962
  111OSM   C13F11563  -0.789   2.159   9.358  0.0378  0.1560  0.3724
  111OSM   H13F11564  -0.711   2.238   9.364  1.2246 -1.0304  1.2264
  111OSM   H13G11565  -0.848   2.143   9.451  0.7322 -0.8749  0.6452
  111OSM   C14F11566  -0.862   2.211   9.238  0.9502 -0.3788  0.4278
  111OSM   H14F11567  -0.919   2.302   9.264 -1.4370 -1.4430 -0.7429
  111OSM   H14G11568  -0.935   2.130   9.215  2.6954 -1.9608  0.0961
  111OSM   C15F11569  -0.775   2.241   9.118 -0.4054 -0.9537  0.1546
  111OSM   H15F11570  -0.767   2.153   9.052  2.3258 -1.0112  0.4765
  111OSM   H15G11571  -0.670   2.264   9.146 -0.8583  2.3029 -0.3243
  111OSM   C16F11572  -0.826   2.362   9.032 -0.3553  0.1519 -0.3674
  111OSM   H16F11573  -0.786   2.454   9.081  4.4736 -1.8240 -0.0186
  111OSM   H16G11574  -0.937   2.355   9.029 -0.6501  1.8534  2.5100
  111OSM   C17F11575  -0.763   2.356   8.886 -0.1866 -0.2305  0.2183
  111OSM   H17F11576  -0.809   2.261   8.851 -0.0922 -0.0879 -0.3021
  111OSM   H17G11577  -0.652   2.357   8.890 -0.1082 -2.9160  0.3600
  111OSM   C18F11578  -0.816   2.477   8.807  0.5526  0.3914 -0.1224
  111OSM   H18F11579  -0.800   2.565   8.873  0.4660 -0.4905  1.1024
  111OSM   H18G11580  -0.920   2.462   8.773  0.7722 -0.1166 -0.5895
  111OSM   H18H11581  -0.747   2.487   8.720  1.4348  0.7830  0.6005
  112OSM      N11582   5.278   0.139  10.993  0.5068 -0.1197 -0.2105
  112OSM    C1511583   5.172   0.189  10.897  0.3066 -0.0875  0.0629
  112OSM   H15A11584   5.086   0.218  10.955 -0.0625  0.5186 -0.7663
  112OSM   H15B11585   5.144   0.106  10.833 -2.4344  0.5909  0.2573
  112OSM   H15C11586   5.215   0.267  10.837 -0.7041  0.2635 -0.2173
  112OSM    C1411587   5.316   0.244  11.101  0.5798  0.2437  0.3586
  112OSM   H14A11588   5.383   0.207  11.176  1.5256 -0.0228 -0.5963
  112OSM   H14B11589   5.229   0.287  11.149 -0.3107 -0.1839 -0.8278
  112OSM   H14C11590   5.370   0.326  11.055  1.5976 -0.6996 -0.1600
  112OSM    C1311591   5.223   0.024  11.068 -0.5864  0.1640 -0.4764
  112OSM   H13A11592   5.191  -0.055  11.002 -3.8817 -1.5198  2.7991
  112OSM   H13B11593   5.131   0.053  11.118  0.5625  2.4113  0.4438
  112OSM   H13C11594   5.291  -0.030  11.132  0.7967  0.2588 -1.8135
  112OSM    C1211595   5.410   0.096  10.927  0.6464  0.5636  0.2679
  112OSM   H12A11596   5.482   0.081  11.006 -0.7471  0.9278  1.6456
  112OSM   H12B11597   5.436   0.184  10.869  1.8557  0.0410 -0.0034
  112OSM    C1111598   5.415  -0.031  10.835  0.6975  0.9947 -0.1512
  112OSM   H11A11599   5.515  -0.016  10.789  2.0388 -0.3774  2.1425
  112OSM   H11B11600   5.345  -0.017  10.749  1.2654  2.1012 -0.4579
  112OSM      P11601   5.322  -0.279  10.840 -0.1927  0.1866 -0.4532
  112OSM    O1311602   5.353  -0.407  10.910  0.0710  0.1224  0.1093
  112OSM    O1411603   5.187  -0.227  10.845 -0.2085 -0.1617 -0.0396
  112OSM    O1111604   5.379  -0.284  10.687 -0.2963  0.0133 -0.3334
  112OSM    O1211605   5.402  -0.161  10.904  0.3344  0.2268 -0.1652
  112OSM    C1S11606   5.516  -0.308  10.673 -0.1408  0.3296  0.1616
  112OSM    H1S11607   5.535  -0.415  10.695 -0.1612  0.6496  1.8155
  112OSM    H1T11608   5.577  -0.244  10.740  0.6464  0.0871 -0.3077
  112OSM     NF11609   5.679  -0.351  10.503 -0.0594  0.5219  0.0728
  112OSM    HNF11610   5.762  -0.298  10.517  0.2977 -0.2001  0.7666
  112OSM    C2S11611   5.552  -0.293  10.522 -0.5574  0.3442  0.1264
  112OSM    H2S11612   5.475  -0.346  10.462 -0.6305 -1.7375  1.9601
  112OSM    C3S11613   5.544  -0.143  10.482 -0.0573 -0.0787  0.6404
  112OSM    H3S11614   5.607  -0.076  10.543 -1.7257  4.0340 -1.7304
  112OSM     O311615   5.422  -0.079  10.512  0.6360  0.0072  0.3586
  112OSM    HO311616   5.384  -0.138  10.577 -1.4047  0.6230 -0.2161
  112OSM    C4S11617   5.585  -0.116  10.343  0.3055  0.5488 -0.2824
  112OSM    H4S11618   5.694  -0.107  10.347  0.1900  1.8597  3.3106
  112OSM    C5S11619   5.507  -0.103  10.237 -0.0222 -1.1412 -0.1947
  112OSM    H5S11620   5.398  -0.091  10.245  0.1161  1.0121 -0.7936
  112OSM    C6S11621   5.564  -0.090  10.099 -0.0841 -0.0410  0.0431
  112OSM    H6S11622   5.669  -0.125  10.105 -0.7848 -2.3287  0.1225
  112OSM    H6T11623   5.574   0.018  10.079 -0.0070  0.3470  1.9573
  112OSM    C7S11624   5.501  -0.161   9.977  0.1539 -0.5699  0.2947
  112OSM    H7S11625   5.413  -0.105   9.939  1.6345  1.5900 -0.1633
  112OSM    H7T11626   5.465  -0.263  10.001  1.3674 -0.3193  3.7059
  112OSM    C8S11627   5.600  -0.163   9.862  0.0718 -0.5603  0.2121
  112OSM    H8S11628   5.660  -0.256   9.877 -0.0449 -0.7785 -0.6338
  112OSM    H8T11629   5.663  -0.071   9.866 -0.5073 -0.1595  0.1889
  112OSM    C9S11630   5.542  -0.158   9.721  0.0629  0.2113  0.2023
  112OSM    H9S11631   5.465  -0.079   9.709  0.4854  0.5381 -0.4068
  112OSM    H9T11632   5.496  -0.256   9.694  2.6485 -0.6182 -1.5801
  112OSM   C10S11633   5.652  -0.132   9.616 -0.7094  0.4669 -0.6826
  112OSM   H10S11634   5.737  -0.201   9.629 -0.5856  0.6870 -0.3044
  112OSM   H10T11635   5.696  -0.032   9.640 -0.7158  0.5831 -1.1522
  112OSM   C11S11636   5.611  -0.137   9.473 -0.0582 -0.5386  0.6998
  112OSM   H11S11637   5.505  -0.104   9.465 -0.0450 -0.9434 -2.4127
  112OSM   H11T11638   5.611  -0.242   9.437  0.4506 -0.2211 -0.2634
  112OSM   C12S11639   5.697  -0.043   9.379 -0.2658  0.3558 -0.3299
  112OSM   H12S11640   5.799  -0.066   9.415  0.0741 -2.1367 -2.5789
  112OSM   H12T11641   5.663   0.063   9.383  1.0352  0.8041 -0.6825
  112OSM   C13S11642   5.701  -0.080   9.231 -0.9201  0.6881 -0.0323
  112OSM   H13S11643   5.609  -0.059   9.173  0.3674  1.1958 -1.9730
  112OSM   H13T11644   5.730  -0.187   9.240  0.1200  0.9897  0.3904
  112OSM   C14S11645   5.829  -0.029   9.156 -0.3193  0.0887  0.1228
  112OSM   H14S11646   5.922  -0.058   9.211  0.4413  0.8485 -0.7449
  112OSM   H14T11647   5.827   0.082   9.159 -0.7094  0.0587  1.4827
  112OSM   C15S11648   5.831  -0.095   9.012  0.8025 -0.0647  0.2191
  112OSM   H15S11649   5.815  -0.205   9.021 -2.1618  0.2606  0.1708
  112OSM   H15T11650   5.931  -0.063   8.975  1.1053 -1.0816  0.1294
  112OSM   C16S11651   5.723  -0.041   8.917  0.1746  0.3409  0.2188
  112OSM   H16S11652   5.723   0.069   8.901 -1.2731 -0.0067 -2.9333
  112OSM   H16T11653   5.625  -0.071   8.960  0.6784  1.0092  1.8991
  112OSM   C17S11654   5.761  -0.103   8.777 -0.0373  0.1446 -1.0416
  112OSM   H17S11655   5.759  -0.213   8.765  1.0986 -0.1580  1.0777
  112OSM   H17T11656   5.869  -0.081   8.765  0.2141 -0.7117 -0.4164
  112OSM   C18S11657   5.685  -0.044   8.659 -0.2666  0.6095  0.7413
  112OSM   H18S11658   5.717  -0.093   8.564 -1.1087 -1.3015  1.4031
  112OSM   H18T11659   5.709   0.063   8.639  2.0045 -0.0341 -0.3919
  112OSM   H18U11660   5.578  -0.070   8.672  0.2066 -0.8262  1.9265
  112OSM    C1F11661   5.693  -0.481  10.492 -0.6888  0.2530  0.6547
  112OSM     OF11662   5.594  -0.553  10.498  0.3235  0.4131  0.3596
  112OSM    C2F11663   5.833  -0.544  10.472  1.2022  0.1752  0.0836
  112OSM    H2F11664   5.923  -0.479  10.479 -0.0644  2.0589 -0.4862
  112OSM    H2G11665   5.832  -0.576  10.365  1.0027  1.2101 -0.2347
  112OSM    C3F11666   5.871  -0.670  10.552  0.5477  0.5925 -0.0252
  112OSM    H3F11667   5.795  -0.748  10.530  1.3868 -0.3192  0.2333
  112OSM    H3G11668   5.869  -0.656  10.662  0.4561 -1.4841  0.2772
  112OSM    C4F11669   6.002  -0.737  10.499 -0.4554 -0.4621  0.0130
  112OSM    H4F11670   6.011  -0.842  10.535  0.4387  0.4856  2.8429
  112OSM    H4G11671   6.090  -0.691  10.549 -0.1510 -0.9631 -0.0599
  112OSM    C5F11672   6.032  -0.739  10.354 -0.2949 -0.0532 -0.0197
  112OSM    H5F11673   6.017  -0.642  10.304  4.9753  1.1491  0.1426
  112OSM    H5G11674   5.961  -0.814  10.311 -0.2757 -0.1741  0.1581
  112OSM    C6F11675   6.181  -0.777  10.331  1.0616 -0.0328  0.0425
  112OSM    H6F11676   6.207  -0.884  10.346 -1.0638 -0.8057 -1.2125
  112OSM    H6G11677   6.239  -0.717  10.404 -0.5565 -1.1449  2.3881
  112OSM    C7F11678   6.228  -0.734  10.193 -0.5965  0.6850  0.2674
  112OSM    H7F11679   6.335  -0.759  10.174 -0.2149  2.7853 -0.5549
  112OSM    H7G11680   6.215  -0.624  10.185 -1.9302  0.4668 -0.8426
  112OSM    C8F11681   6.150  -0.806  10.077  0.0687 -0.7120  0.1712
  112OSM    H8F11682   6.052  -0.843  10.113  0.4590 -1.3913  0.5450
  112OSM    H8G11683   6.221  -0.888  10.052  0.4337 -0.1749 -0.6032
  112OSM    C9F11684   6.118  -0.713   9.963 -0.5484 -0.0250  0.3875
  112OSM    H9F11685   6.023  -0.658   9.972 -0.4430  0.4032 -0.9411
  112OSM   C10F11686   6.169  -0.706   9.837 -0.7538  0.0861  0.2291
  112OSM   H10F11687   6.149  -0.621   9.770  1.8740  3.1103  2.9434
  112OSM   C11F11688   6.281  -0.787   9.781 -0.0694 -0.3576  0.3277
  112OSM   H11F11689   6.320  -0.848   9.865 -0.4447  1.2343  1.6996
  112OSM   H11G11690   6.361  -0.725   9.734 -0.9414  0.9209  0.4885
  112OSM   C12F11691   6.222  -0.896   9.678  0.4288  0.4736 -0.3336
  112OSM   H12F11692   6.133  -0.945   9.724  1.1374 -0.2763  0.2708
  112OSM   H12G11693   6.300  -0.973   9.658 -1.2209 -1.3219 -0.1381
  112OSM   C13F11694   6.188  -0.838   9.539  0.1026 -0.9194 -0.0583
  112OSM   H13F11695   6.145  -0.736   9.546  2.3396  0.1226 -0.5345
  112OSM   H13G11696   6.115  -0.904   9.487 -0.4770 -0.9801  0.8068
  112OSM   C14F11697   6.310  -0.827   9.449  0.0134 -0.1013  0.4453
  112OSM   H14F11698   6.354  -0.929   9.439  1.3845  0.5891 -0.9832
  112OSM   H14G11699   6.387  -0.771   9.507  0.8513 -0.1929 -0.5649
  112OSM   C15F11700   6.290  -0.759   9.317  0.4881  0.7755  0.2987
  112OSM   H15F11701   6.221  -0.673   9.306 -1.8091 -0.9544  0.3293
  112OSM   H15G11702   6.240  -0.834   9.251  0.2782  1.9554 -0.9203
  112OSM   C16F11703   6.422  -0.728   9.244  0.2101  0.3997 -0.0368
  112OSM   H16F11704   6.476  -0.655   9.307  1.0703 -1.3583  1.3658
  112OSM   H16G11705   6.391  -0.675   9.151 -0.0248  1.6165  0.7172
  112OSM   C17F11706   6.520  -0.845   9.219  0.2553 -0.1191  0.1063
  112OSM   H17F11707   6.507  -0.926   9.294 -0.5924  0.5571  0.7166
  112OSM   H17G11708   6.626  -0.813   9.227  0.1784  1.6792 -3.6023
  112OSM   C18F11709   6.505  -0.903   9.078  0.0611 -0.0898 -0.7029
  112OSM   H18F11710   6.418  -0.971   9.065 -0.0312  0.1297 -1.2814
  112OSM   H18G11711   6.592  -0.955   9.031 -0.1284  0.0949 -1.2713
  112OSM   H18H11712   6.477  -0.815   9.016  1.3632  1.3764  0.6761
  113OSM      N11713   4.639   6.325  11.359 -0.1068  0.1507 -0.2186
  113OSM    C1511714   4.551   6.403  11.276  0.0952 -0.4267 -0.2820
  113OSM   H15A11715   4.534   6.354  11.181 -0.1742 -1.7894  0.4458
  113OSM   H15B11716   4.589   6.504  11.273 -1.1564  0.1474  1.5284
  113OSM   H15C11717   4.458   6.414  11.330  1.5964  0.1884  2.3576
  113OSM    C1411718   4.779   6.356  11.358 -0.3347  0.6777  0.1292
  113OSM   H14A11719   4.835   6.289  11.423 -3.0227 -1.4217  0.4600
  113OSM   H14B11720   4.799   6.460  11.380 -0.7231  0.6834  0.4558
  113OSM   H14C11721   4.818   6.341  11.258 -0.0681  1.0923  0.1718
  113OSM    C1311722   4.591   6.337  11.506  0.2920 -0.5972 -0.0882
  113OSM   H13A11723   4.658   6.285  11.572  0.7657 -2.8416 -2.2022
  113OSM   H13B11724   4.490   6.298  11.503  0.1607 -0.2345 -0.6496
  113OSM   H13C11725   4.587   6.441  11.534  0.6897 -1.0695  1.8799
  113OSM    C1211726   4.610   6.182  11.319  0.4159 -0.4100 -0.0124
  113OSM   H12A11727   4.505   6.154  11.322 -0.6996  3.3196  0.9725
  113OSM   H12B11728   4.654   6.121  11.396  0.2817 -0.6084 -0.0902
  113OSM    C1111729   4.667   6.139  11.182 -0.0903 -0.2668 -0.6191
  113OSM   H11A11730   4.654   6.029  11.188  0.7060 -0.3293  0.0920
  113OSM   H11B11731   4.777   6.154  11.175 -0.3413  2.1488 -0.3626
  113OSM      P11732   4.456   6.135  11.021 -0.2689 -0.4940 -0.0857
  113OSM    O1311733   4.396   6.045  11.121 -0.3478 -0.3295 -0.4208
  113OSM    O1411734   4.368   6.237  10.956 -0.8622 -0.2834 -0.0214
  113OSM    O1111735   4.512   6.033  10.906 -0.0164 -0.4128 -0.3939
  113OSM    O1211736   4.591   6.200  11.073 -1.0240  0.1477 -0.6700
  113OSM    C1S11737   4.557   6.093  10.780 -0.0893  0.1675  0.4060
  113OSM    H1S11738   4.662   6.123  10.796 -0.7316  2.1392  1.2366
  113OSM    H1T11739   4.500   6.187  10.761 -0.0726  0.0700 -0.1574
  113OSM     NF11740   4.618   6.033  10.535  0.2702  1.0848 -0.4014
  113OSM    HNF11741   4.565   6.057  10.454 -1.2926 -0.6836  0.0359
  113OSM    C2S11742   4.534   5.998  10.655 -0.4834  0.2499 -0.5759
  113OSM    H2S11743   4.575   5.903  10.696  0.6291  0.5709 -0.8978
  113OSM    C3S11744   4.386   5.981  10.625  0.3188  0.6197 -0.1097
  113OSM    H3S11745   4.335   6.079  10.618 -0.5288  0.3399  1.6101
  113OSM     O311746   4.313   5.913  10.724  0.0525  0.0368 -0.2460
  113OSM    HO311747   4.362   5.933  10.803  0.6191 -1.9595 -0.0298
  113OSM    C4S11748   4.364   5.897  10.499 -0.0632 -0.5677 -0.4231
  113OSM    H4S11749   4.395   5.793  10.517  0.5417 -0.3116  0.0719
  113OSM    C5S11750   4.309   5.937  10.386  0.1470 -1.0002  0.1962
  113OSM    H5S11751   4.285   6.044  10.370 -2.5640 -1.5513  0.0681
  113OSM    C6S11752   4.293   5.855  10.258 -0.0513 -0.6218  0.6423
  113OSM    H6S11753   4.311   5.917  10.168  2.6990  0.4797  1.8434
  113OSM    H6T11754   4.185   5.828  10.255 -0.6067  1.4124  0.5255
  113OSM    C7S11755   4.368   5.723  10.243  0.3446  0.5512 -0.2494
  113OSM    H7S11756   4.346   5.662  10.333 -0.0168 -0.6360 -1.1138
  113OSM    H7T11757   4.477   5.740  10.227  0.3950 -1.9100 -3.7910
  113OSM    C8S11758   4.308   5.624  10.138  0.2582 -0.5070 -0.1024
  113OSM    H8S11759   4.197   5.634  10.136  0.1808 -0.8322  1.1733
  113OSM    H8T11760   4.334   5.522  10.174 -0.1566 -0.6918 -0.3167
  113OSM    C9S11761   4.361   5.647  10.002 -0.7233 -0.8906  0.0666
  113OSM    H9S11762   4.471   5.635  10.012 -0.8757 -1.5693  1.0354
  113OSM    H9T11763   4.339   5.754   9.980 -2.4848 -1.1202  0.5034
  113OSM   C10S11764   4.305   5.560   9.883 -0.1019 -0.5155 -0.2115
  113OSM   H10S11765   4.205   5.605   9.863 -0.2029 -1.3582 -1.8388
  113OSM   H10T11766   4.277   5.458   9.920 -3.8484  0.2369 -0.5302
  113OSM   C11S11767   4.381   5.560   9.757  0.2798 -0.2446  0.1677
  113OSM   H11S11768   4.479   5.508   9.756  0.0453 -0.6968 -1.3080
  113OSM   H11T11769   4.379   5.669   9.734  1.1336 -0.5798 -1.6168
  113OSM   C12S11770   4.297   5.499   9.639  0.0276 -0.4883  0.6419
  113OSM   H12S11771   4.188   5.509   9.657 -0.6228 -0.0907 -2.7897
  113OSM   H12T11772   4.301   5.388   9.637  1.0993 -0.4617 -0.6830
  113OSM   C13S11773   4.336   5.573   9.508 -0.5234  0.5590 -0.6508
  113OSM   H13S11774   4.446   5.561   9.499 -0.2285  0.6526  2.1170
  113OSM   H13T11775   4.331   5.684   9.510 -0.7806  0.6151 -2.3709
  113OSM   C14S11776   4.263   5.526   9.385  0.3092  0.3868  0.8477
  113OSM   H14S11777   4.172   5.586   9.366 -1.0654 -1.3940  1.4836
  113OSM   H14T11778   4.223   5.423   9.401  1.7808 -0.6352 -1.4247
  113OSM   C15S11779   4.361   5.511   9.270  0.1081  0.7812 -0.0368
  113OSM   H15S11780   4.449   5.450   9.299 -0.5139 -1.0775 -1.8169
  113OSM   H15T11781   4.404   5.609   9.239  2.2813  0.0926  0.6540
  113OSM   C16S11782   4.289   5.453   9.148  0.5359  0.2346 -0.3167
  113OSM   H16S11783   4.215   5.375   9.177 -0.1862  1.0480  0.0761
  113OSM   H16T11784   4.370   5.396   9.099 -1.7684 -3.1108 -0.5788
  113OSM   C17S11785   4.210   5.553   9.069 -0.4624 -0.3918  0.3085
  113OSM   H17S11786   4.281   5.636   9.050 -0.6565 -0.0624  0.9990
  113OSM   H17T11787   4.121   5.594   9.122  1.3189  0.5959  2.7192
  113OSM   C18S11788   4.180   5.490   8.927  0.2269  0.3308  0.0863
  113OSM   H18S11789   4.113   5.553   8.866  1.5650  1.0762 -0.6493
  113OSM   H18T11790   4.141   5.388   8.949 -0.0710  0.7241  1.4527
  113OSM   H18U11791   4.275   5.467   8.873 -0.3798 -1.6273 -0.2258
  113OSM    C1F11792   4.748   6.054  10.533  0.1289 -0.2027 -0.3114
  113OSM     OF11793   4.816   6.026  10.629  0.2158  0.0469  0.1723
  113OSM    C2F11794   4.805   6.093  10.402  0.6655  0.5442 -0.4661
  113OSM    H2F11795   4.915   6.101  10.411  0.5648  1.9872 -0.3048
  113OSM    H2G11796   4.766   6.195  10.381  0.2558  0.1649 -1.6619
  113OSM    C3F11797   4.767   6.007  10.279 -0.5085  0.2016  0.2742
  113OSM    H3F11798   4.806   6.054  10.186 -0.7755 -1.3443 -0.6639
  113OSM    H3G11799   4.656   6.005  10.269 -0.7954 -0.1663  2.9626
  113OSM    C4F11800   4.827   5.866  10.288 -0.1585 -0.3245 -0.0574
  113OSM    H4F11801   4.792   5.821  10.383 -1.1431 -2.3407 -1.3058
  113OSM    H4G11802   4.938   5.871  10.277 -0.1862  0.2888 -0.0897
  113OSM    C5F11803   4.791   5.772  10.182  0.3972  0.2534  0.1096
  113OSM    H5F11804   4.683   5.750  10.165  0.3063 -1.4673  2.3735
  113OSM    H5G11805   4.843   5.682  10.220 -1.2098  0.0974  2.1326
  113OSM    C6F11806   4.844   5.810  10.045  0.3685 -0.2392 -0.2524
  113OSM    H6F11807   4.951   5.841  10.043  1.2638 -3.0290 -1.1909
  113OSM    H6G11808   4.799   5.903  10.005  2.8411  0.8865 -0.6381
  113OSM    C7F11809   4.811   5.695   9.955 -0.4694  0.3418  0.1457
  113OSM    H7F11810   4.706   5.703   9.919 -0.9645 -1.0515  1.1626
  113OSM    H7G11811   4.829   5.605  10.018 -3.7959  0.4865  1.5260
  113OSM    C8F11812   4.893   5.694   9.825 -0.5166 -0.3490  0.8000
  113OSM    H8F11813   5.000   5.706   9.855 -1.5742  1.5487  4.3114
  113OSM    H8G11814   4.879   5.788   9.768 -0.4489 -0.8642 -0.0851
  113OSM    C9F11815   4.864   5.569   9.741  0.7669 -0.4068  0.0129
  113OSM    H9F11816   4.905   5.479   9.790  1.1132 -0.0244  0.4369
  113OSM   C10F11817   4.801   5.557   9.620  0.2378 -0.2682 -0.0306
  113OSM   H10F11818   4.789   5.455   9.581 -1.1821  0.3405 -1.2957
  113OSM   C11F11819   4.740   5.660   9.536  0.2698 -0.7294 -0.4347
  113OSM   H11F11820   4.751   5.753   9.595 -1.2665 -1.0623  0.4443
  113OSM   H11G11821   4.633   5.632   9.526  0.3623 -0.5395 -2.3500
  113OSM   C12F11822   4.817   5.673   9.401  0.0399  0.0890 -0.3782
  113OSM   H12F11823   4.915   5.621   9.402 -0.0491 -0.0864  0.9918
  113OSM   H12G11824   4.834   5.782   9.390 -1.2166  0.3520  0.0778
  113OSM   C13F11825   4.745   5.621   9.279  0.7365 -0.2656  0.1176
  113OSM   H13F11826   4.634   5.626   9.286  0.8447 -0.3949  2.7213
  113OSM   H13G11827   4.751   5.512   9.257  2.0552 -0.1830 -0.0371
  113OSM   C14F11828   4.790   5.697   9.150 -0.7380 -0.1423  0.0556
  113OSM   H14F11829   4.899   5.679   9.144 -0.8778 -0.9254 -0.3070
  113OSM   H14G11830   4.771   5.806   9.163 -3.8691 -0.5588 -0.2987
  113OSM   C15F11831   4.717   5.657   9.020  0.8335 -0.7253 -0.6114
  113OSM   H15F11832   4.760   5.726   8.944  1.3951 -1.2433 -0.7723
  113OSM   H15G11833   4.607   5.665   9.028  0.8733 -1.0375  0.4313
  113OSM   C16F11834   4.752   5.522   8.976 -0.5142 -0.0967 -0.1548
  113OSM   H16F11835   4.715   5.444   9.046 -2.6462  1.9956  1.2062
  113OSM   H16G11836   4.860   5.500   8.960 -0.4936 -0.4969  0.4870
  113OSM   C17F11837   4.678   5.489   8.850  0.3058 -0.2503  0.7462
  113OSM   H17F11838   4.569   5.509   8.863  0.2848  0.0374  0.1530
  113OSM   H17G11839   4.690   5.379   8.839 -1.9782 -0.5887  1.1938
  113OSM   C18F11840   4.740   5.546   8.724 -0.7951  0.3719  0.0169
  113OSM   H18F11841   4.673   5.529   8.637  0.8882 -0.8742 -1.0904
  113OSM   H18G11842   4.838   5.499   8.699 -1.1157  0.0800 -0.7157
  113OSM   H18H11843   4.759   5.655   8.734  1.0384  0.3792 -2.4561
  114OSM      N11844   4.656   5.044  11.332 -0.1225 -0.1373  0.4598
  114OSM    C1511845   4.788   5.042  11.400 -0.0454  0.0262 -0.8072
  114OSM   H15A11846   4.867   5.095  11.350  0.4165  0.5092  0.4035
  114OSM   H15B11847   4.813   4.937  11.410  0.3397  0.1679 -0.2278
  114OSM   H15C11848   4.763   5.076  11.499 -3.5962 -2.8692 -0.5056
  114OSM    C1411849   4.561   4.956  11.399  0.5027  0.1190  0.5000
  114OSM   H14A11850   4.531   4.995  11.495 -0.0904  2.7149 -0.6400
  114OSM   H14B11851   4.606   4.859  11.415 -1.4488 -0.9560 -0.2207
  114OSM   H14C11852   4.477   4.933  11.335  1.1431 -0.2634 -0.2296
  114OSM    C1311853   4.598   5.181  11.332 -0.0257  0.4607 -0.2901
  114OSM   H13A11854   4.524   5.190  11.254 -0.5671  0.5883  0.2319
  114OSM   H13B11855   4.671   5.257  11.310 -0.0283 -0.0694 -2.3266
  114OSM   H13C11856   4.549   5.210  11.424  1.2191  3.5792 -0.4908
  114OSM    C1211857   4.680   5.011  11.189 -0.1609  0.5311 -0.0925
  114OSM   H12A11858   4.733   4.917  11.181  1.1537  1.4155 -3.3022
  114OSM   H12B11859   4.760   5.067  11.143  1.6496 -1.3904  0.4964
  114OSM    C1111860   4.558   5.008  11.090  0.2743  0.1737 -0.2655
  114OSM   H11A11861   4.490   4.935  11.139  1.8155 -0.9023  0.3642
  114OSM   H11B11862   4.584   4.953  10.996 -0.7424 -0.4627 -0.1890
  114OSM      P11863   4.568   5.231  10.958 -0.7935  0.0269 -0.0406
  114OSM    O1311864   4.506   5.366  10.957  0.2919 -0.4440 -0.4890
  114OSM    O1411865   4.717   5.231  10.978  0.3482 -0.5428  0.2578
  114OSM    O1111866   4.530   5.158  10.828 -0.4727 -0.4762  0.0258
  114OSM    O1211867   4.498   5.137  11.067  1.0196 -0.0310 -0.1581
  114OSM    C1S11868   4.515   5.239  10.707 -0.2004 -0.2096 -0.2370
  114OSM    H1S11869   4.564   5.338  10.711  0.4755 -0.4222 -2.1052
  114OSM    H1T11870   4.408   5.238  10.679  0.0796 -2.0380 -1.4498
  114OSM     NF11871   4.556   5.256  10.476  0.1007 -0.2203 -0.9982
  114OSM    HNF11872   4.465   5.264  10.438 -0.0520 -0.2992 -0.6583
  114OSM    C2S11873   4.588   5.173  10.595 -0.3418 -0.0025  0.3724
  114OSM    H2S11874   4.698   5.172  10.609 -0.1463  0.8044 -0.9993
  114OSM    C3S11875   4.535   5.025  10.575 -0.3268  0.5691 -0.0857
  114OSM    H3S11876   4.424   5.027  10.575 -0.3479  0.7185 -2.0546
  114OSM     O311877   4.581   4.936  10.684  0.4749  0.1338  0.3531
  114OSM    HO311878   4.620   5.000  10.744 -1.1423  3.1270 -1.5116
  114OSM    C4S11879   4.556   4.969  10.435 -0.0872  0.5916  0.2421
  114OSM    H4S11880   4.473   4.984  10.364  0.0700  1.2165  0.1813
  114OSM    C5S11881   4.666   4.911  10.381 -0.0293  0.3793 -0.1380
  114OSM    H5S11882   4.746   4.891  10.454 -1.6122 -2.8882  0.9022
  114OSM    C6S11883   4.687   4.857  10.240  0.0296 -0.4952  0.3379
  114OSM    H6S11884   4.725   4.754  10.259 -1.5949 -0.4591  5.0888
  114OSM    H6T11885   4.766   4.916  10.189 -0.9957  1.7664  1.2253
  114OSM    C7S11886   4.569   4.842  10.142 -0.0641 -0.4531 -0.4620
  114OSM    H7S11887   4.529   4.942  10.115 -0.9874 -0.5289  0.5244
  114OSM    H7T11888   4.488   4.796  10.204  0.5139  0.0987  0.7353
  114OSM    C8S11889   4.616   4.749  10.022 -0.9362 -0.4377 -0.6620
  114OSM    H8S11890   4.645   4.653  10.069  1.0812  0.6963  0.5277
  114OSM    H8T11891   4.705   4.804   9.986 -0.0605 -0.4553  1.3363
  114OSM    C9S11892   4.525   4.732   9.903  0.0313 -1.3600  0.3259
  114OSM    H9S11893   4.467   4.823   9.881  2.2394  0.0626  0.0575
  114OSM    H9T11894   4.459   4.647   9.931 -1.9234  0.4214  1.3704
  114OSM   C10S11895   4.602   4.695   9.779 -0.6403 -0.5516  0.0745
  114OSM   H10S11896   4.678   4.621   9.815 -1.8818 -0.3924  3.4415
  114OSM   H10T11897   4.656   4.783   9.741 -0.5595 -0.1010  1.1913
  114OSM   C11S11898   4.503   4.633   9.676 -0.7176  0.5898 -0.1505
  114OSM   H11S11899   4.438   4.714   9.639 -3.0680 -0.9947  0.3037
  114OSM   H11T11900   4.434   4.565   9.731  1.0685 -0.1995  1.2719
  114OSM   C12S11901   4.565   4.566   9.553  0.5552  0.2961 -0.8460
  114OSM   H12S11902   4.595   4.463   9.580 -1.5739 -0.3405 -0.7232
  114OSM   H12T11903   4.656   4.624   9.527  1.0037 -0.0303 -0.0570
  114OSM   C13S11904   4.467   4.551   9.440  0.1249 -0.0747  0.4737
  114OSM   H13S11905   4.369   4.512   9.477 -0.3663  0.9758  0.3213
  114OSM   H13T11906   4.510   4.467   9.382  1.1734  0.0275  1.0766
  114OSM   C14S11907   4.463   4.673   9.347  0.3542 -0.2332 -0.1976
  114OSM   H14S11908   4.566   4.710   9.326  1.9914 -3.4436  1.4763
  114OSM   H14T11909   4.420   4.749   9.415  2.2352 -1.1066  2.1152
  114OSM   C15S11910   4.382   4.668   9.217 -0.1049 -0.5551  0.0161
  114OSM   H15S11911   4.364   4.769   9.175  0.9803 -0.5688 -0.5090
  114OSM   H15T11912   4.286   4.616   9.240  0.7499 -2.5425 -0.6620
  114OSM   C16S11913   4.460   4.582   9.120 -0.2252  0.0221  0.1494
  114OSM   H16S11914   4.456   4.474   9.145 -0.3130  0.3530  1.6081
  114OSM   H16T11915   4.563   4.622   9.129  0.6543 -1.7994 -1.0704
  114OSM   C17S11916   4.416   4.604   8.972 -0.2155 -0.0007  0.4213
  114OSM   H17S11917   4.446   4.708   8.949 -1.5952  0.0341 -1.4272
  114OSM   H17T11918   4.305   4.604   8.964 -0.1184  0.0510 -1.1002
  114OSM   C18S11919   4.483   4.512   8.874 -0.1504  0.3184  0.7236
  114OSM   H18S11920   4.439   4.411   8.885 -0.9707  0.5286 -0.4182
  114OSM   H18T11921   4.592   4.503   8.890  0.0695  1.0043 -0.2926
  114OSM   H18U11922   4.462   4.543   8.769 -1.6851  1.2551  1.2748
  114OSM    C1F11923   4.631   5.364  10.449  0.8139 -0.0380  1.1070
  114OSM     OF11924   4.725   5.398  10.521  0.5388 -0.1939 -0.0937
  114OSM    C2F11925   4.600   5.448  10.326  0.5885 -0.1841  0.1081
  114OSM    H2F11926   4.650   5.545  10.346 -3.4389  1.7789  1.7169
  114OSM    H2G11927   4.491   5.466  10.327  0.6956  0.4593  0.5655
  114OSM    C3F11928   4.652   5.398  10.189 -0.1062  0.2141 -0.4729
  114OSM    H3F11929   4.754   5.357  10.204  0.4841  2.4783  2.6304
  114OSM    H3G11930   4.663   5.472  10.107  0.4783 -0.0308 -0.6184
  114OSM    C4F11931   4.563   5.275  10.137  0.1274  0.8446  0.0123
  114OSM    H4F11932   4.461   5.281  10.181  1.1372  3.4103  2.3388
  114OSM    H4G11933   4.607   5.180  10.174  0.3545  0.9970  0.1355
  114OSM    C5F11934   4.537   5.258   9.981  0.2632  0.2334  0.0747
  114OSM    H5F11935   4.499   5.354   9.940 -0.8075 -0.3438 -0.3251
  114OSM    H5G11936   4.460   5.178   9.973  1.6734 -1.4520  2.2380
  114OSM    C6F11937   4.659   5.207   9.910 -0.2779 -0.0281 -0.1105
  114OSM    H6F11938   4.657   5.097   9.931  0.5948 -0.2646 -1.1913
  114OSM    H6G11939   4.745   5.257   9.958 -0.4433  1.6216 -1.4630
  114OSM    C7F11940   4.657   5.236   9.763 -0.4037  0.5463  0.0738
  114OSM    H7F11941   4.751   5.207   9.711 -0.8420 -1.3959  0.2932
  114OSM    H7G11942   4.683   5.342   9.742 -0.9351  0.7146  0.2648
  114OSM    C8F11943   4.538   5.185   9.683 -0.1055  0.1123  0.0951
  114OSM    H8F11944   4.445   5.217   9.734 -0.5284  1.2117 -1.3045
  114OSM    H8G11945   4.538   5.074   9.673  2.0694 -0.1664  2.1523
  114OSM    C9F11946   4.547   5.254   9.547  0.6932  0.1792  0.5176
  114OSM    H9F11947   4.493   5.349   9.541  0.1787 -0.0670  1.1780
  114OSM   C10F11948   4.610   5.211   9.433 -0.1985 -0.3852 -0.6519
  114OSM   H10F11949   4.601   5.271   9.341 -1.9204 -0.4485 -0.5702
  114OSM   C11F11950   4.687   5.074   9.415 -0.0140  0.8661 -0.6962
  114OSM   H11F11951   4.694   5.018   9.510 -0.3313  0.1455 -1.0879
  114OSM   H11G11952   4.789   5.086   9.373  0.1595 -0.5411 -0.6984
  114OSM   C12F11953   4.613   4.996   9.308  0.2262 -0.0463 -0.3330
  114OSM   H12F11954   4.503   4.985   9.314  0.4030 -2.2471 -0.1464
  114OSM   H12G11955   4.649   4.891   9.305  2.9695  0.7882 -0.0854
  114OSM   C13F11956   4.631   5.048   9.167  0.6273  0.2208  0.1524
  114OSM   H13F11957   4.591   5.152   9.166 -2.0355 -0.7026 -2.1180
  114OSM   H13G11958   4.570   4.996   9.090  0.2688  1.8091 -0.6874
  114OSM   C14F11959   4.779   5.045   9.112 -0.9139  1.2381  0.1601
  114OSM   H14F11960   4.827   4.956   9.158 -4.9795 -1.0002  0.5301
  114OSM   H14G11961   4.837   5.136   9.135  3.1227 -0.6342 -1.6523
  114OSM   C15F11962   4.777   5.031   8.961 -0.0439  0.1099 -0.1080
  114OSM   H15F11963   4.720   5.114   8.913  1.6372  0.4318 -1.6536
  114OSM   H15G11964   4.719   4.943   8.925  0.4127  1.0921 -3.6648
  114OSM   C16F11965   4.907   5.041   8.882  0.0993  0.2852 -0.1157
  114OSM   H16F11966   4.978   4.962   8.913  1.8173  1.7068 -0.2571
  114OSM   H16G11967   4.962   5.136   8.897  0.7413  0.2250 -1.9385
  114OSM   C17F11968   4.879   5.025   8.733  0.1676 -0.2331 -0.4814
  114OSM   H17F11969   4.826   4.929   8.714  0.8492 -0.9790  1.1483
  114OSM   H17G11970   4.983   5.012   8.695  1.1743  0.1186  1.9862
  114OSM   C18F11971   4.802   5.136   8.660  0.1356  0.0504 -0.4459
  114OSM   H18F11972   4.697   5.146   8.696 -0.1623  1.2093 -1.5768
  114OSM   H18G11973   4.788   5.100   8.556 -0.9123 -0.5845 -0.1052
  114OSM   H18H11974   4.859   5.230   8.651  0.8982 -0.3891 -0.2804
  115OSM      N11975   0.057   0.358  11.351 -0.1132  0.0771  1.0431
  115OSM    C1511976   0.101   0.501  11.359 -0.1801 -0.0011  0.0220
  115OSM   H15A11977   0.168   0.517  11.276  1.5809 -0.1975  1.3357
  115OSM   H15B11978   0.143   0.525  11.455  0.8532  1.0463 -0.6761
  115OSM   H15C11979   0.022   0.568  11.329  0.0635 -0.5237 -1.9266
  115OSM    C1411980   0.183   0.275  11.364 -0.0888 -0.1360 -1.1452
  115OSM   H14A11981   0.269   0.316  11.312  1.1180 -2.5693 -1.1656
  115OSM   H14B11982   0.158   0.175  11.335  3.1138 -1.6117  0.6442
  115OSM   H14C11983   0.206   0.274  11.469 -3.5542 -1.3530 -0.2674
  115OSM    C1311984  -0.044   0.325  11.449  0.7172  0.6706  0.0677
  115OSM   H13A11985  -0.055   0.218  11.460 -0.1393  0.7531  0.1105
  115OSM   H13B11986  -0.140   0.370  11.427  0.3453  0.1401  0.5721
  115OSM   H13C11987  -0.023   0.363  11.548 -1.9554 -0.2474  1.0858
  115OSM    C1211988   0.006   0.327  11.215  0.3941  0.3612  0.5327
  115OSM   H12A11989  -0.082   0.390  11.208 -1.4079 -1.9008  1.4109
  115OSM   H12B11990  -0.041   0.230  11.205 -3.1783  2.0690 -1.2760
  115OSM    C1111991   0.080   0.359  11.080  0.6386  0.8868  0.3322
  115OSM   H11A11992   0.033   0.298  10.999  0.8923 -1.5083  1.8729
  115OSM   H11B11993   0.182   0.315  11.090  0.0307 -0.4104  1.1421
  115OSM      P11994  -0.042   0.554  10.981 -0.4262  0.4571  0.3146
  115OSM    O1311995  -0.159   0.499  11.046 -0.0509  0.5815 -0.4644
  115OSM    O1411996  -0.026   0.698  10.965 -0.4007  0.2727  0.1923
  115OSM    O1111997  -0.040   0.500  10.830  0.5343 -0.0818 -0.0462
  115OSM    O1211998   0.087   0.492  11.042  0.0187  0.0067  0.3181
  115OSM    C1S11999   0.084   0.485  10.762 -0.2233  0.4792  0.9827
  115OSM    H1S12000   0.135   0.392  10.794  0.3052  0.4270  0.0207
  115OSM    H1T12001   0.154   0.565  10.796  1.6743 -1.0498  0.7885
  115OSM     NF12002   0.188   0.457  10.537  0.0817 -0.4287 -0.2244
  115OSM    HNF12003   0.246   0.536  10.513 -1.5619  1.0898  0.5720
  115OSM    C2S12004   0.062   0.487  10.605  0.0308 -0.3752 -0.4045
  115OSM    H2S12005  -0.012   0.410  10.575  0.6256 -0.4510 -1.7651
  115OSM    C3S12006   0.007   0.627  10.563  0.5623  0.3565 -0.0036
  115OSM    H3S12007   0.091   0.697  10.580 -1.3000  2.5637  0.6850
  115OSM     O312008  -0.102   0.681  10.632  0.7661  0.2618 -0.5694
  115OSM    HO312009  -0.106   0.620  10.706  0.8725  1.2189  0.2388
  115OSM    C4S12010  -0.032   0.640  10.417  0.2386 -0.0830  0.1400
  115OSM    H4S12011   0.048   0.670  10.347  0.7519  0.0124  0.7558
  115OSM    C5S12012  -0.149   0.628  10.357  0.7445 -0.7567  0.6900
  115OSM    H5S12013  -0.242   0.606  10.412  0.1031  0.8833  0.3119
  115OSM    C6S12014  -0.178   0.659  10.202 -0.4425  0.0644 -0.8887
  115OSM    H6S12015  -0.091   0.722  10.174 -1.0776  0.6952 -1.4671
  115OSM    H6T12016  -0.270   0.721  10.193 -0.9120 -0.2957  1.0193
  115OSM    C7S12017  -0.187   0.529  10.117 -0.1690 -0.0975  0.5975
  115OSM    H7S12018  -0.227   0.437  10.164  1.7467 -0.7260  1.1074
  115OSM    H7T12019  -0.082   0.503  10.090 -0.1810  0.0055  0.4494
  115OSM    C8S12020  -0.231   0.555   9.972  0.2465 -0.0828  0.1922
  115OSM    H8S12021  -0.173   0.641   9.933  1.5490  0.1908  2.5703
  115OSM    H8T12022  -0.337   0.586   9.969 -0.1059 -1.1861  0.6987
  115OSM    C9S12023  -0.208   0.428   9.892  0.8799  0.4302  0.3627
  115OSM    H9S12024  -0.266   0.345   9.937 -0.6839  0.8845 -0.6865
  115OSM    H9T12025  -0.101   0.401   9.885  1.4466  2.4890  0.2867
  115OSM   C10S12026  -0.249   0.461   9.746 -0.5344  0.5506  0.9770
  115OSM   H10S12027  -0.216   0.563   9.718 -0.6314  0.3066 -0.0706
  115OSM   H10T12028  -0.360   0.456   9.744 -0.6459  1.9404 -1.7835
  115OSM   C11S12029  -0.201   0.359   9.641  0.1328 -0.0159  0.0156
  115OSM   H11S12030  -0.208   0.253   9.676 -1.7229  0.4486  1.2353
  115OSM   H11T12031  -0.094   0.384   9.626 -0.3231  0.6342 -2.6464
  115OSM   C12S12032  -0.289   0.367   9.516 -0.5968  0.0308 -0.0939
  115OSM   H12S12033  -0.389   0.416   9.519 -0.0070  1.2623 -0.1355
  115OSM   H12T12034  -0.307   0.267   9.472 -1.3434  0.0786  0.0841
  115OSM   C13S12035  -0.215   0.455   9.415 -0.7528  0.0324  0.0188
  115OSM   H13S12036  -0.112   0.415   9.404  0.9882  3.6585  1.6457
  115OSM   H13T12037  -0.197   0.560   9.446 -0.1358 -0.0088 -0.1819
  115OSM   C14S12038  -0.287   0.461   9.280 -0.1636  0.9805  0.2172
  115OSM   H14S12039  -0.379   0.523   9.288 -0.7663 -0.0418  1.5528
  115OSM   H14T12040  -0.325   0.366   9.237  1.5590  0.8375 -1.1055
  115OSM   C15S12041  -0.189   0.528   9.178  0.1560  0.2859 -0.0780
  115OSM   H15S12042  -0.100   0.467   9.153 -0.9841 -2.0108  1.1942
  115OSM   H15T12043  -0.158   0.626   9.222  2.0757 -0.0280 -0.6435
  115OSM   C16S12044  -0.267   0.573   9.050  0.1084  0.0208 -0.2038
  115OSM   H16S12045  -0.365   0.612   9.086 -0.7325 -0.7261 -1.6160
  115OSM   H16T12046  -0.285   0.489   8.981  1.1449 -0.3328 -0.0659
  115OSM   C17S12047  -0.193   0.682   8.979 -0.3252 -0.4739  0.1995
  115OSM   H17S12048  -0.181   0.768   9.049  1.1306 -0.4198 -0.0874
  115OSM   H17T12049  -0.256   0.718   8.896 -1.1680  1.7918  1.6973
  115OSM   C18S12050  -0.057   0.625   8.927  0.1997 -0.3124 -0.2643
  115OSM   H18S12051  -0.006   0.706   8.870  3.9484 -0.3746  2.6429
  115OSM   H18T12052  -0.065   0.540   8.856 -0.4885 -1.4896  1.1886
  115OSM   H18U12053   0.001   0.589   9.014  1.3817  0.5512 -0.6641
  115OSM    C1F12054   0.238   0.335  10.519  0.2070 -0.9357 -0.0020
  115OSM     OF12055   0.183   0.235  10.557  0.1179  0.0300  0.3811
  115OSM    C2F12056   0.390   0.339  10.484 -0.2884  0.6487 -0.6827
  115OSM    H2F12057   0.450   0.284  10.559 -0.5447 -0.7750 -1.4749
  115OSM    H2G12058   0.419   0.445  10.469 -2.5360  1.1006 -2.5391
  115OSM    C3F12059   0.417   0.266  10.351 -0.0634 -0.1918  0.0855
  115OSM    H3F12060   0.513   0.303  10.307 -0.7856 -2.0285 -3.3375
  115OSM    H3G12061   0.346   0.300  10.272  1.4590  1.6743 -0.5883
  115OSM    C4F12062   0.409   0.116  10.350 -0.5418  0.2575 -0.1899
  115OSM    H4F12063   0.306   0.088  10.380 -1.1663  0.8412 -1.6830
  115OSM    H4G12064   0.486   0.077  10.421  2.5814  1.9058 -2.4027
  115OSM    C5F12065   0.437   0.035  10.219 -0.0709  0.2820  0.1703
  115OSM    H5F12066   0.547   0.031  10.204  0.0642  1.8929  0.5534
  115OSM    H5G12067   0.386   0.059  10.123 -2.3342 -0.6407  1.0696
  115OSM    C6F12068   0.400  -0.114  10.239  0.0372  0.3239 -0.3957
  115OSM    H6F12069   0.293  -0.113  10.268  0.3193  0.3812  0.7069
  115OSM    H6G12070   0.452  -0.159  10.326  0.1922 -1.0597 -1.1800
  115OSM    C7F12071   0.442  -0.195  10.121  0.8465  0.4317  0.5226
  115OSM    H7F12072   0.548  -0.170  10.098  1.0650 -0.9016  0.0213
  115OSM    H7G12073   0.378  -0.188  10.031 -3.0959 -0.2722  3.0174
  115OSM    C8F12074   0.443  -0.345  10.164 -0.0066 -0.2885 -0.3935
  115OSM    H8F12075   0.483  -0.347  10.268  0.9861 -1.8863 -0.7702
  115OSM    H8G12076   0.520  -0.394  10.100  2.0860 -0.8104  2.3429
  115OSM    C9F12077   0.312  -0.424  10.154  0.8275  0.3038 -0.0661
  115OSM    H9F12078   0.250  -0.452  10.241  0.0988 -0.8901 -0.9423
  115OSM   C10F12079   0.249  -0.465  10.041 -0.4019  0.4147  0.3279
  115OSM   H10F12080   0.161  -0.529  10.058  0.3672 -1.3900 -1.9398
  115OSM   C11F12081   0.294  -0.434   9.897  0.1503  0.4778 -0.0758
  115OSM   H11F12082   0.401  -0.405   9.894  1.0539 -2.4723  0.2498
  115OSM   H11G12083   0.227  -0.356   9.855 -2.7190 -0.7348  1.9183
  115OSM   C12F12084   0.279  -0.548   9.801 -0.2949  0.2891  0.3248
  115OSM   H12F12085   0.188  -0.605   9.828 -0.9849  0.8237 -0.7765
  115OSM   H12G12086   0.368  -0.614   9.798 -1.3379 -1.1114 -1.7020
  115OSM   C13F12087   0.281  -0.510   9.652 -0.6622 -0.0544  0.4362
  115OSM   H13F12088   0.384  -0.472   9.634 -0.5093  0.7562  2.6456
  115OSM   H13G12089   0.226  -0.417   9.625  1.8127  1.1683 -0.6680
  115OSM   C14F12090   0.257  -0.626   9.553 -0.2901 -0.1369 -0.2375
  115OSM   H14F12091   0.153  -0.665   9.552  0.1026 -1.2398  0.2567
  115OSM   H14G12092   0.322  -0.712   9.578  2.1927  1.6168 -0.3392
  115OSM   C15F12093   0.295  -0.575   9.414  0.0143  0.3048 -0.3948
  115OSM   H15F12094   0.318  -0.663   9.350  0.3165  1.0487 -1.3363
  115OSM   H15G12095   0.384  -0.508   9.414  0.5788 -0.3202  2.0705
  115OSM   C16F12096   0.180  -0.507   9.345 -0.0244 -0.0261 -0.7745
  115OSM   H16F12097   0.151  -0.413   9.397  0.3534  0.7425 -1.8906
  115OSM   H16G12098   0.087  -0.566   9.353  0.9618 -1.6889 -1.2049
  115OSM   C17F12099   0.207  -0.458   9.205  0.3175  0.5370  0.4183
  115OSM   H17F12100   0.221  -0.544   9.137 -1.7079  0.5996 -0.1511
  115OSM   H17G12101   0.293  -0.387   9.208  0.3268  0.5081  1.0817
  115OSM   C18F12102   0.092  -0.379   9.145  0.1525  0.0898  0.3043
  115OSM   H18F12103   0.138  -0.327   9.059  1.1620 -1.7274 -0.3188
  115OSM   H18G12104   0.043  -0.316   9.222  1.0723  0.2760  0.7491
  115OSM   H18H12105   0.015  -0.448   9.105  0.1941  0.3777 -0.2828
  116OSM      N12106   6.022   1.513  11.047  0.1625 -0.2570  0.2697
  116OSM    C1512107   5.922   1.560  10.941  0.1943 -0.7100 -0.3873
  116OSM   H15A12108   5.906   1.666  10.948 -1.5780 -0.9889  0.3566
  116OSM   H15B12109   5.825   1.518  10.963  0.6197 -2.9415 -2.2405
  116OSM   H15C12110   5.942   1.525  10.841 -0.7175 -0.1382 -0.7877
  116OSM    C1412111   6.002   1.604  11.167 -0.5262  0.2412 -0.3740
  116OSM   H14A12112   6.024   1.709  11.153 -0.0615  0.0757 -0.9225
  116OSM   H14B12113   6.050   1.564  11.255 -0.3683 -1.6847 -1.2792
  116OSM   H14C12114   5.901   1.592  11.202  0.0245 -1.8572  0.6127
  116OSM    C1312115   5.984   1.378  11.100  0.2610 -0.1882 -0.0291
  116OSM   H13A12116   5.990   1.310  11.017  3.2044 -0.2697  0.1426
  116OSM   H13B12117   5.883   1.386  11.136  0.2965  0.4054 -0.0491
  116OSM   H13C12118   6.054   1.342  11.174 -1.0025  0.6963  1.6644
  116OSM    C1212119   6.160   1.506  10.992  0.1484  0.5315 -0.2365
  116OSM   H12A12120   6.228   1.478  11.071  0.3736  0.1315 -0.5643
  116OSM   H12B12121   6.190   1.604  10.959 -2.4533  1.4765 -0.0323
  116OSM    C1112122   6.180   1.405  10.876 -0.0721 -0.3817 -0.5671
  116OSM   H11A12123   6.284   1.421  10.841  0.5283  0.9418  1.6359
  116OSM   H11B12124   6.113   1.448  10.799 -0.2534 -0.9199 -0.7140
  116OSM      P12125   6.262   1.158  10.934 -0.2022 -0.1047 -0.1876
  116OSM    O1312126   6.378   1.223  11.000  0.4528  0.0602  0.3362
  116OSM    O1412127   6.207   1.034  10.997  0.5595  0.2780  0.2217
  116OSM    O1112128   6.305   1.125  10.788  0.5253  0.0707  0.0855
  116OSM    O1212129   6.145   1.267  10.910 -0.7192  0.2575 -0.2205
  116OSM    C1S12130   6.208   1.041  10.714 -0.5752 -0.5174 -0.1742
  116OSM    H1S12131   6.114   1.009  10.763 -0.1691 -1.7651 -0.1794
  116OSM    H1T12132   6.263   0.949  10.687  3.7486  2.0291 -1.0674
  116OSM     NF12133   6.134   0.987  10.482 -0.7001  0.4883  0.2797
  116OSM    HNF12134   6.209   0.953  10.427 -1.1124 -0.7016  0.4248
  116OSM    C2S12135   6.170   1.096  10.573  0.5310 -0.1979  0.4376
  116OSM    H2S12136   6.076   1.153  10.585  0.3231 -0.2962 -0.6108
  116OSM    C3S12137   6.292   1.186  10.526  0.8321  0.1128  0.4586
  116OSM    H3S12138   6.385   1.126  10.528  0.4397 -0.4838  1.1752
  116OSM     O312139   6.317   1.305  10.596 -0.1340  0.2238 -0.1346
  116OSM    HO312140   6.271   1.294  10.680  3.2903 -0.8772  1.7832
  116OSM    C4S12141   6.282   1.236  10.385  0.0897 -0.5724 -0.0220
  116OSM    H4S12142   6.194   1.301  10.374  0.3167 -0.3786 -0.7774
  116OSM    C5S12143   6.354   1.195  10.274 -0.3921 -0.3735 -0.0632
  116OSM    H5S12144   6.418   1.106  10.284  0.2690  0.0780 -0.2003
  116OSM    C6S12145   6.334   1.248  10.134 -0.2213  0.6320 -0.6419
  116OSM    H6S12146   6.431   1.240  10.082 -1.5651 -2.6909 -2.9152
  116OSM    H6T12147   6.296   1.353  10.133  0.9616  1.0675 -1.6953
  116OSM    C7S12148   6.253   1.153  10.048  0.6117  0.1139  0.1799
  116OSM    H7S12149   6.154   1.125  10.090  1.1738 -1.2342  0.6437
  116OSM    H7T12150   6.308   1.056  10.048 -0.5991 -0.6719  2.9178
  116OSM    C8S12151   6.220   1.204   9.907  0.1880  0.6863  0.6778
  116OSM    H8S12152   6.140   1.281   9.917 -0.3272 -0.0755  3.1029
  116OSM    H8T12153   6.183   1.110   9.861 -1.1890  0.3315  2.3925
  116OSM    C9S12154   6.339   1.247   9.828  0.3159  0.0240  0.1765
  116OSM    H9S12155   6.431   1.200   9.870  0.4254 -0.4786 -0.5984
  116OSM    H9T12156   6.359   1.356   9.829  0.7827 -0.0513  1.4606
  116OSM   C10S12157   6.323   1.215   9.683 -0.5157  0.9255  0.7536
  116OSM   H10S12158   6.291   1.110   9.672 -1.5745  1.0494  2.3934
  116OSM   H10T12159   6.419   1.217   9.628 -0.1002 -4.1799  0.8804
  116OSM   C11S12160   6.224   1.302   9.606 -0.5980  0.8144 -0.0817
  116OSM   H11S12161   6.275   1.401   9.599 -0.5810  0.9141  1.1873
  116OSM   H11T12162   6.131   1.320   9.664 -0.2244  0.7923  0.5316
  116OSM   C12S12163   6.201   1.252   9.464 -0.1005  0.6723  0.0162
  116OSM   H12S12164   6.208   1.141   9.463 -1.1555  0.6048 -1.0089
  116OSM   H12T12165   6.275   1.280   9.386 -0.4288 -0.1815 -0.6152
  116OSM   C13S12166   6.061   1.287   9.415  0.3626  0.7975  0.1359
  116OSM   H13S12167   6.042   1.396   9.421 -1.7972  0.4344  0.8752
  116OSM   H13T12168   5.986   1.232   9.475  0.2145 -0.0285 -0.7675
  116OSM   C14S12169   6.029   1.229   9.274 -0.3836  0.0927 -0.4319
  116OSM   H14S12170   5.920   1.209   9.259  0.1167 -2.0231 -1.6161
  116OSM   H14T12171   6.063   1.125   9.261 -1.4392  0.1101 -4.7555
  116OSM   C15S12172   6.089   1.318   9.168  0.7325  0.7309 -0.0945
  116OSM   H15S12173   6.195   1.340   9.194  0.6663  1.8275 -0.6920
  116OSM   H15T12174   6.043   1.419   9.159 -0.9819  0.0559  0.6779
  116OSM   C16S12175   6.089   1.256   9.028 -0.5324  0.2943 -0.2314
  116OSM   H16S12176   6.136   1.155   9.025  1.0542  1.0173 -0.9147
  116OSM   H16T12177   6.160   1.307   8.959 -0.5141 -1.5827 -1.6698
  116OSM   C17S12178   5.952   1.268   8.963  0.4136  0.3281  0.3993
  116OSM   H17S12179   5.925   1.374   8.944  2.8240  1.1300  1.0328
  116OSM   H17T12180   5.889   1.231   9.047  0.6275 -1.2887 -0.1173
  116OSM   C18S12181   5.924   1.184   8.833  0.0163  0.7015 -1.2987
  116OSM   H18S12182   5.823   1.202   8.792 -1.2336 -1.7131  0.4903
  116OSM   H18T12183   5.930   1.080   8.872 -1.5435  1.1914  0.3593
  116OSM   H18U12184   6.009   1.207   8.765  2.8427 -0.1521  1.6666
  116OSM    C1F12185   6.026   0.909  10.496 -0.1116  0.3287 -0.8402
  116OSM     OF12186   5.944   0.927  10.585 -0.0775 -0.1586 -0.3111
  116OSM    C2F12187   6.016   0.796  10.401  0.3466  0.1871  0.3348
  116OSM    H2F12188   6.007   0.704  10.463  0.2371  0.0477  0.1138
  116OSM    H2G12189   6.114   0.787  10.349  0.9073  2.6945  0.8450
  116OSM    C3F12190   5.903   0.812  10.300  0.6674  0.2993  0.0107
  116OSM    H3F12191   5.914   0.900  10.235  0.1685 -0.3473 -0.9765
  116OSM    H3G12192   5.813   0.833  10.362  0.0784 -0.5704 -0.5154
  116OSM    C4F12193   5.892   0.685  10.213 -0.1603 -0.6082 -0.0093
  116OSM    H4F12194   5.891   0.598  10.282  1.1563  0.8791  2.0325
  116OSM    H4G12195   5.990   0.676  10.162  0.4362 -0.0905  0.9953
  116OSM    C5F12196   5.772   0.686  10.121 -0.4504 -0.0147  0.1364
  116OSM    H5F12197   5.690   0.756  10.148  0.1211  0.8534 -0.3436
  116OSM    H5G12198   5.729   0.584  10.126  1.6705 -0.9666 -0.2732
  116OSM    C6F12199   5.808   0.734   9.973 -0.8033  0.3997 -0.8695
  116OSM    H6F12200   5.888   0.667   9.934  0.7136  2.1018 -0.8103
  116OSM    H6G12201   5.852   0.836   9.982 -1.4586  0.6698 -0.7218
  116OSM    C7F12202   5.692   0.732   9.875 -0.1096  0.0671 -0.5487
  116OSM    H7F12203   5.730   0.767   9.776  1.5884  2.0919  0.7257
  116OSM    H7G12204   5.621   0.815   9.897 -0.3947 -0.5195  0.8567
  116OSM    C8F12205   5.625   0.590   9.859 -0.5442 -0.3808  0.5385
  116OSM    H8F12206   5.541   0.615   9.790 -2.7108  0.1975  3.1952
  116OSM    H8G12207   5.582   0.569   9.959  0.6400  4.2505  2.2781
  116OSM    C9F12208   5.711   0.482   9.802 -0.0446 -0.0599  1.1347
  116OSM    H9F12209   5.776   0.427   9.871  1.6197  1.0208  0.5051
  116OSM   C10F12210   5.724   0.453   9.671 -0.3662  0.3058  0.7868
  116OSM   H10F12211   5.796   0.374   9.643 -1.2448  0.4134 -2.1199
  116OSM   C11F12212   5.657   0.511   9.549 -0.3399 -0.2263 -0.7629
  116OSM   H11F12213   5.564   0.564   9.579  0.2973 -0.3240  1.5143
  116OSM   H11G12214   5.623   0.430   9.481 -2.2484 -0.3291  0.2279
  116OSM   C12F12215   5.738   0.605   9.465 -0.3879 -0.1849 -0.4272
  116OSM   H12F12216   5.810   0.537   9.415 -0.6451 -1.6032  1.0505
  116OSM   H12G12217   5.792   0.680   9.528  0.6883 -0.8906 -0.4876
  116OSM   C13F12218   5.664   0.673   9.350 -0.1071 -0.2103  0.2171
  116OSM   H13F12219   5.723   0.734   9.278 -2.4926  2.2147  0.1704
  116OSM   H13G12220   5.599   0.751   9.397 -0.4951 -0.9487  0.9385
  116OSM   C14F12221   5.574   0.572   9.267 -0.1871  0.2143 -0.4960
  116OSM   H14F12222   5.524   0.636   9.192 -0.2357  1.2491  0.3872
  116OSM   H14G12223   5.498   0.526   9.334 -0.4340 -0.7308 -1.3892
  116OSM   C15F12224   5.651   0.459   9.199  0.7075 -0.1453  1.1998
  116OSM   H15F12225   5.578   0.387   9.155  1.8003 -1.5543  1.6281
  116OSM   H15G12226   5.712   0.413   9.279  2.6457  0.4961  0.1478
  116OSM   C16F12227   5.740   0.496   9.077  0.1284 -0.0507  0.0162
  116OSM   H16F12228   5.836   0.544   9.106  0.7728 -0.3684 -1.4984
  116OSM   H16G12229   5.686   0.569   9.013  0.2371  0.1732  0.1787
  116OSM   C17F12230   5.770   0.372   8.987  0.3842  0.4311 -0.2635
  116OSM   H17F12231   5.676   0.322   8.955  0.2607  0.1237  0.5468
  116OSM   H17G12232   5.829   0.298   9.045  0.6605  0.5754 -0.3621
  116OSM   C18F12233   5.856   0.400   8.868 -0.7561  0.3469 -0.1505
  116OSM   H18F12234   5.958   0.428   8.901 -1.1458  3.0244 -1.0247
  116OSM   H18G12235   5.812   0.485   8.812 -1.0986 -0.2176 -0.7544
  116OSM   H18H12236   5.865   0.314   8.798 -0.5129  0.3221 -0.0893
  117OSM      N12237   2.710   3.191  10.838 -0.8334 -0.6391 -0.0769
  117OSM    C1512238   2.808   3.280  10.903  0.5757  0.4446 -0.4942
  117OSM   H15A12239   2.781   3.290  11.007  0.2829 -0.3393 -0.4858
  117OSM   H15B12240   2.796   3.379  10.862 -1.0474  2.0276  3.3672
  117OSM   H15C12241   2.905   3.244  10.873  0.7032  0.6300 -0.3069
  117OSM    C1412242   2.589   3.276  10.839 -0.6813 -0.2534  0.6789
  117OSM   H14A12243   2.506   3.230  10.787  0.0933 -0.6792 -0.2121
  117OSM   H14B12244   2.599   3.372  10.791  0.7256 -0.2225  0.9838
  117OSM   H14C12245   2.551   3.309  10.935 -0.8968  1.7753 -0.0642
  117OSM    C1312246   2.748   3.173  10.698  0.3342 -0.5072 -0.1761
  117OSM   H13A12247   2.827   3.100  10.689  1.2992  0.3466  1.0969
  117OSM   H13B12248   2.782   3.263  10.650 -0.4842 -0.6238 -1.0189
  117OSM   H13C12249   2.665   3.134  10.640 -2.0791  3.0261  0.5998
  117OSM    C1212250   2.685   3.062  10.907 -0.3238 -0.0211 -0.1034
  117OSM   H12A12251   2.604   3.007  10.864 -0.8360  0.0796  0.6952
  117OSM   H12B12252   2.659   3.092  11.008 -0.0505  2.5376 -0.7088
  117OSM    C1112253   2.808   2.965  10.901  0.3436  0.3524 -0.0857
  117OSM   H11A12254   2.823   2.927  10.798 -0.4056  0.1650 -0.1306
  117OSM   H11B12255   2.773   2.875  10.957  1.1335 -1.2798 -2.0907
  117OSM      P12256   3.069   3.019  10.876 -0.5276  0.0281  0.1973
  117OSM    O1312257   3.164   3.098  10.958  0.1196  0.0989 -0.3038
  117OSM    O1412258   3.111   2.880  10.855  0.0602 -0.1669 -0.3716
  117OSM    O1112259   3.030   3.093  10.742  0.2508 -0.5364  0.3236
  117OSM    O1212260   2.931   3.016  10.956 -0.3040 -0.0204  0.7522
  117OSM    C1S12261   3.059   3.025  10.617 -1.1141  0.7712 -0.8643
  117OSM    H1S12262   3.011   2.925  10.616  0.1540  0.1280 -0.2153
  117OSM    H1T12263   3.169   3.009  10.614 -0.6905  2.6174  1.8071
  117OSM     NF12264   3.040   3.016  10.367  0.1618 -0.2158 -0.0220
  117OSM    HNF12265   3.116   3.034  10.305 -1.3199  1.0529 -1.5826
  117OSM    C2S12266   3.030   3.098  10.485  0.3600  0.0216  0.1302
  117OSM    H2S12267   2.925   3.132  10.495  0.1043 -0.7081 -0.0191
  117OSM    C3S12268   3.111   3.228  10.480  0.4250 -0.6652  0.4635
  117OSM    H3S12269   3.216   3.205  10.510 -0.2509 -0.2746  3.3425
  117OSM     O312270   3.055   3.316  10.586 -0.4185 -0.1261 -0.3566
  117OSM    HO312271   3.034   3.259  10.660  0.0409  0.4444  0.2347
  117OSM    C4S12272   3.097   3.313  10.356  0.3427  0.1212  0.4150
  117OSM    H4S12273   2.990   3.336  10.342 -0.5241 -1.7263  3.1036
  117OSM    C5S12274   3.198   3.352  10.274 -0.0987  0.6321  0.1130
  117OSM    H5S12275   3.298   3.315  10.299  0.1303  0.9870 -0.2822
  117OSM    C6S12276   3.179   3.435  10.150  0.7098  0.5762 -0.4153
  117OSM    H6S12277   3.270   3.491  10.119 -0.4393  1.3177 -2.6319
  117OSM    H6T12278   3.100   3.511  10.162  0.4583  0.4005 -0.9346
  117OSM    C7S12279   3.142   3.344  10.033  0.5257  0.3611  0.6947
  117OSM    H7S12280   3.135   3.421   9.952  0.9181  1.5706  1.7769
  117OSM    H7T12281   3.043   3.294  10.047 -0.3861  1.7636 -0.3452
  117OSM    C8S12282   3.246   3.244   9.998 -0.2052 -0.5410 -0.1057
  117OSM    H8S12283   3.246   3.159  10.070  0.8874 -0.1518  0.3694
  117OSM    H8T12284   3.342   3.297  10.012 -1.1821  1.0391  1.0567
  117OSM    C9S12285   3.259   3.203   9.854 -0.1994 -0.7894 -0.1287
  117OSM    H9S12286   3.277   3.302   9.808 -0.0842 -0.0520  1.4564
  117OSM    H9T12287   3.160   3.158   9.828 -1.5286  1.7924  0.1354
  117OSM   C10S12288   3.373   3.105   9.829  0.0362  0.4673 -0.3345
  117OSM   H10S12289   3.372   3.022   9.903  0.3292  0.2789 -0.5380
  117OSM   H10T12290   3.466   3.161   9.854  0.9294 -0.8616 -0.5692
  117OSM   C11S12291   3.373   3.053   9.681 -0.0119 -0.1457 -0.2091
  117OSM   H11S12292   3.277   3.002   9.658  0.0664 -0.0001 -0.8793
  117OSM   H11T12293   3.452   2.975   9.674 -1.3634 -1.5368 -0.4360
  117OSM   C12S12294   3.394   3.161   9.578  0.7861  0.0331  0.3637
  117OSM   H12S12295   3.495   3.200   9.602  0.1149  0.7422  2.1567
  117OSM   H12T12296   3.328   3.250   9.584  0.6759  0.0821 -1.1893
  117OSM   C13S12297   3.370   3.114   9.428  0.6859 -0.7446 -0.2904
  117OSM   H13S12298   3.263   3.090   9.415  0.5042 -0.9322  1.3494
  117OSM   H13T12299   3.432   3.022   9.417  1.7364 -0.4092  2.0683
  117OSM   C14S12300   3.390   3.221   9.321  0.2719 -0.0040  0.0755
  117OSM   H14S12301   3.495   3.258   9.321 -0.0860  1.0564 -0.1776
  117OSM   H14T12302   3.321   3.303   9.354 -0.8883 -0.4774 -1.0931
  117OSM   C15S12303   3.359   3.182   9.176  0.4357  0.0346 -0.5872
  117OSM   H15S12304   3.251   3.157   9.174  0.8391 -1.8965 -0.5715
  117OSM   H15T12305   3.417   3.093   9.143  1.1055 -0.2246  1.1902
  117OSM   C16S12306   3.393   3.299   9.086 -0.0974  0.2611 -0.3099
  117OSM   H16S12307   3.502   3.315   9.104  0.2502  0.0396 -2.0530
  117OSM   H16T12308   3.347   3.391   9.126  2.4466  2.9845 -3.0873
  117OSM   C17S12309   3.355   3.282   8.942  0.2583 -0.7832  0.2499
  117OSM   H17S12310   3.244   3.281   8.945  0.0527  2.9803 -0.7300
  117OSM   H17T12311   3.391   3.193   8.887 -1.3741 -1.7524  0.6881
  117OSM   C18S12312   3.390   3.401   8.866 -0.4465 -0.8545 -0.5868
  117OSM   H18S12313   3.327   3.405   8.775 -0.0355 -2.0501 -0.9370
  117OSM   H18T12314   3.494   3.400   8.829 -0.5816 -1.1379 -0.9695
  117OSM   H18U12315   3.379   3.491   8.930  0.2509 -0.1704 -1.4136
  117OSM    C1F12316   2.951   2.915  10.356 -0.1639  0.6702 -0.0048
  117OSM     OF12317   2.847   2.903  10.431 -0.4447  0.0249 -0.2391
  117OSM    C2F12318   2.972   2.806  10.248 -0.7069 -0.5815 -0.5139
  117OSM    H2F12319   3.001   2.717  10.307 -1.5819  0.3366  1.3865
  117OSM    H2G12320   3.055   2.833  10.179  0.1085 -1.8380 -0.0552
  117OSM    C3F12321   2.844   2.791  10.171  0.7466  0.0145  0.2162
  117OSM    H3F12322   2.752   2.771  10.230 -0.2256  1.8976 -0.5907
  117OSM    H3G12323   2.850   2.698  10.109  0.3498  0.8454 -1.1106
  117OSM    C4F12324   2.806   2.898  10.072  0.3841  0.3067 -0.2495
  117OSM    H4F12325   2.780   2.988  10.133 -2.3230  0.0295 -0.8702
  117OSM    H4G12326   2.704   2.883  10.033 -0.0257  0.2918  0.7957
  117OSM    C5F12327   2.902   2.927   9.959 -0.0400 -0.2512 -0.9957
  117OSM    H5F12328   2.917   2.827   9.911  2.0214 -0.9963  1.0165
  117OSM    H5G12329   3.002   2.959   9.995 -0.5178  2.6404 -2.0290
  117OSM    C6F12330   2.860   3.035   9.864 -0.1813  0.5749  0.2921
  117OSM    H6F12331   2.949   3.094   9.831 -0.6676  1.4334  0.4787
  117OSM    H6G12332   2.801   3.107   9.924 -0.0370  2.1942 -1.4018
  117OSM    C7F12333   2.784   2.969   9.747  0.1321  0.0547 -0.1130
  117OSM    H7F12334   2.696   2.918   9.791 -1.3232  1.3232 -1.3975
  117OSM    H7G12335   2.848   2.896   9.694 -0.0902  0.6573 -1.2578
  117OSM    C8F12336   2.721   3.057   9.640 -0.2826  0.5574  0.0161
  117OSM    H8F12337   2.632   3.117   9.668 -0.3806  1.0789 -1.3095
  117OSM    H8G12338   2.687   2.986   9.562  2.7617 -1.4390  0.3429
  117OSM    C9F12339   2.829   3.152   9.581 -0.3616 -0.1617  0.0274
  117OSM    H9F12340   2.872   3.224   9.652  2.2871 -0.3038 -1.2942
  117OSM   C10F12341   2.872   3.167   9.452 -0.3864  0.5303  0.5003
  117OSM   H10F12342   2.952   3.239   9.431  0.1366 -0.7287 -2.2794
  117OSM   C11F12343   2.838   3.074   9.343 -0.1245 -0.5141 -0.3922
  117OSM   H11F12344   2.766   3.131   9.281  0.8673  2.3270  0.9008
  117OSM   H11G12345   2.797   2.977   9.379 -0.2378  0.3590  2.0664
  117OSM   C12F12346   2.954   3.040   9.252  0.1690 -0.3290  0.3091
  117OSM   H12F12347   3.041   2.996   9.305  0.2698  0.0172  0.4388
  117OSM   H12G12348   2.986   3.136   9.207  1.6134  0.0218  1.9400
  117OSM   C13F12349   2.905   2.950   9.139 -0.6130  0.2416 -0.2627
  117OSM   H13F12350   2.808   2.982   9.095 -1.0776 -1.1792 -0.3415
  117OSM   H13G12351   2.905   2.845   9.174  0.5867  0.3600  0.1346
  117OSM   C14F12352   3.018   2.953   9.027  0.3627 -0.1846  0.4361
  117OSM   H14F12353   3.105   2.895   9.064 -0.6117  0.0678  3.4075
  117OSM   H14G12354   3.044   3.060   9.020  0.2508 -0.1767  0.1613
  117OSM   C15F12355   2.966   2.899   8.889  0.5001  0.4054 -0.4912
  117OSM   H15F12356   2.882   2.958   8.847 -1.0201 -1.4693 -0.2372
  117OSM   H15G12357   2.929   2.798   8.916 -0.7670  0.4618 -1.9099
  117OSM   C16F12358   3.080   2.881   8.787  0.3681 -0.1835 -1.1032
  117OSM   H16F12359   3.053   2.818   8.701 -0.0404 -0.5860 -0.6843
  117OSM   H16G12360   3.161   2.827   8.840  0.1717 -0.6782 -1.3062
  117OSM   C17F12361   3.138   3.007   8.733  0.0841 -0.1368 -0.0044
  117OSM   H17F12362   3.225   2.976   8.672 -0.0067 -0.2059 -0.1012
  117OSM   H17G12363   3.171   3.066   8.820  1.0130 -0.9353  0.2004
  117OSM   C18F12364   3.047   3.096   8.644 -0.1335  0.2311  0.4340
  117OSM   H18F12365   3.017   3.038   8.554  1.4690 -0.1544  0.1286
  117OSM   H18G12366   3.097   3.189   8.608 -0.5823  0.7417  1.0967
  117OSM   H18H12367   2.954   3.125   8.699  0.1208  3.2723 -0.5599
  118OSM      N12368   2.850   5.940  11.012  0.9776  0.8377 -0.4897
  118OSM    C1512369   2.878   6.030  11.126  0.5062 -0.0014 -0.0967
  118OSM   H15A12370   2.801   6.105  11.137  2.3385  1.7766  1.2013
  118OSM   H15B12371   2.964   6.093  11.113  1.0078 -0.5903  0.3316
  118OSM   H15C12372   2.884   5.983  11.223  0.5628  1.8179  0.8156
  118OSM    C1412373   2.937   5.811  11.009  0.1705 -0.6011  1.0937
  118OSM   H14A12374   2.930   5.755  11.101  0.9625  1.2841  2.3460
  118OSM   H14B12375   3.039   5.842  10.996  0.1621 -1.3157 -1.2198
  118OSM   H14C12376   2.901   5.751  10.926 -2.1218  1.6533  0.3239
  118OSM    C1312377   2.702   5.895  11.030 -0.0252 -0.0557 -0.2203
  118OSM   H13A12378   2.633   5.967  10.988  0.2291  0.2322 -0.1517
  118OSM   H13B12379   2.687   5.869  11.134  0.9932  0.8335  0.1709
  118OSM   H13C12380   2.691   5.809  10.966  1.4980 -1.7678  1.6759
  118OSM    C1212381   2.856   6.020  10.885  0.0636  0.0063  0.0144
  118OSM   H12A12382   2.808   6.116  10.892 -3.6964 -1.7229  0.2422
  118OSM   H12B12383   2.805   5.966  10.807  0.3460 -1.5968  0.8893
  118OSM    C1112384   3.001   6.049  10.832  0.2893 -0.5248  0.0777
  118OSM   H11A12385   3.003   6.121  10.747  2.1667  0.3082  0.7803
  118OSM   H11B12386   3.039   5.951  10.796  1.5752 -0.0750  0.1781
  118OSM      P12387   3.155   6.243  10.934 -0.0749 -0.1794 -0.4970
  118OSM    O1312388   3.049   6.351  10.948 -0.9093  0.5345  0.1214
  118OSM    O1412389   3.251   6.241  11.039 -0.2292  0.1525 -0.1375
  118OSM    O1112390   3.215   6.243  10.790  0.0848  0.0947  0.1724
  118OSM    O1212391   3.085   6.105  10.933  0.1335  0.0663 -0.2566
  118OSM    C1S12392   3.310   6.144  10.738  0.5450  0.2926 -0.0670
  118OSM    H1S12393   3.287   6.043  10.778  2.0326  0.0950  0.3847
  118OSM    H1T12394   3.413   6.163  10.776  0.7177  0.4299 -0.6034
  118OSM     NF12395   3.389   6.014  10.539  0.3608 -0.6374 -0.2331
  118OSM    HNF12396   3.476   6.041  10.499  0.2194 -1.3134 -1.0286
  118OSM    C2S12397   3.298   6.124  10.585  0.2021 -0.5024 -0.4908
  118OSM    H2S12398   3.191   6.093  10.576  0.0826 -0.0546 -0.6325
  118OSM    C3S12399   3.319   6.261  10.513 -0.2095  0.4753  0.3074
  118OSM    H3S12400   3.426   6.287  10.523 -0.6553  2.3572  0.6140
  118OSM     O312401   3.239   6.368  10.566  0.4156 -0.4674  0.4610
  118OSM    HO312402   3.192   6.326  10.638 -0.3504  2.1344  1.6013
  118OSM    C4S12403   3.280   6.248  10.367  0.0321  0.3423  0.3465
  118OSM    H4S12404   3.182   6.206  10.337  1.6949 -1.8184 -2.5960
  118OSM    C5S12405   3.373   6.274  10.271 -0.1169  0.3088 -0.4669
  118OSM    H5S12406   3.480   6.294  10.291 -0.1145 -0.4705  0.3315
  118OSM    C6S12407   3.346   6.262  10.126  0.0160  0.7029  0.3591
  118OSM    H6S12408   3.416   6.189  10.079 -0.2153 -0.3717  1.6300
  118OSM    H6T12409   3.370   6.359  10.077 -1.3803  0.2928 -1.2125
  118OSM    C7S12410   3.200   6.227  10.097 -0.1035 -0.2581 -0.0560
  118OSM    H7S12411   3.133   6.309  10.131  0.0930 -0.3699  0.6200
  118OSM    H7T12412   3.162   6.133  10.142 -2.3281  1.1000  1.0880
  118OSM    C8S12413   3.176   6.199   9.948  0.2172 -0.7442 -0.2726
  118OSM    H8S12414   3.077   6.151   9.937 -0.2386 -0.0513  0.5746
  118OSM    H8T12415   3.250   6.125   9.911  0.1724 -1.1002  0.3260
  118OSM    C9S12416   3.164   6.331   9.868  0.4385  0.3352 -0.2660
  118OSM    H9S12417   3.265   6.377   9.867  1.0833 -1.0255 -1.4744
  118OSM    H9T12418   3.087   6.394   9.917  0.6134  1.3012 -1.1927
  118OSM   C10S12419   3.116   6.303   9.730  0.0143  0.4264  0.7685
  118OSM   H10S12420   3.094   6.397   9.675  0.9101 -0.2045 -0.7378
  118OSM   H10T12421   3.016   6.255   9.733  0.1797  0.0459  0.2290
  118OSM   C11S12422   3.219   6.234   9.640 -0.3892 -0.3364 -0.2020
  118OSM   H11S12423   3.198   6.127   9.660 -1.6341  0.1365  1.1902
  118OSM   H11T12424   3.323   6.257   9.672  0.3753 -2.0209 -1.3399
  118OSM   C12S12425   3.193   6.251   9.489 -0.1209  0.0271 -0.4297
  118OSM   H12S12426   3.091   6.217   9.464 -0.7429 -0.0010  1.9242
  118OSM   H12T12427   3.266   6.190   9.431 -0.4026  0.9847 -1.8421
  118OSM   C13S12428   3.209   6.396   9.439 -0.2584  0.4272 -0.1922
  118OSM   H13S12429   3.316   6.427   9.440  0.2911 -1.3497 -0.5090
  118OSM   H13T12430   3.165   6.469   9.510  0.1825 -0.7009  1.2965
  118OSM   C14S12431   3.146   6.407   9.295  0.0748 -0.1985 -0.2048
  118OSM   H14S12432   3.168   6.515   9.279  3.0514 -0.5616  0.7270
  118OSM   H14T12433   3.035   6.408   9.297 -0.0887  0.3130 -3.5245
  118OSM   C15S12434   3.215   6.329   9.178  0.6259 -0.5505  0.2751
  118OSM   H15S12435   3.247   6.234   9.226  1.9251  1.0594  2.8912
  118OSM   H15T12436   3.311   6.374   9.143  1.2576 -2.2210 -0.2131
  118OSM   C16S12437   3.122   6.302   9.058  0.0904 -0.2720  0.4768
  118OSM   H16S12438   3.028   6.261   9.102 -1.6097  3.1688  0.3485
  118OSM   H16T12439   3.166   6.229   8.987  1.4601  1.4472 -0.5201
  118OSM   C17S12440   3.092   6.429   8.992  0.2320 -0.7130  0.0264
  118OSM   H17S12441   3.180   6.487   8.957  0.4825 -0.1489  1.5121
  118OSM   H17T12442   3.045   6.492   9.070  0.4793 -0.4946 -0.0018
  118OSM   C18S12443   2.985   6.404   8.887  0.8620  0.7945  0.4768
  118OSM   H18S12444   3.021   6.336   8.807  1.7654 -0.1327  1.6319
  118OSM   H18T12445   2.963   6.498   8.832  0.0673  0.0173 -0.5669
  118OSM   H18U12446   2.895   6.354   8.930  0.7607  1.6104  1.2658
  118OSM    C1F12447   3.372   5.886  10.578  0.5219  0.2684 -0.1313
  118OSM     OF12448   3.265   5.842  10.623  0.0905  0.2209  0.2327
  118OSM    C2F12449   3.487   5.788  10.567 -0.5484 -0.3650 -0.0757
  118OSM    H2F12450   3.510   5.747  10.668  0.0519 -2.1387 -0.8884
  118OSM    H2G12451   3.568   5.850  10.523 -2.1827  0.4936 -2.0361
  118OSM    C3F12452   3.465   5.651  10.485  0.1351 -0.3993  0.3100
  118OSM    H3F12453   3.390   5.591  10.540 -1.1414  0.1065 -0.8328
  118OSM    H3G12454   3.565   5.603  10.484  0.3949 -0.0158  2.3064
  118OSM    C4F12455   3.414   5.669  10.343 -0.6672  0.0823  0.5380
  118OSM    H4F12456   3.308   5.704  10.346  0.3888  3.7130  0.8921
  118OSM    H4G12457   3.428   5.575  10.287  0.7556  1.3558 -1.3950
  118OSM    C5F12458   3.498   5.776  10.255 -0.0481  0.0032 -0.3898
  118OSM    H5F12459   3.606   5.771  10.277 -0.3693 -3.9241  0.9457
  118OSM    H5G12460   3.466   5.877  10.289 -0.7789 -0.1456 -0.6136
  118OSM    C6F12461   3.473   5.766  10.101  0.2037 -0.2091  0.2350
  118OSM    H6F12462   3.367   5.744  10.075  0.1739  1.0539 -0.7644
  118OSM    H6G12463   3.545   5.692  10.060 -0.3646  0.5439 -2.2701
  118OSM    C7F12464   3.497   5.898  10.035 -0.5416  0.2873  0.0891
  118OSM    H7F12465   3.586   5.946  10.080 -0.5100 -0.1688  0.5190
  118OSM    H7G12466   3.408   5.963  10.048 -2.5553 -1.4717 -3.2954
  118OSM    C8F12467   3.526   5.893   9.881  0.5199 -0.2094  0.5087
  118OSM    H8F12468   3.615   5.829   9.862  2.5365  1.5035  3.3691
  118OSM    H8G12469   3.559   5.997   9.856  3.6823 -0.9081  1.2968
  118OSM    C9F12470   3.394   5.850   9.812  0.0799 -0.1274 -0.2709
  118OSM    H9F12471   3.303   5.880   9.864  0.9463  1.4645  0.3958
  118OSM   C10F12472   3.395   5.767   9.709 -0.0640  0.1411 -1.2201
  118OSM   H10F12473   3.295   5.754   9.666 -1.4462  2.3376  1.0305
  118OSM   C11F12474   3.501   5.705   9.624 -0.1226 -0.3423  0.5208
  118OSM   H11F12475   3.507   5.595   9.641  1.9583 -0.8443 -2.5588
  118OSM   H11G12476   3.596   5.760   9.641 -1.0852  2.0195 -1.2237
  118OSM   C12F12477   3.488   5.736   9.469  0.3401  0.2957 -0.2562
  118OSM   H12F12478   3.393   5.685   9.444  1.6746 -2.7083  0.3502
  118OSM   H12G12479   3.565   5.677   9.415  0.4326 -0.0619  0.2584
  118OSM   C13F12480   3.504   5.884   9.433  0.5467 -0.6947 -0.6776
  118OSM   H13F12481   3.584   5.929   9.494 -1.6015 -0.9114  2.5192
  118OSM   H13G12482   3.411   5.936   9.466  1.4927  0.4011  0.3221
  118OSM   C14F12483   3.523   5.915   9.282  0.5479 -0.4345  0.3077
  118OSM   H14F12484   3.607   5.867   9.227 -0.7465  0.4701 -2.6506
  118OSM   H14G12485   3.516   6.023   9.258  0.4462 -1.1649 -3.6393
  118OSM   C15F12486   3.401   5.860   9.209 -0.2995 -0.6521 -0.4639
  118OSM   H15F12487   3.308   5.884   9.265 -1.6040 -1.1918 -2.3088
  118OSM   H15G12488   3.398   5.749   9.221 -1.8776 -0.4997  0.8449
  118OSM   C16F12489   3.403   5.899   9.061  0.1232 -0.3157  0.1335
  118OSM   H16F12490   3.493   5.867   9.005 -0.2387 -0.8393 -0.1564
  118OSM   H16G12491   3.408   6.010   9.058 -1.1554 -0.1853  1.4331
  118OSM   C17F12492   3.280   5.860   8.979 -0.4266 -0.0032  0.3001
  118OSM   H17F12493   3.191   5.919   9.010 -1.3067 -2.1085  1.9635
  118OSM   H17G12494   3.258   5.753   8.999  0.9157  0.1559  2.9591
  118OSM   C18F12495   3.288   5.883   8.831 -0.2351 -0.0917  0.2762
  118OSM   H18F12496   3.316   5.989   8.812 -1.2941  0.4516  1.5745
  118OSM   H18G12497   3.193   5.862   8.777 -0.3690  0.4509  0.2932
  118OSM   H18H12498   3.369   5.819   8.789 -1.3619 -1.6214  0.3378
  119OSM      N12499   4.865   3.533  11.082  0.2062 -0.3382  0.2766
  119OSM    C1512500   4.957   3.417  11.035  0.2146  0.5443 -0.2880
  119OSM   H15A12501   4.921   3.330  11.088 -1.4401  0.4229 -1.5036
  119OSM   H15B12502   5.058   3.427  11.071 -0.0124 -1.8028  1.1785
  119OSM   H15C12503   4.954   3.398  10.929  1.6117 -0.7595 -0.1242
  119OSM    C1412504   4.718   3.501  11.060 -0.1747  0.2005  0.0025
  119OSM   H14A12505   4.689   3.558  10.973 -0.6577  0.6614  0.4567
  119OSM   H14B12506   4.673   3.541  11.150 -0.7821  1.4718 -0.8273
  119OSM   H14C12507   4.700   3.395  11.047 -1.0478  0.4189 -0.7517
  119OSM    C1312508   4.877   3.548  11.227  0.2469  0.5335 -0.0311
  119OSM   H13A12509   4.968   3.599  11.255 -0.5609  0.9874  1.9186
  119OSM   H13B12510   4.869   3.451  11.274  0.6221  0.2559 -0.5301
  119OSM   H13C12511   4.800   3.608  11.272 -0.0395  0.6278 -0.6364
  119OSM    C1212512   4.904   3.664  11.016 -0.1972 -0.1426  0.5120
  119OSM   H12A12513   5.007   3.690  11.035 -0.4690  1.1944  0.2671
  119OSM   H12B12514   4.842   3.738  11.063  0.5531  1.4840 -0.9524
  119OSM    C1112515   4.880   3.677  10.859  0.0757 -0.2683  0.1725
  119OSM   H11A12516   4.930   3.592  10.807  2.8049  0.6193  1.1859
  119OSM   H11B12517   4.926   3.774  10.829 -3.5908  1.7775  0.5154
  119OSM      P12518   4.675   3.778  10.725 -0.0375 -0.0035  0.0466
  119OSM    O1312519   4.562   3.716  10.655 -0.3282 -0.2790  0.2825
  119OSM    O1412520   4.663   3.909  10.796  0.6393  0.3659  0.1735
  119OSM    O1112521   4.795   3.786  10.620  0.2678  0.3282  0.6520
  119OSM    O1212522   4.739   3.681  10.832 -0.3374 -0.6082  0.0948
  119OSM    C1S12523   4.799   3.686  10.515  0.1768  0.2510  0.1662
  119OSM    H1S12524   4.700   3.645  10.485  0.6285 -1.3498  0.7335
  119OSM    H1T12525   4.871   3.605  10.540 -1.2396 -0.3439  2.6999
  119OSM     NF12526   4.835   3.663  10.265  1.1707 -0.1283 -0.0228
  119OSM    HNF12527   4.916   3.626  10.221 -0.0163 -3.7448  0.4945
  119OSM    C2S12528   4.850   3.759  10.383  0.5142  0.8294 -0.4516
  119OSM    H2S12529   4.777   3.843  10.380 -0.8111 -0.1064  2.2064
  119OSM    C3S12530   4.993   3.821  10.394 -0.0118  0.1102  0.2610
  119OSM    H3S12531   5.069   3.743  10.411 -1.0563 -1.0254 -0.1353
  119OSM     O312532   5.003   3.905  10.504 -0.0751  0.4691 -0.0420
  119OSM    HO312533   4.917   3.887  10.542 -1.0344  0.3885 -2.1050
  119OSM    C4S12534   5.027   3.896  10.267 -0.1845  0.5737 -1.0993
  119OSM    H4S12535   4.967   3.987  10.258 -0.0838  0.7058 -0.4792
  119OSM    C5S12536   5.134   3.873  10.187  0.3428 -0.0856 -0.7012
  119OSM    H5S12537   5.200   3.790  10.213  0.6872  0.0953 -0.9902
  119OSM    C6S12538   5.168   3.958  10.071 -0.5436 -0.3295 -0.7175
  119OSM    H6S12539   5.278   3.975  10.067 -0.8187  2.3734  0.6449
  119OSM    H6T12540   5.126   4.060  10.082  1.4215  0.4799 -0.3477
  119OSM    C7S12541   5.137   3.900   9.929  0.7527 -0.6843 -0.4745
  119OSM    H7S12542   5.032   3.867   9.916  0.3218  0.3121  0.3225
  119OSM    H7T12543   5.192   3.805   9.916  2.8597  0.2241  1.1760
  119OSM    C8S12544   5.176   3.998   9.814 -0.2573 -0.1088 -0.4460
  119OSM    H8S12545   5.270   4.043   9.852 -0.4246 -0.7913  0.8413
  119OSM    H8T12546   5.109   4.087   9.808  0.5068  0.4782 -0.3604
  119OSM    C9S12547   5.179   3.931   9.676  0.0896  0.5953  0.2626
  119OSM    H9S12548   5.087   3.873   9.654  0.4361 -0.3232  1.1491
  119OSM    H9T12549   5.269   3.868   9.658 -0.2371  0.4772 -1.0641
  119OSM   C10S12550   5.181   4.030   9.563 -0.5091 -0.8591  0.2176
  119OSM   H10S12551   5.249   4.110   9.599 -0.0609 -0.4345 -1.4958
  119OSM   H10T12552   5.085   4.085   9.576  0.0833 -0.1761  2.0868
  119OSM   C11S12553   5.211   3.980   9.424 -0.7804  0.4223  0.0975
  119OSM   H11S12554   5.136   3.901   9.402  1.2878 -1.2589 -1.3199
  119OSM   H11T12555   5.309   3.927   9.420 -0.8587 -0.0591  2.7001
  119OSM   C12S12556   5.191   4.076   9.307  0.3294 -0.0873  0.5728
  119OSM   H12S12557   5.247   4.172   9.312 -0.3495  0.3238  0.4773
  119OSM   H12T12558   5.085   4.110   9.309  0.5776  1.5580 -3.6171
  119OSM   C13S12559   5.205   4.009   9.169 -0.3496  0.7895 -0.0568
  119OSM   H13S12560   5.141   3.918   9.169  3.2057 -1.9233 -0.0144
  119OSM   H13T12561   5.306   3.976   9.136 -0.6691 -1.2938  0.8811
  119OSM   C14S12562   5.160   4.105   9.055 -0.9232 -0.2399 -0.4999
  119OSM   H14S12563   5.240   4.182   9.060  0.0150 -1.2511  2.9922
  119OSM   H14T12564   5.058   4.145   9.074 -0.9206 -0.0742 -0.8306
  119OSM   C15S12565   5.170   4.032   8.915 -0.3065  0.4102  0.3968
  119OSM   H15S12566   5.099   3.947   8.908  1.9725 -1.8027  2.2059
  119OSM   H15T12567   5.269   3.985   8.894 -0.3723  0.0335  0.9256
  119OSM   C16S12568   5.130   4.119   8.799 -0.0362  0.0133  0.4779
  119OSM   H16S12569   5.199   4.206   8.800  0.7212 -0.5329 -0.9989
  119OSM   H16T12570   5.027   4.162   8.804  0.0450  0.3203 -0.2838
  119OSM   C17S12571   5.144   4.051   8.659 -0.9977  0.2598 -0.0434
  119OSM   H17S12572   5.053   3.989   8.642 -0.2019 -0.6908 -0.8985
  119OSM   H17T12573   5.236   3.991   8.667 -0.1618  1.4789 -0.2429
  119OSM   C18S12574   5.153   4.151   8.542  0.1080 -0.6715  0.1692
  119OSM   H18S12575   5.118   4.117   8.442 -0.1258 -1.1988  0.4206
  119OSM   H18T12576   5.249   4.201   8.519 -0.7861  0.0362 -2.2960
  119OSM   H18U12577   5.092   4.235   8.580  0.4861  0.3083 -1.3189
  119OSM    C1F12578   4.722   3.601  10.220 -0.1835 -0.1716 -0.5999
  119OSM     OF12579   4.609   3.608  10.267  0.5366  0.7028  0.0588
  119OSM    C2F12580   4.737   3.518  10.094  0.5723 -0.2521  0.0768
  119OSM    H2F12581   4.780   3.422  10.129  0.3427  0.1664  1.5850
  119OSM    H2G12582   4.802   3.582  10.032  0.1193  0.9191  0.7704
  119OSM    C3F12583   4.606   3.488  10.024  0.2353  0.3462 -0.0054
  119OSM    H3F12584   4.549   3.584  10.019  0.6256  0.5986  0.3813
  119OSM    H3G12585   4.541   3.410  10.068 -0.7696  1.0113 -0.2421
  119OSM    C4F12586   4.623   3.433   9.885 -0.5737 -0.2202  0.8057
  119OSM    H4F12587   4.526   3.390   9.852 -0.1780 -1.3728  1.0696
  119OSM    H4G12588   4.695   3.349   9.877  0.4545  0.7844 -1.2777
  119OSM    C5F12589   4.673   3.548   9.798 -1.5733  0.1089  0.3161
  119OSM    H5F12590   4.782   3.562   9.812 -1.4939  1.0561 -1.0412
  119OSM    H5G12591   4.627   3.645   9.827  2.3847  1.6544  2.1807
  119OSM    C6F12592   4.643   3.534   9.645  0.3728  0.7056 -0.0431
  119OSM    H6F12593   4.533   3.536   9.637  0.2500 -1.1079  0.5747
  119OSM    H6G12594   4.681   3.438   9.604 -1.4924 -0.4218  0.7540
  119OSM    C7F12595   4.691   3.649   9.562  0.4596  0.0935 -0.1815
  119OSM    H7F12596   4.799   3.669   9.583  0.5043 -0.7665  0.4484
  119OSM    H7G12597   4.637   3.741   9.592 -0.6359 -0.2792 -0.9667
  119OSM    C8F12598   4.660   3.637   9.413  0.4666 -0.1216 -0.2037
  119OSM    H8F12599   4.657   3.739   9.369  1.2422 -0.1017 -0.2207
  119OSM    H8G12600   4.560   3.588   9.406  1.3596 -1.9035 -1.0331
  119OSM    C9F12601   4.768   3.556   9.348 -1.5094 -0.6884  0.3545
  119OSM    H9F12602   4.833   3.508   9.423  0.6067 -2.3088 -2.3220
  119OSM   C10F12603   4.797   3.560   9.216  0.1297  0.7628  0.2141
  119OSM   H10F12604   4.876   3.496   9.173  0.9046  0.5096  1.9455
  119OSM   C11F12605   4.718   3.630   9.104  0.3613 -0.1610  0.2608
  119OSM   H11F12606   4.778   3.707   9.050 -0.1761 -0.2272 -0.4444
  119OSM   H11G12607   4.626   3.680   9.142  0.7789  0.0283  1.0508
  119OSM   C12F12608   4.669   3.527   8.995 -0.3611 -0.1921 -0.0872
  119OSM   H12F12609   4.598   3.459   9.046 -0.9646  1.1684  0.9515
  119OSM   H12G12610   4.755   3.473   8.951 -1.0019 -0.7871 -0.6435
  119OSM   C13F12611   4.607   3.586   8.871  0.8861 -0.5105  0.8061
  119OSM   H13F12612   4.684   3.650   8.822  1.1822 -0.9438  0.7034
  119OSM   H13G12613   4.515   3.644   8.895  1.0929  1.3179 -2.2603
  119OSM   C14F12614   4.564   3.488   8.754 -0.0886 -0.1786  0.3122
  119OSM   H14F12615   4.473   3.428   8.776 -1.8867  2.2016 -0.0919
  119OSM   H14G12616   4.650   3.420   8.738  0.6265  0.7159  0.2940
  119OSM   C15F12617   4.537   3.569   8.622  0.1164 -0.2044 -0.0268
  119OSM   H15F12618   4.634   3.618   8.599  0.6404 -1.0870  0.2619
  119OSM   H15G12619   4.463   3.650   8.636  2.1408  1.9027 -0.8555
  119OSM   C16F12620   4.499   3.484   8.501 -0.9239  0.1139  0.2356
  119OSM   H16F12621   4.579   3.410   8.482 -1.7201 -1.0779  1.3274
  119OSM   H16G12622   4.497   3.553   8.414 -1.7189 -0.4343 -0.1986
  119OSM   C17F12623   4.369   3.397   8.500  0.8674 -0.0124 -0.5018
  119OSM   H17F12624   4.383   3.307   8.564  0.5055  0.7776  0.7192
  119OSM   H17G12625   4.353   3.352   8.400 -0.9818  0.0153 -0.2508
  119OSM   C18F12626   4.242   3.463   8.544  0.4657 -0.0041  0.7043
  119OSM   H18F12627   4.213   3.553   8.484  1.9741 -0.1956 -0.3608
  119OSM   H18G12628   4.240   3.492   8.651 -1.5818 -0.7340  0.9089
  119OSM   H18H12629   4.158   3.393   8.525 -0.3716  0.3504  2.8097
  120OSM      N12630   3.828   3.546  10.571 -0.7155 -0.8743  0.0708
  120OSM    C1512631   3.929   3.514  10.676 -0.2963  1.0896  0.2528
  120OSM   H15A12632   4.031   3.539  10.648  0.2254 -0.1385  1.0063
  120OSM   H15B12633   3.929   3.408  10.693  1.5358  1.3394  2.2330
  120OSM   H15C12634   3.894   3.549  10.772 -0.5423 -0.3401  0.6954
  120OSM    C1412635   3.693   3.508  10.623  0.0966  0.5920 -0.1183
  120OSM   H14A12636   3.685   3.549  10.723 -0.4879 -1.0525  0.5373
  120OSM   H14B12637   3.699   3.401  10.634 -2.0357  0.4020 -0.3487
  120OSM   H14C12638   3.623   3.544  10.549  1.4240 -3.9694 -4.0929
  120OSM    C1312639   3.834   3.690  10.538 -0.0088 -0.6752 -0.4055
  120OSM   H13A12640   3.752   3.731  10.482 -1.7430 -0.1066  2.3827
  120OSM   H13B12641   3.919   3.711  10.474  0.2797  0.3180  0.2870
  120OSM   H13C12642   3.854   3.746  10.628 -0.9554 -0.1705 -0.4951
  120OSM    C1212643   3.853   3.475  10.437 -0.3713  0.1431  0.7370
  120OSM   H12A12644   3.946   3.505  10.392 -0.9935  1.6489  0.3738
  120OSM   H12B12645   3.779   3.504  10.364 -0.5746  0.4329  1.0509
  120OSM    C1112646   3.846   3.323  10.438 -0.1154  0.1673 -0.0332
  120OSM   H11A12647   3.925   3.276  10.501  0.1087 -1.9607 -1.7668
  120OSM   H11B12648   3.867   3.282  10.337 -1.4746  0.5546 -0.4876
  120OSM      P12649   3.587   3.282  10.396 -0.0359 -0.0309 -0.0376
  120OSM    O1312650   3.487   3.179  10.442  0.4404 -0.0964  0.6350
  120OSM    O1412651   3.540   3.421  10.379 -0.4033  0.1178  0.0591
  120OSM    O1112652   3.634   3.231  10.257  0.0534  0.0538  0.2115
  120OSM    O1212653   3.718   3.282  10.488 -0.4513 -0.1947  0.0580
  120OSM    C1S12654   3.686   3.099  10.241 -0.8821 -0.0612  0.0521
  120OSM    H1S12655   3.609   3.025  10.270  0.2489 -0.6117  1.8441
  120OSM    H1T12656   3.778   3.083  10.301 -0.3643  1.4137 -0.3001
  120OSM     NF12657   3.758   2.919  10.081 -0.1207  0.9143  0.1258
  120OSM    HNF12658   3.854   2.916  10.055  0.2338  1.9558  1.2056
  120OSM    C2S12659   3.713   3.057  10.088 -1.1815 -0.2083  0.3823
  120OSM    H2S12660   3.620   3.058  10.027 -1.0141  0.8782  0.1291
  120OSM    C3S12661   3.809   3.157  10.024 -0.6197  0.6370  0.3218
  120OSM    H3S12662   3.901   3.169  10.085  0.2021  2.5708 -1.1711
  120OSM     O312663   3.763   3.291  10.029 -0.1206  0.2003  0.0696
  120OSM    HO312664   3.702   3.299  10.103  0.1577  0.3536  0.2855
  120OSM    C4S12665   3.847   3.107   9.884 -0.3332 -0.3602  0.3609
  120OSM    H4S12666   3.953   3.079   9.888  0.0626  1.1071  0.7047
  120OSM    C5S12667   3.784   3.129   9.765 -0.3597  0.2359 -0.8317
  120OSM    H5S12668   3.688   3.182   9.774 -1.4654 -1.8367  0.2164
  120OSM    C6S12669   3.824   3.098   9.626 -0.2950 -0.2307 -0.3730
  120OSM    H6S12670   3.736   3.048   9.581 -1.3132 -1.0665  2.3784
  120OSM    H6T12671   3.909   3.027   9.632  0.2005  0.4559  1.1092
  120OSM    C7S12672   3.878   3.225   9.540  0.6681  0.9728  0.0996
  120OSM    H7S12673   3.948   3.278   9.607  0.4486 -1.3023  2.2538
  120OSM    H7T12674   3.786   3.283   9.516  0.7994  0.9777 -0.4077
  120OSM    C8S12675   3.946   3.189   9.408 -0.4622  0.2483 -0.0306
  120OSM    H8S12676   4.031   3.121   9.430  0.6077  2.0686  1.8319
  120OSM    H8T12677   3.986   3.287   9.372 -0.5587  0.3600  0.1661
  120OSM    C9S12678   3.854   3.122   9.302 -0.7600 -0.5998 -0.1911
  120OSM    H9S12679   3.786   3.053   9.357  0.4426 -0.0899  2.0560
  120OSM    H9T12680   3.906   3.064   9.223 -0.7651  0.5963 -1.1010
  120OSM   C10S12681   3.777   3.230   9.227 -0.0440  0.0620  0.0499
  120OSM   H10S12682   3.770   3.310   9.305  2.4990 -0.2142  0.6370
  120OSM   H10T12683   3.675   3.198   9.199 -0.1402  0.7917 -0.4764
  120OSM   C11S12684   3.863   3.288   9.113 -0.1380  0.8804  0.0743
  120OSM   H11S12685   3.938   3.211   9.084  0.3669  1.2007  0.5205
  120OSM   H11T12686   3.923   3.372   9.154 -0.0905  0.7335  0.3064
  120OSM   C12S12687   3.787   3.339   8.995 -0.1243  0.7859 -0.4143
  120OSM   H12S12688   3.729   3.429   9.026  0.6984  1.6559 -1.3222
  120OSM   H12T12689   3.711   3.266   8.959 -1.1316  1.7715 -0.3500
  120OSM   C13S12690   3.879   3.382   8.879 -0.6419  0.1687  0.0699
  120OSM   H13S12691   3.922   3.288   8.840 -1.7052 -0.7179  0.9565
  120OSM   H13T12692   3.962   3.450   8.909  0.2320 -0.6219 -0.5124
  120OSM   C14S12693   3.797   3.452   8.770 -0.5108  0.3996 -0.6373
  120OSM   H14S12694   3.736   3.528   8.824  1.0569  1.6824 -0.5871
  120OSM   H14T12695   3.715   3.397   8.720  0.2849  0.1786 -1.7367
  120OSM   C15S12696   3.898   3.499   8.666 -0.7398  0.1373  0.2974
  120OSM   H15S12697   3.971   3.425   8.627 -0.4426  1.4073 -1.6990
  120OSM   H15T12698   3.959   3.578   8.715 -0.0957  0.6736 -1.2997
  120OSM   C16S12699   3.821   3.569   8.550  0.1390  0.5916 -0.1969
  120OSM   H16S12700   3.755   3.644   8.599 -1.0219 -0.5774  0.0951
  120OSM   H16T12701   3.750   3.494   8.510 -0.6704  0.7186  0.9625
  120OSM   C17S12702   3.917   3.628   8.444 -0.1135  0.0714 -0.8098
  120OSM   H17S12703   3.987   3.550   8.408 -0.2909 -0.3289 -0.2989
  120OSM   H17T12704   3.982   3.704   8.493 -2.0704  0.4442  1.3857
  120OSM   C18S12705   3.848   3.702   8.324  0.3701 -0.1111  0.1013
  120OSM   H18S12706   3.792   3.619   8.275  1.2713 -0.8346  0.2829
  120OSM   H18T12707   3.933   3.730   8.258  0.5592  0.2257  0.4858
  120OSM   H18U12708   3.789   3.793   8.350  2.0418  1.5975 -1.7853
  120OSM    C1F12709   3.688   2.806  10.119 -0.0662 -0.2149  0.2320
  120OSM     OF12710   3.577   2.815  10.175  0.0843 -0.4563  0.0738
  120OSM    C2F12711   3.749   2.676  10.097 -0.0158  0.1386 -0.3272
  120OSM    H2F12712   3.674   2.595  10.094 -0.8197  0.8635 -0.1875
  120OSM    H2G12713   3.810   2.638  10.182 -2.4163 -1.1650  0.9076
  120OSM    C3F12714   3.841   2.672   9.975  0.2562  0.1499  0.2225
  120OSM    H3F12715   3.900   2.578   9.974  0.4978  0.1920  2.9793
  120OSM    H3G12716   3.913   2.756   9.982  2.2634 -1.4340 -0.4036
  120OSM    C4F12717   3.758   2.693   9.847 -0.1840  0.5483  0.8176
  120OSM    H4F12718   3.697   2.786   9.854 -0.8521  0.1834  0.0448
  120OSM    H4G12719   3.686   2.609   9.837  1.8559 -0.9541 -2.7734
  120OSM    C5F12720   3.841   2.697   9.727 -0.3698 -0.3884  0.0488
  120OSM    H5F12721   3.921   2.620   9.721 -2.8424 -3.0873 -0.8898
  120OSM    H5G12722   3.889   2.797   9.728  0.6183 -0.8544 -0.0481
  120OSM    C6F12723   3.761   2.715   9.599  0.0336 -0.6206  0.5516
  120OSM    H6F12724   3.707   2.812   9.596  0.3945 -0.4231 -2.1096
  120OSM    H6G12725   3.695   2.626   9.588  0.1974 -0.5880 -0.9977
  120OSM    C7F12726   3.849   2.695   9.472  0.9289  0.2352  0.0988
  120OSM    H7F12727   3.910   2.604   9.487 -0.3694 -0.7777 -0.5439
  120OSM    H7G12728   3.912   2.785   9.454 -1.8662  2.1036 -1.2663
  120OSM    C8F12729   3.768   2.657   9.349  0.5144  0.1803 -0.2503
  120OSM    H8F12730   3.692   2.581   9.379  0.3190  0.0235 -1.1314
  120OSM    H8G12731   3.830   2.616   9.267 -2.8589 -1.4585 -2.2108
  120OSM    C9F12732   3.685   2.771   9.291  0.4859  0.0764  0.4747
  120OSM    H9F12733   3.607   2.819   9.352 -0.4996 -1.1443  0.2248
  120OSM   C10F12734   3.699   2.823   9.166  0.1348  0.0266 -0.3453
  120OSM   H10F12735   3.651   2.920   9.150 -1.4222 -0.5836  0.3449
  120OSM   C11F12736   3.803   2.769   9.063 -0.2486 -0.4148 -0.0403
  120OSM   H11F12737   3.783   2.663   9.037  2.4807 -1.1276  0.3763
  120OSM   H11G12738   3.908   2.757   9.098 -0.2172 -2.3236 -0.6682
  120OSM   C12F12739   3.790   2.868   8.943  0.8074  0.4003  1.1293
  120OSM   H12F12740   3.856   2.840   8.858 -0.0547  0.6346  0.3574
  120OSM   H12G12741   3.829   2.969   8.965 -2.7278  1.6703  2.2015
  120OSM   C13F12742   3.644   2.875   8.881 -0.0356  0.6977 -0.3080
  120OSM   H13F12743   3.586   2.930   8.959 -1.5597  0.6088 -1.3363
  120OSM   H13G12744   3.596   2.776   8.869 -0.5782  0.8360  0.6428
  120OSM   C14F12745   3.638   2.965   8.758  0.1195 -0.3197  0.2804
  120OSM   H14F12746   3.710   3.042   8.795 -0.3689 -0.3226  1.2477
  120OSM   H14G12747   3.541   3.017   8.743  0.9764  1.3038  0.0090
  120OSM   C15F12748   3.680   2.889   8.629 -0.3312  0.1478 -0.3725
  120OSM   H15F12749   3.601   2.814   8.610  0.5479 -0.2400 -2.8221
  120OSM   H15G12750   3.771   2.830   8.656 -0.4045 -0.7665 -1.9937
  120OSM   C16F12751   3.696   2.969   8.500  0.0065 -0.3827 -0.4091
  120OSM   H16F12752   3.603   3.026   8.484  1.1795  1.0517 -2.4679
  120OSM   H16G12753   3.704   2.895   8.418 -0.6518  0.4585 -1.2448
  120OSM   C17F12754   3.817   3.068   8.511  0.6312 -0.1118  0.1361
  120OSM   H17F12755   3.780   3.168   8.540 -0.1358 -0.8082  1.6938
  120OSM   H17G12756   3.857   3.077   8.407  1.5429  0.3128  0.5189
  120OSM   C18F12757   3.933   3.020   8.602 -0.2845 -0.1694 -0.2222
  120OSM   H18F12758   4.028   3.071   8.576  0.8069 -2.2633 -0.5345
  120OSM   H18G12759   3.945   2.913   8.575  1.3866 -0.2747  0.8328
  120OSM   H18H12760   3.914   3.033   8.710  1.5674 -3.2517  0.5874
  121OSM      N12761   4.117   5.269  11.043  0.1384 -0.3909  0.6673
  121OSM    C1512762   4.223   5.222  11.140 -0.5061 -0.8864 -0.2050
  121OSM   H15A12763   4.254   5.122  11.115 -0.4696 -1.5027  2.0304
  121OSM   H15B12764   4.202   5.214  11.246 -1.2589  0.9683 -0.1674
  121OSM   H15C12765   4.309   5.285  11.119 -1.2155 -0.3724 -1.7050
  121OSM    C1412766   4.001   5.196  11.099 -0.0915 -0.2066 -0.5612
  121OSM   H14A12767   3.964   5.226  11.195  0.3649 -0.7450 -0.2110
  121OSM   H14B12768   4.022   5.090  11.105  0.8370  0.0474  4.1960
  121OSM   H14C12769   3.919   5.225  11.035  1.4419  1.6673 -1.8301
  121OSM    C1312770   4.106   5.423  11.049  1.0287  0.0694 -0.0133
  121OSM   H13A12771   4.017   5.453  10.996 -1.0619 -1.1015  2.6268
  121OSM   H13B12772   4.188   5.480  11.007 -0.1455  0.9818 -1.1254
  121OSM   H13C12773   4.091   5.447  11.153 -1.7779 -0.5962 -0.2082
  121OSM    C1212774   4.143   5.222  10.898 -0.7947 -0.0312  0.2341
  121OSM   H12A12775   4.229   5.279  10.866  1.2443 -1.7736  2.2674
  121OSM   H12B12776   4.067   5.266  10.834  1.6354  1.2892 -1.9277
  121OSM    C1112777   4.166   5.065  10.888  0.8088 -0.1459 -0.9303
  121OSM   H11A12778   4.250   5.057  10.961 -0.3421  2.1411  0.7640
  121OSM   H11B12779   4.206   5.035  10.789 -2.6752  0.1516 -2.5729
  121OSM      P12780   3.927   4.966  10.834 -0.2899 -0.2373  0.2603
  121OSM    O1312781   3.876   4.824  10.863 -0.2779  0.8061 -0.3138
  121OSM    O1412782   3.839   5.078  10.858  0.3411 -0.4010  0.4728
  121OSM    O1112783   3.984   4.961  10.689 -0.2672 -0.6044  0.5928
  121OSM    O1212784   4.057   4.980  10.923  0.0184  0.0208 -0.2703
  121OSM    C1S12785   4.031   4.839  10.630  0.5095  0.2852 -0.6756
  121OSM    H1S12786   3.982   4.742  10.653  0.1131  0.5601 -0.3413
  121OSM    H1T12787   4.138   4.821  10.657 -0.0831 -2.6154  0.0741
  121OSM     NF12788   4.071   4.723  10.415 -0.2905  0.0133  0.2689
  121OSM    HNF12789   4.166   4.728  10.385 -0.4442  1.0201 -0.0960
  121OSM    C2S12790   4.042   4.853  10.481  0.6246  0.4356 -0.9657
  121OSM    H2S12791   3.946   4.892  10.441  0.2079  1.0509  0.5640
  121OSM    C3S12792   4.144   4.970  10.453 -0.2482  0.4455 -0.4323
  121OSM    H3S12793   4.237   4.954  10.512  0.8849  2.3086 -1.5926
  121OSM     O312794   4.100   5.096  10.492 -0.2084 -0.0550 -1.1844
  121OSM    HO312795   4.031   5.071  10.554  1.3307  0.3544  0.8296
  121OSM    C4S12796   4.179   4.977  10.307  0.0712 -0.7713  0.6749
  121OSM    H4S12797   4.278   4.950  10.267  0.3446  2.6862 -1.4520
  121OSM    C5S12798   4.087   5.023  10.209 -0.1399  0.0900  1.0285
  121OSM    H5S12799   3.989   5.062  10.240 -0.3789 -0.2686  0.7226
  121OSM    C6S12800   4.105   5.022  10.054  0.5246 -0.5144 -0.5640
  121OSM    H6S12801   4.013   4.977  10.012 -0.1030  0.9096 -0.7623
  121OSM    H6T12802   4.188   4.952  10.031  0.1491 -0.4752 -2.1045
  121OSM    C7S12803   4.122   5.166  10.011 -0.4086  0.2953  0.3387
  121OSM    H7S12804   4.185   5.226  10.081 -0.1611  0.2463  0.1588
  121OSM    H7T12805   4.029   5.222  10.034 -0.7323 -0.0467 -0.1238
  121OSM    C8S12806   4.168   5.181   9.865  0.1336 -0.3043  0.1078
  121OSM    H8S12807   4.258   5.119   9.847 -1.1063 -2.5695  1.2382
  121OSM    H8T12808   4.193   5.286   9.836 -0.0180 -0.1608  0.4926
  121OSM    C9S12809   4.067   5.130   9.765 -0.6929  0.4869 -0.2156
  121OSM    H9S12810   3.980   5.198   9.757 -1.3437 -0.1725  1.0591
  121OSM    H9T12811   4.019   5.036   9.799 -2.9743  2.0802  1.1838
  121OSM   C10S12812   4.147   5.117   9.640 -0.3183 -0.1928  1.7467
  121OSM   H10S12813   4.204   5.022   9.645  0.3456 -0.0247 -1.0823
  121OSM   H10T12814   4.225   5.195   9.623 -2.3211  2.0974  2.4981
  121OSM   C11S12815   4.066   5.112   9.509  0.0501  0.0664 -0.0877
  121OSM   H11S12816   4.009   5.207   9.514  0.7978  0.4705  2.4121
  121OSM   H11T12817   3.995   5.028   9.525  0.2937 -0.4517 -1.5622
  121OSM   C12S12818   4.142   5.070   9.384  0.7678  0.1291 -0.1398
  121OSM   H12S12819   4.203   4.981   9.411  1.4376  0.5128 -0.3566
  121OSM   H12T12820   4.216   5.144   9.347  2.3991 -2.0722 -1.5538
  121OSM   C13S12821   4.050   5.031   9.264 -0.1857  0.1565 -0.8008
  121OSM   H13S12822   3.992   5.120   9.231  1.8966  0.8320 -2.9968
  121OSM   H13T12823   3.980   4.955   9.304  1.8118  0.3698  3.6898
  121OSM   C14S12824   4.116   4.977   9.140  0.4884 -0.3904 -0.2857
  121OSM   H14S12825   4.138   4.869   9.151  1.5716 -0.0501  1.1825
  121OSM   H14T12826   4.216   5.022   9.124  0.6664 -0.9612 -0.7929
  121OSM   C15S12827   4.022   4.986   9.015  0.4545  0.5237 -0.9356
  121OSM   H15S12828   3.916   4.966   9.041  0.5941  0.7232 -0.1872
  121OSM   H15T12829   4.054   4.900   8.952 -0.3321  0.3933 -1.1655
  121OSM   C16S12830   4.029   5.122   8.937  0.2131  0.2882 -0.1735
  121OSM   H16S12831   4.137   5.142   8.919  0.0149 -0.7157 -2.9787
  121OSM   H16T12832   3.988   5.198   9.008 -2.8332 -2.1132  0.8537
  121OSM   C17S12833   3.962   5.124   8.797 -0.5583  0.2471  0.1487
  121OSM   H17S12834   3.967   5.229   8.761  1.8322 -0.1194 -0.7568
  121OSM   H17T12835   3.855   5.100   8.809 -0.6694  1.0715  0.9795
  121OSM   C18S12836   4.032   5.038   8.692 -0.7412  0.3082 -0.1367
  121OSM   H18S12837   4.130   5.076   8.655 -1.6299 -0.0807 -3.1835
  121OSM   H18T12838   3.969   5.044   8.601 -1.3787  0.2777  0.2948
  121OSM   H18U12839   4.046   4.932   8.722  1.3130  0.5481 -0.0875
  121OSM    C1F12840   3.989   4.616  10.422 -0.2187  0.4688  0.1698
  121OSM     OF12841   3.878   4.623  10.475  0.3648 -0.1081 -0.2387
  121OSM    C2F12842   4.031   4.486  10.360  0.1881  0.4474 -0.0044
  121OSM    H2F12843   3.948   4.417  10.334  0.5593 -0.7075  1.6647
  121OSM    H2G12844   4.103   4.438  10.430 -1.3297  1.0494  2.0905
  121OSM    C3F12845   4.118   4.504  10.235  0.2773  0.4309 -0.5199
  121OSM    H3F12846   4.135   4.399  10.203  0.9694  0.8041 -1.4318
  121OSM    H3G12847   4.218   4.548  10.255 -0.3181  0.3807  3.3525
  121OSM    C4F12848   4.042   4.576  10.119  0.2788 -0.2057  0.4794
  121OSM    H4F12849   4.015   4.678  10.155 -0.6270  0.2653 -1.4043
  121OSM    H4G12850   3.950   4.520  10.091 -0.0450  1.8845 -3.3260
  121OSM    C5F12851   4.125   4.603   9.986  0.4387 -0.9654 -0.4752
  121OSM    H5F12852   4.146   4.497   9.960 -3.5573 -1.9003 -0.4739
  121OSM    H5G12853   4.219   4.663   9.985  1.0853 -1.9227  0.4595
  121OSM    C6F12854   4.033   4.641   9.860  0.5453 -0.5672 -0.4024
  121OSM    H6F12855   3.996   4.745   9.877  0.8734 -0.4893 -0.1369
  121OSM    H6G12856   3.946   4.573   9.855 -0.4021  0.5550  0.1909
  121OSM    C7F12857   4.103   4.627   9.717 -0.2639 -0.2320 -0.1123
  121OSM    H7F12858   4.135   4.521   9.711  1.9852  0.4239 -0.9915
  121OSM    H7G12859   4.193   4.693   9.720  0.2706 -0.6454 -3.2568
  121OSM    C8F12860   4.017   4.658   9.592  0.0218 -0.5027  0.4386
  121OSM    H8F12861   3.970   4.759   9.598 -0.0371 -0.4732 -0.3880
  121OSM    H8G12862   3.929   4.590   9.595  0.2119 -0.7993 -0.3536
  121OSM    C9F12863   4.089   4.652   9.460 -0.3699 -0.4203 -0.1665
  121OSM    H9F12864   4.198   4.660   9.461 -0.4568  1.1443 -0.6029
  121OSM   C10F12865   4.033   4.622   9.343 -0.1016 -0.3343 -0.0731
  121OSM   H10F12866   4.096   4.633   9.253 -0.9475  0.3397 -0.6083
  121OSM   C11F12867   3.886   4.594   9.323  0.9185 -0.2747  0.3429
  121OSM   H11F12868   3.821   4.643   9.399 -0.0514 -1.6993  0.4851
  121OSM   H11G12869   3.869   4.486   9.344 -0.2526  0.1887  1.9833
  121OSM   C12F12870   3.829   4.636   9.181 -1.0130  0.4352 -1.2779
  121OSM   H12F12871   3.867   4.739   9.166 -2.5781  1.1302 -0.6694
  121OSM   H12G12872   3.719   4.620   9.182 -0.8335 -0.9198 -0.2817
  121OSM   C13F12873   3.883   4.557   9.065 -0.7316 -0.4236  0.4171
  121OSM   H13F12874   3.884   4.448   9.088  2.7908 -0.2576  1.7203
  121OSM   H13G12875   3.993   4.576   9.065 -0.5026 -1.5251 -0.8524
  121OSM   C14F12876   3.830   4.580   8.916  0.1017 -0.3175  0.7974
  121OSM   H14F12877   3.852   4.685   8.887  1.4368 -0.7293  0.2106
  121OSM   H14G12878   3.720   4.573   8.905  0.1478 -0.5885  0.4853
  121OSM   C15F12879   3.914   4.488   8.822  0.3176 -0.7080 -0.1821
  121OSM   H15F12880   3.930   4.391   8.872 -2.2008 -3.3208 -3.9155
  121OSM   H15G12881   4.007   4.543   8.798 -0.1181 -0.1632 -0.6800
  121OSM   C16F12882   3.816   4.446   8.716 -0.6465  0.7771  0.3772
  121OSM   H16F12883   3.806   4.540   8.658  0.4773  0.1057 -0.9441
  121OSM   H16G12884   3.719   4.415   8.759 -0.4119 -1.7468 -0.7614
  121OSM   C17F12885   3.862   4.339   8.616  0.3271  0.6368  0.6804
  121OSM   H17F12886   3.878   4.243   8.668 -0.0427 -0.3267 -0.9010
  121OSM   H17G12887   3.959   4.376   8.576 -0.3125  1.6433  0.0011
  121OSM   C18F12888   3.771   4.322   8.490  0.3941  0.0013 -0.1935
  121OSM   H18F12889   3.817   4.260   8.410  0.1915 -2.1300  1.2545
  121OSM   H18G12890   3.741   4.422   8.451  0.1847  0.4553  1.0884
  121OSM   H18H12891   3.679   4.267   8.517 -0.5366  1.4672 -0.2519
  122OSM      N12892   3.682   2.773  10.612 -0.1551 -0.0831  0.1518
  122OSM    C1512893   3.698   2.676  10.506  0.6696  0.8159 -0.3624
  122OSM   H15A12894   3.776   2.603  10.522  0.9129  1.1746  0.1140
  122OSM   H15B12895   3.733   2.728  10.419 -0.1381  1.2234 -0.4560
  122OSM   H15C12896   3.607   2.624  10.480  0.6937 -0.5116  1.8879
  122OSM    C1412897   3.612   2.898  10.567  0.3503 -0.6616  0.4320
  122OSM   H14A12898   3.538   2.887  10.490  0.7349  0.0284 -0.0552
  122OSM   H14B12899   3.681   2.973  10.530 -1.9034  2.5064  2.2013
  122OSM   H14C12900   3.565   2.957  10.644 -0.4249  1.7073 -1.7059
  122OSM    C1312901   3.603   2.723  10.729  0.2595 -0.4212 -0.0525
  122OSM   H13A12902   3.582   2.803  10.798 -2.9142 -0.0622 -1.2267
  122OSM   H13B12903   3.652   2.638  10.774 -1.8389 -1.4290  0.4779
  122OSM   H13C12904   3.500   2.699  10.704  0.4418 -2.6319  1.0894
  122OSM    C1212905   3.818   2.812  10.670  0.1538 -0.0866 -0.1808
  122OSM   H12A12906   3.859   2.727  10.723 -2.4144  0.0076  2.1782
  122OSM   H12B12907   3.794   2.895  10.736 -3.9659  0.0510 -1.6088
  122OSM    C1112908   3.927   2.851  10.563  0.8404 -0.1694 -1.0864
  122OSM   H11A12909   3.887   2.924  10.489 -0.1266 -0.8120 -1.2171
  122OSM   H11B12910   3.946   2.763  10.499 -0.5669 -2.3671  1.3401
  122OSM      P12911   4.090   3.047  10.626 -0.4164  0.6849 -0.0643
  122OSM    O1312912   4.003   3.129  10.713  0.1987 -0.0225 -0.3326
  122OSM    O1412913   4.240   3.048  10.658  0.0480  0.0268 -0.1706
  122OSM    O1112914   4.090   3.105  10.486  0.2662  0.1739  0.6055
  122OSM    O1212915   4.041   2.897  10.625  0.2990 -0.2854  0.1121
  122OSM    C1S12916   4.169   3.026  10.389  0.0928 -0.3067  0.7790
  122OSM    H1S12917   4.130   2.923  10.379 -1.4158  0.1973  1.1431
  122OSM    H1T12918   4.275   3.024  10.422  0.2169  2.1059  0.6964
  122OSM     NF12919   4.235   3.025  10.143 -0.3310  1.0600  0.6595
  122OSM    HNF12920   4.334   3.035  10.130 -0.3816 -0.3315 -1.1194
  122OSM    C2S12921   4.166   3.097  10.246 -0.2926 -0.8293  0.0307
  122OSM    H2S12922   4.060   3.113  10.216 -0.1506  2.4572  0.9522
  122OSM    C3S12923   4.220   3.241  10.257 -0.3476 -0.0476  1.0048
  122OSM    H3S12924   4.328   3.229  10.280 -0.6045 -0.4090  2.1084
  122OSM     O312925   4.163   3.311  10.372 -0.0455 -0.3794  0.4490
  122OSM    HO312926   4.122   3.237  10.417  0.0201 -0.0034  1.1393
  122OSM    C4S12927   4.190   3.330  10.137 -0.0453  0.1320  1.0129
  122OSM    H4S12928   4.090   3.375  10.131 -0.6116 -1.0577  1.0994
  122OSM    C5S12929   4.273   3.355  10.033  0.5944 -0.2256 -0.6405
  122OSM    H5S12930   4.372   3.309  10.041  1.0834  1.0541  2.0110
  122OSM    C6S12931   4.234   3.449   9.916 -0.2579 -0.4820 -0.0577
  122OSM    H6S12932   4.313   3.527   9.913  0.4756 -1.1634  0.9178
  122OSM    H6T12933   4.136   3.499   9.927 -0.1816 -0.4686  0.6067
  122OSM    C7S12934   4.226   3.363   9.795 -0.1872  0.3963 -0.1798
  122OSM    H7S12935   4.137   3.297   9.800  1.2579 -1.7250 -0.8690
  122OSM    H7T12936   4.314   3.299   9.771  0.4014  0.7316  0.9804
  122OSM    C8S12937   4.219   3.449   9.668  1.1246  0.5820  0.1491
  122OSM    H8S12938   4.304   3.519   9.684  1.1374  0.3699  1.0638
  122OSM    H8T12939   4.121   3.500   9.657  0.9493  0.2678  0.2305
  122OSM    C9S12940   4.234   3.364   9.544 -0.1487 -0.7372 -0.0738
  122OSM    H9S12941   4.159   3.283   9.536  0.9154 -1.6583 -1.2608
  122OSM    H9T12942   4.328   3.309   9.568  0.6778  0.8769  0.5154
  122OSM   C10S12943   4.242   3.441   9.410 -0.1142  0.6946 -0.2351
  122OSM   H10S12944   4.326   3.513   9.411 -0.3186  0.9452  0.7093
  122OSM   H10T12945   4.143   3.490   9.396  0.5679  2.4640  0.8740
  122OSM   C11S12946   4.260   3.339   9.293 -0.4135  0.2245  0.4337
  122OSM   H11S12947   4.184   3.259   9.281 -0.6976  0.2378  1.9712
  122OSM   H11T12948   4.357   3.291   9.315 -0.5799  0.2774  1.3270
  122OSM   C12S12949   4.259   3.412   9.157 -0.1324  0.7748  0.0228
  122OSM   H12S12950   4.317   3.507   9.163 -0.6344  0.9850  2.1803
  122OSM   H12T12951   4.153   3.441   9.137 -0.3558  0.3134  0.5125
  122OSM   C13S12952   4.303   3.331   9.037  0.1524 -0.0990  0.4665
  122OSM   H13S12953   4.398   3.280   9.064 -0.4842 -0.5122  2.0625
  122OSM   H13T12954   4.329   3.396   8.951 -0.4898  1.6424  1.5513
  122OSM   C14S12955   4.207   3.226   8.990  0.0210  0.1451  0.2420
  122OSM   H14S12956   4.103   3.262   8.977  0.4099  1.1867 -0.1108
  122OSM   H14T12957   4.205   3.137   9.057 -2.1379 -0.2376 -0.2560
  122OSM   C15S12958   4.253   3.171   8.848 -0.0704  0.0140  0.3943
  122OSM   H15S12959   4.228   3.249   8.774 -2.3598  0.4550  1.5346
  122OSM   H15T12960   4.189   3.081   8.829  0.5180  0.0006 -1.7365
  122OSM   C16S12961   4.403   3.126   8.840  0.1016  0.3379  0.4399
  122OSM   H16S12962   4.430   3.056   8.921 -3.6877 -1.8201  0.0485
  122OSM   H16T12963   4.474   3.211   8.845 -0.2756  1.0793 -3.2783
  122OSM   C17S12964   4.433   3.056   8.700 -0.3579 -0.1111 -0.2111
  122OSM   H17S12965   4.354   3.084   8.627 -2.1939  0.3721  1.8465
  122OSM   H17T12966   4.418   2.947   8.714  1.1043 -0.4502 -1.0216
  122OSM   C18S12967   4.576   3.082   8.641 -0.2809 -0.1727 -0.1392
  122OSM   H18S12968   4.636   3.070   8.733 -2.6138  2.6968  1.9396
  122OSM   H18T12969   4.577   3.186   8.601 -2.8176 -0.2845 -0.6427
  122OSM   H18U12970   4.586   3.003   8.563 -1.7336 -0.3697 -0.1590
  122OSM    C1F12971   4.174   2.926  10.072 -0.7844  0.3593  0.1918
  122OSM     OF12972   4.059   2.898  10.089 -0.2534  0.1507  0.3071
  122OSM    C2F12973   4.256   2.865   9.961 -0.4721  0.1196 -0.4942
  122OSM    H2F12974   4.304   2.767   9.978  1.4524  0.6935 -2.1378
  122OSM    H2G12975   4.352   2.920   9.949 -0.5302  0.3585  0.1188
  122OSM    C3F12976   4.184   2.879   9.826 -0.5512  0.4457  0.0374
  122OSM    H3F12977   4.136   2.979   9.819  0.1958  0.7420 -1.2161
  122OSM    H3G12978   4.103   2.803   9.816  1.3545 -1.7272  0.2664
  122OSM    C4F12979   4.285   2.869   9.718 -0.1221 -0.3876 -0.0558
  122OSM    H4F12980   4.331   2.768   9.713  0.1588 -0.3040  0.7990
  122OSM    H4G12981   4.360   2.948   9.736  0.7123 -1.2303  0.2235
  122OSM    C5F12982   4.219   2.883   9.579 -0.3517 -0.2599  0.3020
  122OSM    H5F12983   4.164   2.979   9.564 -0.3477 -0.4268 -0.9297
  122OSM    H5G12984   4.140   2.806   9.574 -0.2442 -0.4538  1.3695
  122OSM    C6F12985   4.314   2.865   9.463  0.4580  0.5963  0.2742
  122OSM    H6F12986   4.352   2.763   9.440  0.9842  1.0102 -0.7872
  122OSM    H6G12987   4.396   2.938   9.479  1.0471  0.1526 -0.6194
  122OSM    C7F12988   4.253   2.902   9.328  0.2744  0.5610  0.5670
  122OSM    H7F12989   4.331   2.926   9.253 -1.6224  4.0002 -0.5489
  122OSM    H7G12990   4.197   2.997   9.347  1.3306  1.2102  0.5094
  122OSM    C8F12991   4.154   2.788   9.268 -0.1076 -0.6741 -0.0229
  122OSM    H8F12992   4.119   2.822   9.168  3.0029  0.6276 -0.7983
  122OSM    H8G12993   4.077   2.755   9.341  0.5547 -0.0973  0.9600
  122OSM    C9F12994   4.235   2.663   9.238  0.5825  0.5359  0.4290
  122OSM    H9F12995   4.281   2.620   9.328 -0.6790 -1.2407  0.2686
  122OSM   C10F12996   4.277   2.628   9.118  0.3419  0.6333  0.2219
  122OSM   H10F12997   4.346   2.544   9.110  1.0318  1.2032  0.0773
  122OSM   C11F12998   4.263   2.698   8.985  0.3270  0.5969  0.6361
  122OSM   H11F12999   4.322   2.792   8.977  0.1945  0.5976 -0.5580
  122OSM   H11G13000   4.158   2.730   8.964 -0.7628 -1.2203  2.9687
  122OSM   C12F13001   4.306   2.606   8.870  0.3794  0.5566 -0.0025
  122OSM   H12F13002   4.248   2.512   8.861  0.4531  0.5648 -0.5902
  122OSM   H12G13003   4.411   2.575   8.888  0.4153  0.2353 -0.7436
  122OSM   C13F13004   4.284   2.687   8.736  0.2473  0.1900  0.1110
  122OSM   H13F13005   4.328   2.788   8.749 -0.3943  0.5869 -0.6816
  122OSM   H13G13006   4.175   2.681   8.712  0.6108 -3.9350 -1.3123
  122OSM   C14F13007   4.352   2.619   8.619  0.0896 -0.2452  0.4487
  122OSM   H14F13008   4.303   2.527   8.581  3.3365 -0.9846 -2.4189
  122OSM   H14G13009   4.452   2.582   8.652  0.8060  1.6595  0.5783
  122OSM   C15F13010   4.371   2.713   8.501 -0.4733 -0.5198 -0.5533
  122OSM   H15F13011   4.391   2.662   8.404 -0.9128 -2.0140  0.1193
  122OSM   H15G13012   4.460   2.777   8.518 -2.2374  1.7987  0.5308
  122OSM   C16F13013   4.249   2.805   8.475 -0.1590  1.0787 -0.5337
  122OSM   H16F13014   4.234   2.876   8.558  1.3966  0.0060  0.7308
  122OSM   H16G13015   4.160   2.738   8.477  1.5807 -1.3680  0.1288
  122OSM   C17F13016   4.248   2.878   8.343 -0.1244  0.2068  0.4421
  122OSM   H17F13017   4.299   2.828   8.258  0.1241 -3.0381  2.3387
  122OSM   H17G13018   4.294   2.978   8.352 -0.5727  0.5759 -0.9510
  122OSM   C18F13019   4.101   2.896   8.292 -0.0483 -0.5804 -0.2796
  122OSM   H18F13020   4.095   2.971   8.210 -0.6599  1.4569  1.5293
  122OSM   H18G13021   4.035   2.936   8.372 -0.3023 -0.2472 -0.6508
  122OSM   H18H13022   4.054   2.798   8.270 -0.2082 -0.7723  0.8832
  123OSM      N13023   1.347   5.461   6.282 -0.0947  0.9706  0.5756
  123OSM    C1513024   1.299   5.447   6.425  0.4444 -0.4542  0.0645
  123OSM   H15A13025   1.382   5.441   6.493 -1.3673 -0.3473  2.4183
  123OSM   H15B13026   1.246   5.353   6.418  1.5097 -1.0242 -0.4930
  123OSM   H15C13027   1.243   5.534   6.456  1.8766 -0.0340  1.5745
  123OSM    C1413028   1.413   5.335   6.245 -0.3472  0.3193 -0.1018
  123OSM   H14A13029   1.497   5.315   6.309  0.8878  0.9267 -1.4878
  123OSM   H14B13030   1.438   5.335   6.140 -2.9940  1.1730 -0.8271
  123OSM   H14C13031   1.345   5.250   6.247  1.2760 -1.1221 -2.0615
  123OSM    C1313032   1.234   5.489   6.186 -0.4507  0.0770  0.5076
  123OSM   H13A13033   1.166   5.561   6.228  1.8000  2.7706 -0.1056
  123OSM   H13B13034   1.178   5.401   6.160  1.0596 -0.8448  0.2642
  123OSM   H13C13035   1.270   5.532   6.094 -0.8259 -0.6550  0.0137
  123OSM    C1213036   1.447   5.566   6.269 -0.3088  0.5431 -0.0636
  123OSM   H12A13037   1.404   5.662   6.290  0.1082  0.2364  2.5865
  123OSM   H12B13038   1.474   5.552   6.165 -2.0394  2.6777 -0.8636
  123OSM    C1113039   1.577   5.564   6.356 -0.3794  0.6245  0.1507
  123OSM   H11A13040   1.633   5.469   6.340  0.7234  1.1442  0.8195
  123OSM   H11B13041   1.532   5.560   6.457 -1.2384  0.7936 -0.2168
  123OSM      P13042   1.766   5.685   6.212 -0.3486 -0.0646  0.6928
  123OSM    O1313043   1.709   5.616   6.092  0.7238 -0.9215  0.2126
  123OSM    O1413044   1.812   5.824   6.200  0.1465 -0.5372 -0.4446
  123OSM    O1113045   1.875   5.592   6.281  0.0377 -0.0441  0.0186
  123OSM    O1213046   1.659   5.682   6.327 -0.0785 -0.5121  0.7614
  123OSM    C1S13047   1.939   5.635   6.401 -0.0163 -0.1671 -0.4598
  123OSM    H1S13048   1.918   5.743   6.414 -0.6409 -0.2635 -0.6276
  123OSM    H1T13049   2.049   5.622   6.392  0.0915  1.3333 -1.7478
  123OSM     NF13050   1.934   5.632   6.665 -0.1300  0.4697  0.2313
  123OSM    HNF13051   1.996   5.574   6.719 -0.2417  0.2085  0.0815
  123OSM    C2S13052   1.894   5.570   6.538 -0.5141  0.1924  0.0066
  123OSM    H2S13053   1.783   5.567   6.542 -0.5889  0.9134 -1.1341
  123OSM    C3S13054   1.945   5.422   6.543 -0.4320  0.1032 -0.0847
  123OSM    H3S13055   2.052   5.420   6.570 -0.4335  1.3126  0.0877
  123OSM     O313056   1.918   5.347   6.424  0.1079 -0.0083  0.3304
  123OSM    HO313057   1.880   5.406   6.359 -1.8730  0.0677  1.4795
  123OSM    C4S13058   1.877   5.356   6.654  0.0859 -0.3965 -0.6840
  123OSM    H4S13059   1.932   5.364   6.749 -0.7813 -1.7357 -0.0376
  123OSM    C5S13060   1.758   5.293   6.650  0.3113 -0.4028 -0.3081
  123OSM    H5S13061   1.709   5.282   6.552  1.9711 -0.7107 -1.1257
  123OSM    C6S13062   1.696   5.238   6.778 -0.8010 -0.3402  0.6344
  123OSM    H6S13063   1.631   5.154   6.745 -3.0829  0.4933  2.6953
  123OSM    H6T13064   1.625   5.309   6.826  1.6185  2.1718  0.7543
  123OSM    C7S13065   1.802   5.180   6.880  0.1008 -0.1083  0.3379
  123OSM    H7S13066   1.881   5.255   6.902  0.7827 -1.0267  1.1277
  123OSM    H7T13067   1.855   5.096   6.828 -0.3965  0.4419 -1.1065
  123OSM    C8S13068   1.736   5.134   7.010  0.1333  0.4015  0.3452
  123OSM    H8S13069   1.649   5.067   6.994  0.5892 -0.3553  0.9185
  123OSM    H8T13070   1.688   5.220   7.061  0.0991 -0.3269  1.5804
  123OSM    C9S13071   1.841   5.063   7.101  0.1605  0.1646  0.7987
  123OSM    H9S13072   1.927   5.133   7.106  2.0524 -1.9146 -0.5957
  123OSM    H9T13073   1.877   4.975   7.044 -0.9534 -0.0569  0.4003
  123OSM   C10S13074   1.790   5.010   7.237  0.0081 -0.5814 -0.8194
  123OSM   H10S13075   1.816   4.902   7.245  1.3259 -0.4621 -2.6513
  123OSM   H10T13076   1.681   5.023   7.251  0.4349  1.4705  1.1369
  123OSM   C11S13077   1.865   5.082   7.354 -0.2811  0.9032 -0.0330
  123OSM   H11S13078   1.871   5.193   7.364 -2.0533  1.0835 -0.5929
  123OSM   H11T13079   1.969   5.047   7.342 -0.0225  0.8992  1.9510
  123OSM   C12S13080   1.817   5.036   7.489  0.2550  0.0939  0.1473
  123OSM   H12S13081   1.812   4.925   7.482  0.2825 -0.0399  1.8991
  123OSM   H12T13082   1.711   5.069   7.493 -0.1598 -1.0227 -0.9206
  123OSM   C13S13083   1.893   5.093   7.612  0.1126 -0.3855  0.3453
  123OSM   H13S13084   1.896   5.204   7.603  1.4213 -0.3941  0.5592
  123OSM   H13T13085   1.999   5.066   7.596  0.4686  0.5569  1.0284
  123OSM   C14S13086   1.851   5.038   7.752  0.0162  0.1088  0.2158
  123OSM   H14S13087   1.813   4.935   7.739 -0.3284  0.2749 -0.0912
  123OSM   H14T13088   1.763   5.100   7.780 -0.5115 -1.7036  2.9386
  123OSM   C15S13089   1.958   5.044   7.862  0.6476 -0.4482  0.1537
  123OSM   H15S13090   2.008   5.143   7.866  0.4259 -0.3247 -0.1190
  123OSM   H15T13091   2.033   4.963   7.847  0.8776  0.0723 -1.8737
  123OSM   C16S13092   1.893   5.032   8.003 -1.0257 -1.0244 -1.0770
  123OSM   H16S13093   1.839   4.937   8.021 -0.4967 -0.9094  1.5355
  123OSM   H16T13094   1.819   5.113   8.021 -0.2592 -0.7480  1.1784
  123OSM   C17S13095   2.002   5.050   8.115  0.0613 -0.0697  0.0314
  123OSM   H17S13096   2.041   5.153   8.112 -2.3793  0.9070 -2.8181
  123OSM   H17T13097   2.080   4.973   8.095  0.4007 -0.0391  1.1422
  123OSM   C18S13098   1.942   5.011   8.249  0.2494 -0.1963  0.2188
  123OSM   H18S13099   2.010   5.021   8.336 -0.7756  0.5423  0.9703
  123OSM   H18T13100   1.923   4.902   8.246 -0.5025 -0.0851  0.6036
  123OSM   H18U13101   1.842   5.060   8.258  0.2777  0.2007 -1.3820
  123OSM    C1F13102   1.883   5.750   6.701 -0.3024 -0.1686 -0.1547
  123OSM     OF13103   1.792   5.801   6.637 -0.8939 -0.1000 -0.6576
  123OSM    C2F13104   1.958   5.809   6.817 -0.2398  0.7532 -0.2281
  123OSM    H2F13105   2.062   5.837   6.789 -0.1013 -1.4042 -2.2216
  123OSM    H2G13106   1.961   5.733   6.897  1.4124  0.5287 -0.4715
  123OSM    C3F13107   1.879   5.939   6.854  0.3153  0.2543 -0.1684
  123OSM    H3F13108   1.782   5.904   6.896  0.3290  0.1015 -0.2666
  123OSM    H3G13109   1.862   6.009   6.770 -1.1213 -0.2357 -0.3035
  123OSM    C4F13110   1.945   6.024   6.969 -0.1189 -0.3663  0.2079
  123OSM    H4F13111   1.876   6.110   6.981  0.4150  0.3541 -1.5392
  123OSM    H4G13112   2.048   6.055   6.944  1.6914 -2.7152  3.8266
  123OSM    C5F13113   1.955   5.942   7.097  0.2906  0.6656  0.5838
  123OSM    H5F13114   2.040   5.872   7.102 -0.1045  0.1412  0.0800
  123OSM    H5G13115   1.857   5.893   7.112  0.6179 -0.4654 -0.7459
  123OSM    C6F13116   1.983   6.022   7.222 -0.0428 -0.3090  0.0872
  123OSM    H6F13117   1.929   6.119   7.227  2.2332  1.0575 -0.1035
  123OSM    H6G13118   2.092   6.046   7.224 -0.4383  1.6125  0.2692
  123OSM    C7F13119   1.955   5.944   7.352  0.0442  0.0487  0.1499
  123OSM    H7F13120   2.015   5.851   7.364  0.0388 -0.1161 -0.9682
  123OSM    H7G13121   1.848   5.916   7.342  0.5458 -2.0513  0.1246
  123OSM    C8F13122   1.968   6.035   7.475  0.5089 -0.1158  0.1832
  123OSM    H8F13123   1.916   5.990   7.563 -0.0322 -1.3568 -0.7422
  123OSM    H8G13124   1.919   6.134   7.459 -0.7093 -0.5308  1.1619
  123OSM    C9F13125   2.106   6.058   7.512 -0.0601  0.0840  0.0431
  123OSM    H9F13126   2.166   6.103   7.431 -0.2887 -2.2928 -1.5672
  123OSM   C10F13127   2.165   6.006   7.619  0.1756  1.0079  0.8340
  123OSM   H10F13128   2.274   6.022   7.626  0.4699 -0.4684 -0.0419
  123OSM   C11F13129   2.114   5.924   7.727  0.7971 -0.2008  0.7857
  123OSM   H11F13130   2.141   5.820   7.698 -0.9342 -0.7724  1.0848
  123OSM   H11G13131   2.003   5.926   7.734  0.7744 -0.1296  0.4126
  123OSM   C12F13132   2.171   5.940   7.875  0.3787 -0.5547  0.3313
  123OSM   H12F13133   2.098   6.015   7.912 -0.0743 -1.1985  0.7714
  123OSM   H12G13134   2.272   5.984   7.859  0.2597 -1.1807 -2.8149
  123OSM   C13F13135   2.164   5.813   7.960 -0.2808 -0.0644 -0.1719
  123OSM   H13F13136   2.227   5.731   7.919 -1.2595 -0.8656 -0.1006
  123OSM   H13G13137   2.056   5.789   7.970 -0.4915  0.8999  0.0132
  123OSM   C14F13138   2.207   5.841   8.104 -0.7756 -0.1302  0.1412
  123OSM   H14F13139   2.187   5.747   8.159  1.4407 -1.6073 -1.4149
  123OSM   H14G13140   2.143   5.924   8.142 -2.4851 -0.9499 -0.8313
  123OSM   C15F13141   2.359   5.877   8.118  0.5727 -0.2428  0.4203
  123OSM   H15F13142   2.370   5.981   8.078 -1.2685  1.1376  3.1526
  123OSM   H15G13143   2.415   5.797   8.065 -1.1935 -2.2357  1.4199
  123OSM   C16F13144   2.391   5.865   8.269 -1.0851  0.1374 -0.2585
  123OSM   H16F13145   2.317   5.903   8.342 -0.5440 -0.6313  0.7141
  123OSM   H16G13146   2.484   5.926   8.279 -1.3846  1.1512 -2.9548
  123OSM   C17F13147   2.425   5.712   8.289  0.1115  0.2299 -0.6571
  123OSM   H17F13148   2.512   5.676   8.230  0.1295 -0.8509  0.0013
  123OSM   H17G13149   2.331   5.655   8.272  0.8704 -1.6520  1.0230
  123OSM   C18F13150   2.455   5.699   8.434 -0.1437 -0.3934 -0.3582
  123OSM   H18F13151   2.378   5.740   8.503  0.0315  3.0654 -2.0021
  123OSM   H18G13152   2.550   5.754   8.449 -0.5466  0.2476 -0.1409
  123OSM   H18H13153   2.459   5.589   8.451  3.5588 -0.3120  0.1552
  124OSM      N13154   6.163   3.978   6.210 -0.3370 -0.0935 -0.3987
  124OSM    C1513155   6.048   3.883   6.226  1.1342  0.1622  0.0854
  124OSM   H15A13156   5.999   3.870   6.131 -1.2759  3.5643  0.6671
  124OSM   H15B13157   5.974   3.914   6.299  1.3380 -0.4619  0.5724
  124OSM   H15C13158   6.085   3.785   6.250  1.1806  0.0018 -0.6254
  124OSM    C1413159   6.256   3.908   6.121  0.5131  0.0766 -0.8279
  124OSM   H14A13160   6.348   3.966   6.115 -0.1992  1.4630  0.7888
  124OSM   H14B13161   6.219   3.889   6.021 -0.9264  0.7417 -0.4498
  124OSM   H14C13162   6.293   3.815   6.162 -0.9464 -1.5034 -2.9142
  124OSM    C1313163   6.122   4.108   6.147 -0.1260  0.2188  0.3140
  124OSM   H13A13164   6.063   4.097   6.057  0.1691  1.2733 -0.0270
  124OSM   H13B13165   6.207   4.173   6.129 -0.1534  0.5943  1.4859
  124OSM   H13C13166   6.070   4.168   6.219 -1.1793 -0.7164  0.3442
  124OSM    C1213167   6.237   3.999   6.350  0.1371  0.4384 -0.2072
  124OSM   H12A13168   6.315   4.069   6.326  1.5597 -1.9747 -3.2583
  124OSM   H12B13169   6.285   3.910   6.385 -1.5770 -0.7713 -0.8020
  124OSM    C1113170   6.150   4.061   6.463  0.8085 -0.6227 -0.0124
  124OSM   H11A13171   6.212   4.070   6.555  1.8113  3.0113 -0.8863
  124OSM   H11B13172   6.067   3.990   6.481  0.1405  0.2495  0.4625
  124OSM      P13173   5.957   4.243   6.468  0.3169  0.3413 -0.2032
  124OSM    O1313174   5.954   4.387   6.488  0.0431  0.6426 -0.0467
  124OSM    O1413175   5.864   4.196   6.363  0.0678  0.6759 -0.2014
  124OSM    O1113176   5.922   4.177   6.608  0.6372 -0.0499 -0.3809
  124OSM    O1213177   6.110   4.199   6.432  0.0547  0.2987  0.5173
  124OSM    C1S13178   6.007   4.210   6.726  0.4670  0.2273  0.0450
  124OSM    H1S13179   6.047   4.313   6.719 -0.6613  0.5888 -1.6244
  124OSM    H1T13180   6.084   4.131   6.739 -0.9952 -0.9276  2.1508
  124OSM     NF13181   6.009   4.256   6.969  0.5771  0.3060 -0.2046
  124OSM    HNF13182   6.065   4.192   7.020 -0.9917 -1.0493 -0.1039
  124OSM    C2S13183   5.922   4.204   6.857  0.1383 -1.1693 -0.2534
  124OSM    H2S13184   5.834   4.272   6.849  0.0240 -0.8019  2.9401
  124OSM    C3S13185   5.870   4.064   6.877  0.3557  0.3518  0.7002
  124OSM    H3S13186   5.956   3.994   6.884  0.7218  0.9298  2.3297
  124OSM     O313187   5.805   4.004   6.765 -0.2192 -0.4120  0.4885
  124OSM    HO313188   5.805   4.074   6.700 -1.6675  0.6214  1.5459
  124OSM    C4S13189   5.789   4.044   7.007 -0.6665 -0.0846 -0.9134
  124OSM    H4S13190   5.861   4.048   7.091 -0.4976 -1.9816 -0.9189
  124OSM    C5S13191   5.661   4.025   7.025  0.0021 -0.3413 -0.1433
  124OSM    H5S13192   5.596   4.033   6.937  0.5790  2.3806 -0.3834
  124OSM    C6S13193   5.581   4.001   7.159  0.2386  0.9994 -0.3149
  124OSM    H6S13194   5.517   3.910   7.149  1.4995  0.0049  0.3484
  124OSM    H6T13195   5.514   4.088   7.179 -1.5596 -0.4513  0.3039
  124OSM    C7S13196   5.679   3.982   7.278 -0.0711 -0.4037  0.7563
  124OSM    H7S13197   5.745   4.071   7.272 -3.5284  2.3389  0.2662
  124OSM    H7T13198   5.740   3.892   7.252  1.7221  1.5188 -2.3975
  124OSM    C8S13199   5.619   3.965   7.415  0.2502  0.0301  0.6282
  124OSM    H8S13200   5.569   3.868   7.395  1.3245  0.0522 -2.8429
  124OSM    H8T13201   5.544   4.045   7.434 -0.0980 -0.1342 -0.0089
  124OSM    C9S13202   5.716   3.960   7.528 -0.0360 -0.3182  0.5703
  124OSM    H9S13203   5.745   4.061   7.564 -0.4719 -0.0764  0.2628
  124OSM    H9T13204   5.807   3.909   7.489 -0.2896  0.5190 -1.2392
  124OSM   C10S13205   5.645   3.892   7.649  0.1935  0.4182 -0.6198
  124OSM   H10S13206   5.613   3.791   7.617 -0.7923  0.4732  0.1313
  124OSM   H10T13207   5.559   3.960   7.667  0.7023  0.7945  0.4833
  124OSM   C11S13208   5.718   3.882   7.783  0.0853  0.4614 -0.0625
  124OSM   H11S13209   5.632   3.893   7.853 -1.0438 -1.3021 -1.1277
  124OSM   H11T13210   5.787   3.969   7.791  0.2035  0.3332  0.3472
  124OSM   C12S13211   5.796   3.752   7.798  0.9650 -0.4420 -0.2338
  124OSM   H12S13212   5.860   3.742   7.708  1.3723 -1.8343  0.1746
  124OSM   H12T13213   5.723   3.669   7.808  1.8342 -1.2303 -0.2851
  124OSM   C13S13214   5.891   3.761   7.914 -0.9167  0.2188  0.2945
  124OSM   H13S13215   5.838   3.777   8.011 -1.0996  0.6357  0.1256
  124OSM   H13T13216   5.949   3.853   7.890  0.3942 -1.2337 -2.5696
  124OSM   C14S13217   5.980   3.632   7.923 -0.3828 -0.4479  0.4078
  124OSM   H14S13218   6.062   3.651   7.850  0.1524  0.6094  1.2421
  124OSM   H14T13219   5.925   3.539   7.899 -1.2031 -0.0219  0.6049
  124OSM   C15S13220   6.040   3.627   8.061  0.2101  0.1383 -0.0147
  124OSM   H15S13221   5.972   3.613   8.148  0.5445  0.4232  0.2981
  124OSM   H15T13222   6.101   3.717   8.085  2.6416 -1.4574  0.1038
  124OSM   C16S13223   6.111   3.495   8.075 -0.9122  0.0440 -0.1048
  124OSM   H16S13224   6.196   3.480   8.005 -0.6200  1.7775 -0.1690
  124OSM   H16T13225   6.034   3.416   8.064 -2.0943  1.3335 -1.3422
  124OSM   C17S13226   6.185   3.474   8.209 -0.2110 -0.6486 -0.0048
  124OSM   H17S13227   6.228   3.570   8.242 -0.8202 -0.5436  0.5046
  124OSM   H17T13228   6.270   3.404   8.195 -0.3966 -1.0297  0.7160
  124OSM   C18S13229   6.104   3.413   8.325 -0.3153  0.0342 -0.5253
  124OSM   H18S13230   6.012   3.477   8.330 -0.7533 -0.6813  1.1443
  124OSM   H18T13231   6.167   3.414   8.416  0.2528 -0.5066 -0.9152
  124OSM   H18U13232   6.071   3.308   8.310 -0.5640  0.0502 -0.1132
  124OSM    C1F13233   6.031   4.381   6.983  0.2038 -0.6525  0.2816
  124OSM     OF13234   5.996   4.463   6.898  0.2437 -0.4154 -0.6680
  124OSM    C2F13235   6.119   4.417   7.098 -0.5365 -0.4874  0.3222
  124OSM    H2F13236   6.213   4.363   7.075 -0.9895 -1.1994  0.1324
  124OSM    H2G13237   6.069   4.372   7.186 -0.7651 -2.1275 -0.6040
  124OSM    C3F13238   6.130   4.569   7.107  1.1530 -0.7213 -0.6227
  124OSM    H3F13239   6.034   4.622   7.122  1.3261 -0.7627  0.7612
  124OSM    H3G13240   6.193   4.610   7.024 -1.4398 -0.5514 -2.6518
  124OSM    C4F13241   6.192   4.611   7.245  0.4485  0.6102 -0.4985
  124OSM    H4F13242   6.211   4.718   7.268 -0.0629  0.0566  3.0832
  124OSM    H4G13243   6.285   4.551   7.255  0.1073 -0.2184 -1.9739
  124OSM    C5F13244   6.110   4.561   7.371  0.0492 -0.5723 -0.4896
  124OSM    H5F13245   6.108   4.450   7.360  0.4767 -0.5166 -1.1472
  124OSM    H5G13246   6.003   4.585   7.357  0.6636  1.8739 -1.5730
  124OSM    C6F13247   6.170   4.596   7.506 -0.1636  0.8994  0.0447
  124OSM    H6F13248   6.170   4.707   7.511  0.6498  0.8611  1.3637
  124OSM    H6G13249   6.276   4.566   7.516 -0.0994  1.1489  0.1274
  124OSM    C7F13250   6.094   4.545   7.631  0.0129 -0.0151  0.0086
  124OSM    H7F13251   6.080   4.435   7.623 -0.2992 -0.0429  0.7793
  124OSM    H7G13252   5.998   4.601   7.642  0.8638  1.5245 -0.1147
  124OSM    C8F13253   6.186   4.541   7.760  0.5255  0.1599 -0.4102
  124OSM    H8F13254   6.264   4.467   7.733 -0.1249 -0.4847 -0.5467
  124OSM    H8G13255   6.122   4.510   7.846  1.6156 -1.3890 -0.1144
  124OSM    C9F13256   6.266   4.670   7.789 -1.2146 -0.2008  0.7743
  124OSM    H9F13257   6.303   4.735   7.708  0.4559  0.6103  2.1143
  124OSM   C10F13258   6.313   4.708   7.908 -0.8810  0.0231 -0.3836
  124OSM   H10F13259   6.374   4.799   7.914  0.9488 -1.1802  0.0545
  124OSM   C11F13260   6.291   4.647   8.042 -0.5947  0.3458  0.0111
  124OSM   H11F13261   6.378   4.589   8.079 -1.9061 -1.7852 -0.0698
  124OSM   H11G13262   6.215   4.567   8.027  1.0872 -0.9204 -2.3987
  124OSM   C12F13263   6.243   4.748   8.146  0.0751  0.1189  0.0065
  124OSM   H12F13264   6.199   4.694   8.232  0.7225  0.3742  0.5086
  124OSM   H12G13265   6.168   4.819   8.106  1.8929  3.0225  1.3964
  124OSM   C13F13266   6.351   4.839   8.213  0.0955 -0.7792  0.5463
  124OSM   H13F13267   6.407   4.882   8.128 -0.1551  2.0873  1.7081
  124OSM   H13G13268   6.421   4.773   8.268 -1.5178 -3.1778 -0.0940
  124OSM   C14F13269   6.296   4.960   8.293  0.1626  0.9149 -0.3652
  124OSM   H14F13270   6.317   4.940   8.400 -0.3445  1.0995 -0.2306
  124OSM   H14G13271   6.185   4.958   8.288  0.1804 -0.7458 -0.7177
  124OSM   C15F13272   6.345   5.096   8.255  0.5863 -0.1730  0.1826
  124OSM   H15F13273   6.304   5.119   8.154 -0.5641 -0.1103  0.6595
  124OSM   H15G13274   6.454   5.089   8.234  0.2630  0.4593 -1.9578
  124OSM   C16F13275   6.302   5.216   8.347  0.4598  0.6500  0.4885
  124OSM   H16F13276   6.339   5.199   8.450 -2.1305 -1.8520  1.1294
  124OSM   H16G13277   6.194   5.225   8.369  0.2860  0.5689 -0.2922
  124OSM   C17F13278   6.355   5.347   8.281  0.1244  0.2400  0.2982
  124OSM   H17F13279   6.333   5.342   8.172  0.8524  2.6545 -0.0093
  124OSM   H17G13280   6.466   5.348   8.295  0.1337 -2.2842  0.9278
  124OSM   C18F13281   6.286   5.471   8.337 -0.0905 -0.6203 -0.5153
  124OSM   H18F13282   6.328   5.488   8.439 -0.5406  1.3393 -0.6125
  124OSM   H18G13283   6.175   5.466   8.346 -0.1064  0.7182  0.3495
  124OSM   H18H13284   6.313   5.561   8.278  1.1248  0.8890  2.1536
  125OSM      N13285   5.369   5.402   6.210  0.2111  0.2308 -0.3840
  125OSM    C1513286   5.412   5.467   6.086  0.2567  0.7062 -0.6404
  125OSM   H15A13287   5.431   5.573   6.097  0.2298  0.7705 -1.1784
  125OSM   H15B13288   5.359   5.439   5.996  0.3609  0.0249 -0.4893
  125OSM   H15C13289   5.510   5.423   6.079 -0.8635 -2.4459  1.5270
  125OSM    C1413290   5.232   5.436   6.246  0.2424  0.1055  0.1255
  125OSM   H14A13291   5.223   5.540   6.220  0.3937  0.3448  1.0282
  125OSM   H14B13292   5.206   5.421   6.349 -3.7034  1.4493 -0.5360
  125OSM   H14C13293   5.170   5.372   6.185  0.9190  0.8449 -1.3995
  125OSM    C1313294   5.371   5.252   6.181 -0.0785  0.5522 -0.5078
  125OSM   H13A13295   5.333   5.205   6.271  0.2402 -0.1081 -0.7105
  125OSM   H13B13296   5.473   5.223   6.160  0.2189  2.0732 -1.2620
  125OSM   H13C13297   5.312   5.220   6.096  1.7834 -0.8452 -1.3313
  125OSM    C1213298   5.455   5.438   6.329 -0.3327 -0.4326 -0.3632
  125OSM   H12A13299   5.442   5.371   6.413  3.5380  0.4443  1.1290
  125OSM   H12B13300   5.428   5.535   6.367  2.7535 -0.5023  2.4845
  125OSM    C1113301   5.611   5.415   6.318 -0.2910 -0.1454  0.3145
  125OSM   H11A13302   5.650   5.434   6.420  0.2627  0.3528  0.0115
  125OSM   H11B13303   5.650   5.500   6.258 -2.9666  1.5761  0.8373
  125OSM      P13304   5.676   5.167   6.371 -0.0238  0.5087  0.1775
  125OSM    O1313305   5.637   5.047   6.295  0.4899 -0.2155  0.4788
  125OSM    O1413306   5.815   5.160   6.417 -0.4793 -0.0763 -0.2032
  125OSM    O1113307   5.584   5.191   6.497 -0.3849 -1.0880 -0.2399
  125OSM    O1213308   5.659   5.287   6.276  0.4940 -0.1571  0.0860
  125OSM    C1S13309   5.495   5.084   6.535  1.3420 -0.1129  0.7715
  125OSM    H1S13310   5.550   4.987   6.538  0.8497 -0.3902  0.9739
  125OSM    H1T13311   5.419   5.089   6.454  3.1206 -0.5062 -1.0163
  125OSM     NF13312   5.352   4.996   6.711  0.0259 -0.5479  0.0826
  125OSM    HNF13313   5.255   5.013   6.727 -0.2375  2.4552 -3.3295
  125OSM    C2S13314   5.436   5.106   6.673 -0.0950 -0.1321 -0.1806
  125OSM    H2S13315   5.521   5.111   6.744  1.2904  0.8873 -1.8564
  125OSM    C3S13316   5.361   5.232   6.686  0.5666 -0.1977 -0.2406
  125OSM    H3S13317   5.263   5.216   6.637 -0.3607  1.7186  0.8524
  125OSM     O313318   5.420   5.347   6.632 -0.0194  0.8716  0.4081
  125OSM    HO313319   5.494   5.308   6.585  0.7223  2.7564 -0.0941
  125OSM    C4S13320   5.316   5.248   6.828 -0.2156  0.7031 -0.5354
  125OSM    H4S13321   5.222   5.195   6.853  0.3228  1.1211  2.7667
  125OSM    C5S13322   5.363   5.313   6.932  0.1946  0.2292  0.7282
  125OSM    H5S13323   5.449   5.381   6.931  1.7420 -1.5688 -1.9839
  125OSM    C6S13324   5.291   5.295   7.062  0.8945  0.6914 -0.4152
  125OSM    H6S13325   5.221   5.210   7.064  1.1873  0.4438 -0.6030
  125OSM    H6T13326   5.234   5.386   7.093 -0.8553 -0.0767 -1.2406
  125OSM    C7S13327   5.396   5.259   7.165  0.4778  0.3748  0.0588
  125OSM    H7S13328   5.461   5.349   7.166 -2.5864  3.0952 -4.6010
  125OSM    H7T13329   5.458   5.169   7.142  1.8026  1.3038 -0.1296
  125OSM    C8S13330   5.322   5.251   7.301 -0.1052  0.6273 -0.1972
  125OSM    H8S13331   5.226   5.195   7.304  0.5183 -0.4512 -0.0694
  125OSM    H8T13332   5.297   5.354   7.336  0.3071  1.0497 -1.0982
  125OSM    C9S13333   5.413   5.209   7.420 -0.1382 -0.3223  0.2299
  125OSM    H9S13334   5.510   5.260   7.403  0.7800 -1.0274  2.8904
  125OSM    H9T13335   5.429   5.099   7.410 -0.6831 -0.6741  2.5216
  125OSM   C10S13336   5.356   5.252   7.555  0.3582  0.3066 -0.1044
  125OSM   H10S13337   5.250   5.217   7.552  0.0527  1.2379 -1.0857
  125OSM   H10T13338   5.358   5.362   7.569 -0.0801  0.6569 -2.3890
  125OSM   C11S13339   5.436   5.198   7.674  0.1371 -0.1793 -0.5324
  125OSM   H11S13340   5.537   5.239   7.657 -0.1665  1.3154  1.1006
  125OSM   H11T13341   5.450   5.087   7.668  0.5747 -0.3361  2.2605
  125OSM   C12S13342   5.384   5.242   7.814  0.7767  0.1034 -0.8785
  125OSM   H12S13343   5.356   5.350   7.819  1.3039  0.2664 -1.3029
  125OSM   H12T13344   5.469   5.230   7.884  0.1761  1.2396  0.0886
  125OSM   C13S13345   5.254   5.163   7.862 -0.2289  0.5784 -0.1533
  125OSM   H13S13346   5.288   5.061   7.834  0.7103  0.7255  0.4035
  125OSM   H13T13347   5.176   5.199   7.791  1.3385  1.2246 -1.6143
  125OSM   C14S13348   5.217   5.184   8.011  0.4101  0.7071  0.3161
  125OSM   H14S13349   5.126   5.126   8.038 -0.0988  2.0625  1.6476
  125OSM   H14T13350   5.181   5.288   8.028  1.2755  1.0921 -0.1033
  125OSM   C15S13351   5.315   5.132   8.118  0.6607  0.1303  0.0353
  125OSM   H15S13352   5.401   5.202   8.117 -0.3919  1.4518 -0.4710
  125OSM   H15T13353   5.344   5.028   8.093  0.7825  0.0743  0.3996
  125OSM   C16S13354   5.240   5.140   8.259 -0.3205  0.7511  0.1116
  125OSM   H16S13355   5.314   5.090   8.325 -1.9903 -0.5131  1.0993
  125OSM   H16T13356   5.151   5.074   8.263 -0.9370  1.5531  0.0372
  125OSM   C17S13357   5.209   5.271   8.314  0.6469  0.1477  0.5479
  125OSM   H17S13358   5.113   5.303   8.267  0.6534  1.0437  1.1238
  125OSM   H17T13359   5.277   5.356   8.289 -1.5419  2.2253  1.2086
  125OSM   C18S13360   5.187   5.278   8.466 -0.8860  0.1642  0.3778
  125OSM   H18S13361   5.111   5.201   8.491 -1.5664  0.6741 -0.0975
  125OSM   H18T13362   5.135   5.375   8.480 -0.0542  0.8159 -0.8514
  125OSM   H18U13363   5.287   5.270   8.515 -1.3445 -0.6850  1.2096
  125OSM    C1F13364   5.401   4.877   6.740  0.1958  0.4848 -0.6137
  125OSM     OF13365   5.520   4.858   6.763  0.1473 -0.0813  0.0125
  125OSM    C2F13366   5.310   4.761   6.731 -0.2829  0.9514  0.7824
  125OSM    H2F13367   5.341   4.696   6.646 -1.9529 -0.2574  1.0509
  125OSM    H2G13368   5.209   4.801   6.707 -0.8922 -1.9697 -2.3342
  125OSM    C3F13369   5.299   4.676   6.859  0.5335 -0.8566  0.2232
  125OSM    H3F13370   5.393   4.616   6.858  0.7017 -0.6454 -1.9872
  125OSM    H3G13371   5.208   4.613   6.857 -1.3207  1.6874 -1.0130
  125OSM    C4F13372   5.285   4.759   6.989  0.8295  0.4994  0.7840
  125OSM    H4F13373   5.374   4.826   6.995  1.7583 -0.5767 -0.4976
  125OSM    H4G13374   5.289   4.694   7.078  0.9220  1.0177  1.1668
  125OSM    C5F13375   5.151   4.839   7.000 -0.1052  0.4231  0.8945
  125OSM    H5F13376   5.074   4.786   6.940 -0.4733  1.5209  0.3777
  125OSM    H5G13377   5.162   4.944   6.964  0.9432  0.0429  0.0289
  125OSM    C6F13378   5.084   4.846   7.138 -0.1170  0.0895 -1.0737
  125OSM    H6F13379   5.084   4.735   7.146  2.7374 -0.1578 -3.1078
  125OSM    H6G13380   4.984   4.894   7.129  0.4140  1.3406 -0.5994
  125OSM    C7F13381   5.168   4.912   7.239  0.1899  0.2546  0.0148
  125OSM    H7F13382   5.204   5.003   7.188 -0.9187  1.2044  0.8663
  125OSM    H7G13383   5.263   4.856   7.256  0.9770  1.2842 -0.8538
  125OSM    C8F13384   5.096   4.960   7.370  0.2347  0.7666  1.0115
  125OSM    H8F13385   5.172   5.018   7.426  1.0088  2.0130 -1.1905
  125OSM    H8G13386   5.082   4.868   7.431  2.4264 -0.2866  0.0061
  125OSM    C9F13387   4.972   5.041   7.350  0.1288  0.1406 -0.3930
  125OSM    H9F13388   4.978   5.093   7.253  2.5421  3.0005  1.1181
  125OSM   C10F13389   4.882   5.078   7.441 -0.4155  0.0960  0.0713
  125OSM   H10F13390   4.794   5.139   7.416  0.0993 -0.0956 -2.4279
  125OSM   C11F13391   4.897   5.049   7.593  0.1432 -0.2242 -0.0003
  125OSM   H11F13392   5.003   5.042   7.624  0.2784 -0.7545 -0.5696
  125OSM   H11G13393   4.862   4.948   7.623 -1.6496  0.4858  0.4341
  125OSM   C12F13394   4.814   5.145   7.678 -0.1804 -0.5751 -0.1236
  125OSM   H12F13395   4.708   5.112   7.672 -0.2775 -0.0231 -2.4283
  125OSM   H12G13396   4.814   5.249   7.637  1.1949 -0.3305  0.4522
  125OSM   C13F13397   4.869   5.143   7.826 -0.6623 -0.1486 -0.1625
  125OSM   H13F13398   4.967   5.195   7.823 -1.3593  1.1846 -2.7093
  125OSM   H13G13399   4.893   5.041   7.864  0.5721 -0.2202 -1.0790
  125OSM   C14F13400   4.771   5.199   7.929 -0.3141  0.6436 -0.4937
  125OSM   H14F13401   4.670   5.155   7.916  0.3590 -1.6798  1.4713
  125OSM   H14G13402   4.774   5.308   7.906  1.0238  0.8678  0.6039
  125OSM   C15F13403   4.818   5.196   8.074 -0.2912 -0.1303  0.3352
  125OSM   H15F13404   4.926   5.216   8.085 -0.7274  1.2708  2.6899
  125OSM   H15G13405   4.814   5.089   8.107  2.1687 -0.3948 -0.1001
  125OSM   C16F13406   4.745   5.297   8.164  0.1278  0.3150  0.1537
  125OSM   H16F13407   4.634   5.290   8.164  0.1287 -0.5515  2.4422
  125OSM   H16G13408   4.782   5.398   8.134 -0.3345  0.1081 -1.2064
  125OSM   C17F13409   4.772   5.270   8.311 -0.0988 -0.4533  0.2264
  125OSM   H17F13410   4.881   5.277   8.330 -0.2222  2.8289  0.3398
  125OSM   H17G13411   4.721   5.180   8.353 -2.4539  1.5126  1.8563
  125OSM   C18F13412   4.714   5.377   8.400 -0.0391  0.5136  0.1011
  125OSM   H18F13413   4.749   5.382   8.505 -0.4266 -0.4496  0.2819
  125OSM   H18G13414   4.603   5.384   8.404  0.0672  4.5774  0.2614
  125OSM   H18H13415   4.758   5.473   8.365  1.2384  0.7729  2.1983
  126OSM      N13416   2.134   5.709   5.936  0.0721  0.0823 -0.0576
  126OSM    C1513417   2.191   5.839   5.985 -1.0277 -0.5447  0.5609
  126OSM   H15A13418   2.290   5.867   5.952 -0.5686  2.0748  3.7460
  126OSM   H15B13419   2.187   5.852   6.092 -2.0174  3.8072  0.1730
  126OSM   H15C13420   2.130   5.922   5.954  0.8415  1.8929  2.9203
  126OSM    C1413421   1.983   5.704   5.958  0.0681 -0.2091 -0.3726
  126OSM   H14A13422   1.937   5.776   5.892  0.6130 -0.9901 -1.6484
  126OSM   H14B13423   1.952   5.722   6.060 -2.6316 -2.6635 -0.6441
  126OSM   H14C13424   1.946   5.605   5.937  2.2672 -1.1402 -0.1797
  126OSM    C1313425   2.160   5.692   5.782  0.6881 -0.0803 -0.3646
  126OSM   H13A13426   2.114   5.779   5.738  0.3401 -0.4780 -0.7952
  126OSM   H13B13427   2.118   5.601   5.742  1.9662  0.4700 -3.1754
  126OSM   H13C13428   2.265   5.701   5.759  0.0264  1.1334 -3.3127
  126OSM    C1213429   2.217   5.595   6.003  0.2142 -0.2053 -0.0847
  126OSM   H12A13430   2.319   5.628   5.987  0.3821  0.0014  1.2787
  126OSM   H12B13431   2.200   5.508   5.942 -1.3685  1.3685 -2.0662
  126OSM    C1113432   2.193   5.551   6.153  1.0250 -0.2562  0.4873
  126OSM   H11A13433   2.251   5.459   6.176  0.3107 -0.4522  1.5705
  126OSM   H11B13434   2.085   5.526   6.162  1.1825 -0.5776  1.6657
  126OSM      P13435   2.362   5.687   6.297  0.1301  0.3402 -0.2231
  126OSM    O1313436   2.446   5.755   6.197 -0.0225  0.2289  0.0720
  126OSM    O1413437   2.328   5.753   6.427  0.0648  0.5326 -0.1477
  126OSM    O1113438   2.430   5.544   6.316 -0.1713 -0.2820  0.1725
  126OSM    O1213439   2.224   5.651   6.238 -0.5999  0.0724  0.4674
  126OSM    C1S13440   2.523   5.520   6.418  0.6134 -0.3336 -0.2807
  126OSM    H1S13441   2.560   5.615   6.463 -0.2631 -1.5739  3.3926
  126OSM    H1T13442   2.609   5.460   6.381  0.4639  0.2959 -1.7104
  126OSM     NF13443   2.543   5.414   6.655 -0.4214  0.0890 -0.8502
  126OSM    HNF13444   2.575   5.322   6.678 -0.6788  0.1833 -0.0797
  126OSM    C2S13445   2.453   5.433   6.535 -0.0261  0.4607  0.1154
  126OSM    H2S13446   2.362   5.494   6.555 -2.3580 -1.7466 -2.8784
  126OSM    C3S13447   2.409   5.296   6.474  0.0299 -0.3487  0.0759
  126OSM    H3S13448   2.495   5.247   6.423  0.9254 -0.6345  1.7740
  126OSM     O313449   2.321   5.313   6.362 -0.8670 -0.2937 -0.1111
  126OSM    HO313450   2.333   5.401   6.327  1.3973 -0.4492  0.1254
  126OSM    C4S13451   2.348   5.211   6.580 -1.0698  0.2250  0.4962
  126OSM    H4S13452   2.283   5.280   6.636 -0.5817  0.9740  0.1513
  126OSM    C5S13453   2.373   5.086   6.619 -0.6633  0.2940 -0.2000
  126OSM    H5S13454   2.466   5.041   6.581 -1.1460  0.4005 -1.5773
  126OSM    C6S13455   2.312   5.012   6.739 -0.3246  0.3651 -0.4888
  126OSM    H6S13456   2.386   4.971   6.811 -0.3881 -1.3818 -1.3798
  126OSM    H6T13457   2.257   4.928   6.691 -1.1949  0.2644  0.6293
  126OSM    C7S13458   2.228   5.112   6.823  0.2615 -0.6233  1.3306
  126OSM    H7S13459   2.143   5.153   6.763  1.5584 -1.1091 -0.9253
  126OSM    H7T13460   2.293   5.194   6.861  0.5961 -0.1890 -0.1010
  126OSM    C8S13461   2.169   5.044   6.944  0.0328 -0.7411  0.0364
  126OSM    H8S13462   2.116   4.950   6.916 -0.3473  0.0011 -1.9184
  126OSM    H8T13463   2.099   5.122   6.979  1.7459  1.0642 -0.3652
  126OSM    C9S13464   2.271   5.017   7.055 -0.4220  0.3008 -0.4316
  126OSM    H9S13465   2.351   5.094   7.063  0.8606 -0.7511 -2.3739
  126OSM    H9T13466   2.323   4.922   7.030  2.0418  1.3232  0.4950
  126OSM   C10S13467   2.209   4.996   7.200  0.0298 -0.2045 -0.2803
  126OSM   H10S13468   2.135   4.914   7.188  1.0664 -1.4016  1.0705
  126OSM   H10T13469   2.154   5.090   7.220  1.5619  1.0103 -1.5453
  126OSM   C11S13470   2.304   4.965   7.317 -0.0783  0.0920 -0.2485
  126OSM   H11S13471   2.384   5.042   7.324  0.7847 -0.7021 -1.1274
  126OSM   H11T13472   2.359   4.870   7.300  2.9357  1.8631 -1.1386
  126OSM   C12S13473   2.257   4.968   7.459 -0.3530  0.3645 -0.2798
  126OSM   H12S13474   2.174   4.894   7.470  1.0204 -1.1098  0.6601
  126OSM   H12T13475   2.221   5.073   7.470  0.5747  0.6833 -0.2134
  126OSM   C13S13476   2.361   4.943   7.569  0.7397  0.9026  0.2881
  126OSM   H13S13477   2.449   5.010   7.559  0.5326  1.4765  2.0839
  126OSM   H13T13478   2.404   4.842   7.551  0.9124  1.2725 -1.6386
  126OSM   C14S13479   2.302   4.952   7.712 -0.2180 -0.0005  0.3434
  126OSM   H14S13480   2.217   4.882   7.721  0.8652 -1.4324 -0.1527
  126OSM   H14T13481   2.269   5.058   7.719  0.3677  0.1563  0.8626
  126OSM   C15S13482   2.395   4.909   7.824  0.5623 -0.9767 -0.3314
  126OSM   H15S13483   2.488   4.969   7.811  0.3745 -0.4112  0.8011
  126OSM   H15T13484   2.412   4.799   7.828  0.1109 -1.0364  0.0385
  126OSM   C16S13485   2.327   4.946   7.949 -0.1872  0.1900 -0.2139
  126OSM   H16S13486   2.237   4.882   7.965 -0.9770  1.6316  1.5920
  126OSM   H16T13487   2.297   5.053   7.947 -0.1751  0.2056  0.2936
  126OSM   C17S13488   2.416   4.917   8.065  0.3493 -0.4999  0.4400
  126OSM   H17S13489   2.505   4.982   8.071  1.3634 -1.8497  0.4630
  126OSM   H17T13490   2.453   4.813   8.055  1.5661 -0.2096  1.6082
  126OSM   C18S13491   2.345   4.929   8.199  0.6713 -0.2789  0.7710
  126OSM   H18S13492   2.255   4.864   8.207  1.2462 -1.0257  1.3307
  126OSM   H18T13493   2.334   5.037   8.223  0.6783  1.0983 -4.2374
  126OSM   H18U13494   2.420   4.894   8.274  0.0568 -0.5659  1.2598
  126OSM    C1F13495   2.596   5.516   6.720 -0.0431 -0.2044  0.0455
  126OSM     OF13496   2.543   5.625   6.696  0.1699 -0.2074 -0.2867
  126OSM    C2F13497   2.705   5.485   6.818 -0.4822 -0.8975  0.1552
  126OSM    H2F13498   2.794   5.442   6.766  0.0735 -1.1882  1.3223
  126OSM    H2G13499   2.676   5.396   6.878 -3.8481 -0.8101 -1.1488
  126OSM    C3F13500   2.755   5.606   6.904 -0.7025 -0.4875 -0.2986
  126OSM    H3F13501   2.674   5.646   6.968 -1.8306 -1.8961 -0.7898
  126OSM    H3G13502   2.776   5.685   6.829 -0.7392 -1.4978 -1.4130
  126OSM    C4F13503   2.867   5.586   7.001 -0.0709  0.1453 -0.0510
  126OSM    H4F13504   2.897   5.688   7.033 -1.6934  0.4169  0.7113
  126OSM    H4G13505   2.948   5.527   6.952  0.7124 -0.1301  1.5193
  126OSM    C5F13506   2.822   5.501   7.117 -0.5767 -0.1502  0.8442
  126OSM    H5F13507   2.818   5.394   7.090 -1.0333 -0.0851  0.6461
  126OSM    H5G13508   2.720   5.532   7.151 -1.2002 -0.7627 -0.4226
  126OSM    C6F13509   2.907   5.530   7.243 -0.7271 -0.7669  0.0791
  126OSM    H6F13510   2.943   5.635   7.247  1.0746 -1.3596  0.5140
  126OSM    H6G13511   3.007   5.481   7.249  0.1214  0.9845  1.1893
  126OSM    C7F13512   2.830   5.492   7.374 -0.1816  0.1396  0.7622
  126OSM    H7F13513   2.797   5.386   7.369  1.9035 -0.5801  1.1506
  126OSM    H7G13514   2.742   5.559   7.370 -0.8446 -0.7393  0.0327
  126OSM    C8F13515   2.917   5.515   7.497 -0.2993 -0.3807 -0.5022
  126OSM    H8F13516   2.849   5.492   7.582 -0.6923 -0.2365 -0.7769
  126OSM    H8G13517   2.965   5.613   7.518  1.6589 -1.6202  1.1660
  126OSM    C9F13518   3.032   5.424   7.524 -0.1306  0.0838 -0.1491
  126OSM    H9F13519   3.095   5.409   7.435  2.7952  2.4600  1.3426
  126OSM   C10F13520   3.078   5.359   7.636  0.2909 -0.2277 -0.2618
  126OSM   H10F13521   3.166   5.294   7.624  0.0452 -0.6069 -0.0134
  126OSM   C11F13522   3.012   5.364   7.771  0.6395  0.6608 -1.2364
  126OSM   H11F13523   2.977   5.269   7.818  1.3956  1.3498  0.8237
  126OSM   H11G13524   2.921   5.426   7.763  1.2649  1.7160 -0.4443
  126OSM   C12F13525   3.104   5.435   7.874  0.6213 -0.1160 -0.0948
  126OSM   H12F13526   3.035   5.455   7.959 -0.9490 -2.8343 -0.6192
  126OSM   H12G13527   3.137   5.539   7.853 -0.7568  1.4114  4.1371
  126OSM   C13F13528   3.213   5.352   7.929  0.3291  0.8541 -0.0433
  126OSM   H13F13529   3.287   5.318   7.853  0.9904 -1.0745  1.4098
  126OSM   H13G13530   3.162   5.265   7.975  0.5971  1.6632  1.8410
  126OSM   C14F13531   3.289   5.435   8.029  0.0262  0.0197 -0.3158
  126OSM   H14F13532   3.238   5.432   8.128  1.8612 -0.6084  0.6552
  126OSM   H14G13533   3.290   5.536   7.982  2.5411 -0.0408 -0.5213
  126OSM   C15F13534   3.430   5.397   8.051  0.0739  0.3593  0.1636
  126OSM   H15F13535   3.466   5.461   8.133 -1.5390 -1.5553  2.5158
  126OSM   H15G13536   3.490   5.419   7.960 -0.2193  1.1484  0.1522
  126OSM   C16F13537   3.434   5.250   8.100 -0.0365 -0.2078  0.0000
  126OSM   H16F13538   3.440   5.179   8.015 -1.2028  1.4397 -1.5446
  126OSM   H16G13539   3.336   5.229   8.149 -1.2942  2.6868 -1.0261
  126OSM   C17F13540   3.553   5.239   8.196 -0.5095  0.5901 -0.2294
  126OSM   H17F13541   3.556   5.309   8.282  1.3435 -0.1127  0.3228
  126OSM   H17G13542   3.644   5.265   8.138  2.3510 -0.7631  3.2902
  126OSM   C18F13543   3.570   5.090   8.239 -0.7246 -0.1854 -0.3961
  126OSM   H18F13544   3.564   5.040   8.140 -0.9384 -1.2733  0.1567
  126OSM   H18G13545   3.497   5.051   8.312  0.1049  0.0725  0.5926
  126OSM   H18H13546   3.673   5.083   8.281 -0.5926 -2.0214 -0.9497
  127OSM      N13547   1.061   3.714   5.922 -0.0389  0.1836 -0.5304
  127OSM    C1513548   1.002   3.586   5.872  0.0081  0.3023  0.1200
  127OSM   H15A13549   0.946   3.525   5.941 -0.9284  0.2078 -0.6995
  127OSM   H15B13550   1.086   3.524   5.843 -0.9985 -0.9361 -0.2248
  127OSM   H15C13551   0.944   3.606   5.783  1.5501 -0.0957 -1.0230
  127OSM    C1413552   1.166   3.756   5.822  0.9693  0.7052 -0.2039
  127OSM   H14A13553   1.245   3.683   5.824 -1.4825 -2.1749 -1.0462
  127OSM   H14B13554   1.210   3.847   5.860  1.9173 -0.4827  1.7076
  127OSM   H14C13555   1.133   3.759   5.720  0.9737  0.0871 -0.2223
  127OSM    C1313556   0.953   3.823   5.920  0.1916 -0.0622 -0.2266
  127OSM   H13A13557   0.875   3.781   5.983  2.4858  0.0878  2.9571
  127OSM   H13B13558   0.919   3.826   5.818  2.3044  0.9237 -0.9512
  127OSM   H13C13559   0.983   3.920   5.957  0.2760 -0.2976  0.3250
  127OSM    C1213560   1.117   3.710   6.061 -0.7516  0.2098 -0.9423
  127OSM   H12A13561   1.145   3.811   6.088  2.0779 -0.7184 -0.0424
  127OSM   H12B13562   1.208   3.652   6.063 -0.6215  0.4324  0.2176
  127OSM    C1113563   1.025   3.655   6.171 -0.2881 -0.9889 -0.3151
  127OSM   H11A13564   0.928   3.710   6.174  0.2931  0.0211  1.8455
  127OSM   H11B13565   1.073   3.682   6.267  0.3303  1.9504 -1.3361
  127OSM      P13566   1.111   3.410   6.168 -0.3523  0.0103  0.1585
  127OSM    O1313567   1.059   3.277   6.134 -0.0696 -1.2401  0.4342
  127OSM    O1413568   1.229   3.453   6.085 -0.6663  0.7675 -0.6327
  127OSM    O1113569   1.157   3.409   6.318  0.0139 -0.1692 -0.0688
  127OSM    O1213570   0.995   3.517   6.149 -0.1951 -0.0428  0.3988
  127OSM    C1S13571   1.070   3.402   6.434  0.0319  0.4354  0.9345
  127OSM    H1S13572   1.041   3.295   6.450 -0.1702  0.1789 -0.9090
  127OSM    H1T13573   0.986   3.474   6.433  0.4410  0.9101  0.3739
  127OSM     NF13574   1.050   3.433   6.669  0.0987 -0.4034 -0.0093
  127OSM    HNF13575   0.995   3.513   6.691  0.3156 -0.6883  1.8025
  127OSM    C2S13576   1.146   3.432   6.562  0.1857 -0.1727 -0.0779
  127OSM    H2S13577   1.234   3.367   6.582 -1.2986 -1.2943  3.5121
  127OSM    C3S13578   1.214   3.576   6.535  0.2358  0.1972  0.0891
  127OSM    H3S13579   1.143   3.644   6.483  0.4272  0.2076 -0.1638
  127OSM     O313580   1.321   3.561   6.447 -0.2882 -0.2728  0.1542
  127OSM    HO313581   1.289   3.492   6.389  1.0258 -0.7501 -0.0350
  127OSM    C4S13582   1.249   3.631   6.674  1.0492 -0.3168  0.4297
  127OSM    H4S13583   1.176   3.703   6.712  1.4656 -0.6186  1.8303
  127OSM    C5S13584   1.364   3.623   6.737 -0.3512 -0.0678  0.1241
  127OSM    H5S13585   1.448   3.587   6.676  0.1978 -0.6665  1.1999
  127OSM    C6S13586   1.402   3.687   6.873  0.6698  0.6901 -0.0142
  127OSM    H6S13587   1.369   3.632   6.964  2.1614  1.7374  1.2155
  127OSM    H6T13588   1.354   3.787   6.863 -0.1593  0.2372 -0.5915
  127OSM    C7S13589   1.551   3.705   6.892  0.0429 -0.9694  0.3959
  127OSM    H7S13590   1.596   3.760   6.806  0.6454 -2.8842 -0.5592
  127OSM    H7T13591   1.599   3.607   6.914  0.8632 -0.4536  0.9755
  127OSM    C8S13592   1.600   3.792   7.019  0.3064  0.7982  0.3888
  127OSM    H8S13593   1.557   3.893   6.999  0.9901  0.6585 -2.0027
  127OSM    H8T13594   1.710   3.800   7.023  0.3453  1.0546 -0.8335
  127OSM    C9S13595   1.543   3.741   7.157 -0.7146 -0.3648 -0.0722
  127OSM    H9S13596   1.580   3.639   7.180  0.3046  0.4077  2.0277
  127OSM    H9T13597   1.433   3.727   7.160 -0.8590  0.0599 -2.0180
  127OSM   C10S13598   1.597   3.831   7.276  0.5242  0.3071  0.3964
  127OSM   H10S13599   1.594   3.938   7.246  0.1602 -0.2534 -1.6835
  127OSM   H10T13600   1.704   3.805   7.294  0.3740  0.7325  2.1592
  127OSM   C11S13601   1.510   3.805   7.407  0.1160  0.6788 -0.4910
  127OSM   H11S13602   1.480   3.698   7.395 -0.4992  1.0010 -2.0797
  127OSM   H11T13603   1.420   3.870   7.413 -0.6065 -0.3776  0.8117
  127OSM   C12S13604   1.599   3.822   7.533 -0.2845 -0.9938  0.1424
  127OSM   H12S13605   1.619   3.931   7.542 -0.7248 -0.9824  1.2691
  127OSM   H12T13606   1.690   3.759   7.527  0.0207 -0.4591 -1.1608
  127OSM   C13S13607   1.520   3.793   7.664  0.1625  0.6494  0.1248
  127OSM   H13S13608   1.506   3.683   7.666 -0.1035  0.6833  0.1521
  127OSM   H13T13609   1.421   3.842   7.654 -0.3579 -0.5280 -0.8450
  127OSM   C14S13610   1.575   3.854   7.795 -0.0597 -0.5751  0.6902
  127OSM   H14S13611   1.566   3.965   7.796  2.0118 -0.3684 -0.1172
  127OSM   H14T13612   1.682   3.829   7.803  0.2845  1.1238  2.2178
  127OSM   C15S13613   1.512   3.793   7.925 -0.5114  0.2554  0.0588
  127OSM   H15S13614   1.529   3.683   7.927  1.0529  0.4850  1.8291
  127OSM   H15T13615   1.402   3.806   7.911 -0.2766  2.5379 -0.1161
  127OSM   C16S13616   1.550   3.854   8.059  0.4787  0.2493 -0.9223
  127OSM   H16S13617   1.489   3.812   8.143  0.8116 -0.4139 -1.0026
  127OSM   H16T13618   1.541   3.964   8.061 -0.5114  0.1639  0.4873
  127OSM   C17S13619   1.684   3.808   8.089  0.2794  0.5151  0.3864
  127OSM   H17S13620   1.753   3.820   8.003  0.8054  0.9260  0.8597
  127OSM   H17T13621   1.677   3.697   8.094 -3.5178  0.5345 -1.0476
  127OSM   C18S13622   1.736   3.860   8.223  0.5478  0.2550 -0.2943
  127OSM   H18S13623   1.675   3.830   8.310 -1.1252  1.9464 -0.8232
  127OSM   H18T13624   1.737   3.971   8.222 -0.9962  0.2929  0.2497
  127OSM   H18U13625   1.839   3.822   8.238  0.8476 -0.2298 -3.0533
  127OSM    C1F13626   1.002   3.322   6.729 -0.1598  0.6536 -0.1104
  127OSM     OF13627   1.052   3.212   6.707 -0.0750 -1.1199 -0.1697
  127OSM    C2F13628   0.892   3.332   6.827  0.6485 -0.7769 -0.3064
  127OSM    H2F13629   0.796   3.348   6.774 -0.2417 -0.8047  1.2181
  127OSM    H2G13630   0.923   3.417   6.893  2.0880 -3.2110  2.4142
  127OSM    C3F13631   0.880   3.218   6.931  0.5274  0.1056  0.3759
  127OSM    H3F13632   0.977   3.200   6.980  1.0725  1.0414 -0.3329
  127OSM    H3G13633   0.859   3.124   6.874  2.9038 -1.1305  1.4308
  127OSM    C4F13634   0.771   3.239   7.040 -0.9316 -0.0066  0.4102
  127OSM    H4F13635   0.673   3.246   6.987 -0.7176 -2.7569 -0.5094
  127OSM    H4G13636   0.778   3.334   7.098 -0.6839  1.2220 -1.5456
  127OSM    C5F13637   0.757   3.120   7.130 -0.2676  0.2105 -0.1815
  127OSM    H5F13638   0.841   3.118   7.204  1.2077  0.6712 -1.7888
  127OSM    H5G13639   0.758   3.026   7.071 -0.0628 -0.1578  0.3980
  127OSM    C6F13640   0.636   3.142   7.219 -0.5175  0.2420 -1.1901
  127OSM    H6F13641   0.543   3.131   7.159 -1.3053 -0.1708  0.0575
  127OSM    H6G13642   0.643   3.243   7.265 -1.1350  0.5243 -1.6977
  127OSM    C7F13643   0.607   3.033   7.330  0.1008  0.5655 -0.1464
  127OSM    H7F13644   0.690   3.035   7.404 -0.0741  0.7434  0.0402
  127OSM    H7G13645   0.609   2.931   7.284  2.3581  1.9472 -3.5021
  127OSM    C8F13646   0.471   3.046   7.403 -0.1470 -0.3434  0.7219
  127OSM    H8F13647   0.457   3.155   7.418 -1.0443 -0.1197 -1.3433
  127OSM    H8G13648   0.473   3.003   7.506 -2.8318  0.4608  1.1755
  127OSM    C9F13649   0.366   2.979   7.326  0.5437 -0.3543 -0.0962
  127OSM    H9F13650   0.350   3.028   7.229 -2.2898 -0.7748  0.0747
  127OSM   C10F13651   0.286   2.878   7.359 -0.2176 -0.1795  0.5113
  127OSM   H10F13652   0.203   2.851   7.293  0.5361 -0.4464 -0.3418
  127OSM   C11F13653   0.286   2.794   7.482 -0.1433 -0.0177 -0.2046
  127OSM   H11F13654   0.392   2.780   7.512 -0.7248 -0.8099  1.6676
  127OSM   H11G13655   0.243   2.694   7.463 -4.7731  2.1952 -3.0526
  127OSM   C12F13656   0.223   2.858   7.612 -0.2308  0.0904  0.4751
  127OSM   H12F13657   0.115   2.868   7.590  0.2632 -0.2953 -2.6499
  127OSM   H12G13658   0.273   2.953   7.640  0.9390 -1.1271  2.7962
  127OSM   C13F13659   0.233   2.774   7.741 -0.0838 -1.1194 -0.2610
  127OSM   H13F13660   0.340   2.750   7.762  0.2219  0.1797 -0.2492
  127OSM   H13G13661   0.175   2.680   7.732  1.3412 -2.1611  0.9131
  127OSM   C14F13662   0.182   2.843   7.869 -0.4559  0.6258 -0.3569
  127OSM   H14F13663   0.084   2.886   7.840  0.6971  2.6875 -1.3960
  127OSM   H14G13664   0.255   2.924   7.892  0.7883  0.5132 -3.4583
  127OSM   C15F13665   0.163   2.746   7.986 -0.4777  0.5635 -0.0712
  127OSM   H15F13666   0.257   2.688   7.994 -0.2805  1.0198  1.2225
  127OSM   H15G13667   0.090   2.668   7.955  0.9086 -0.9720  0.3891
  127OSM   C16F13668   0.120   2.813   8.123 -0.0929  0.2191  0.8068
  127OSM   H16F13669   0.018   2.844   8.090  1.1854  2.2841 -1.5784
  127OSM   H16G13670   0.178   2.907   8.136  1.0304 -0.1451 -1.0989
  127OSM   C17F13671   0.131   2.723   8.244 -0.5625 -0.7142  0.0382
  127OSM   H17F13672   0.238   2.706   8.270 -0.5126 -3.3021 -1.4963
  127OSM   H17G13673   0.103   2.620   8.214  1.1874 -0.8356 -1.3629
  127OSM   C18F13674   0.037   2.770   8.355 -0.2745 -0.5853  0.7808
  127OSM   H18F13675   0.083   2.856   8.407  1.3455  0.2951 -1.8967
  127OSM   H18G13676   0.020   2.691   8.431  1.5316 -1.9478 -0.1559
  127OSM   H18H13677  -0.062   2.809   8.325 -0.5373  0.3225  2.6695
  128OSM      N13678   6.701   6.317   6.378 -0.3430 -0.3483  0.5042
  128OSM    C1513679   6.645   6.204   6.293  0.2994  0.3971  0.6795
  128OSM   H15A13680   6.667   6.103   6.326 -0.3229  0.2255  0.5713
  128OSM   H15B13681   6.679   6.208   6.190 -0.0974 -3.9829  0.1782
  128OSM   H15C13682   6.538   6.201   6.287  0.3630 -0.1733 -0.6866
  128OSM    C1413683   6.620   6.325   6.504 -0.3145  0.2897 -0.3138
  128OSM   H14A13684   6.514   6.334   6.483  0.0072  1.4353 -1.5241
  128OSM   H14B13685   6.660   6.407   6.561  2.8535 -0.9069 -0.5962
  128OSM   H14C13686   6.618   6.236   6.566 -3.4984 -0.6857 -1.5918
  128OSM    C1313687   6.837   6.272   6.419  0.1811 -0.2265 -0.3036
  128OSM   H13A13688   6.858   6.333   6.505  1.7453  1.7455 -1.9947
  128OSM   H13B13689   6.909   6.272   6.339 -1.1101 -1.1155 -1.5410
  128OSM   H13C13690   6.830   6.169   6.451  0.0622 -0.4339 -0.9672
  128OSM    C1213691   6.706   6.452   6.303  0.0407 -0.0073 -0.9188
  128OSM   H12A13692   6.784   6.448   6.229 -2.2181 -0.1021 -3.4540
  128OSM   H12B13693   6.715   6.537   6.370  1.6104 -1.2446  0.5163
  128OSM    C1113694   6.580   6.474   6.216  0.5545  0.1379  0.1146
  128OSM   H11A13695   6.565   6.405   6.130  0.1348  1.4254 -0.8912
  128OSM   H11B13696   6.608   6.568   6.161  0.8160 -0.8402 -1.4988
  128OSM      P13697   6.333   6.408   6.288  0.4462  0.0598  0.6111
  128OSM    O1313698   6.217   6.477   6.230  0.0781 -0.0053 -0.0745
  128OSM    O1413699   6.364   6.271   6.240  0.5430  0.0317  0.0863
  128OSM    O1113700   6.308   6.396   6.442 -0.2086 -0.4581  0.1347
  128OSM    O1213701   6.457   6.503   6.283  0.3172 -0.3227 -0.3789
  128OSM    C1S13702   6.175   6.353   6.479  0.1597  0.3820 -0.0819
  128OSM    H1S13703   6.147   6.252   6.440  2.3990 -0.2905 -0.1245
  128OSM    H1T13704   6.098   6.417   6.431 -1.4114 -0.2496  1.4981
  128OSM     NF13705   6.035   6.296   6.678  0.1775 -0.3261 -0.4246
  128OSM    HNF13706   5.966   6.358   6.713 -0.1035 -0.2431 -1.1021
  128OSM    C2S13707   6.157   6.361   6.633 -1.4765  0.2576  0.1823
  128OSM    H2S13708   6.246   6.307   6.673 -2.5544 -2.5493 -0.9718
  128OSM    C3S13709   6.164   6.506   6.677  1.0580  0.5167  0.3660
  128OSM    H3S13710   6.074   6.549   6.629  1.8238 -1.0811 -2.7462
  128OSM     O313711   6.268   6.595   6.629 -0.5943  0.4119 -0.4198
  128OSM    HO313712   6.297   6.554   6.548 -0.5513 -1.6291  0.5647
  128OSM    C4S13713   6.147   6.514   6.826  0.5431  0.4125 -0.3094
  128OSM    H4S13714   6.051   6.554   6.862  0.2757 -0.6860  0.2354
  128OSM    C5S13715   6.243   6.502   6.922  0.7723  0.1959  0.4674
  128OSM    H5S13716   6.349   6.495   6.892  0.6360  3.1471 -1.1074
  128OSM    C6S13717   6.196   6.502   7.070 -0.1538 -0.9486 -0.4475
  128OSM    H6S13718   6.277   6.466   7.138 -1.6201 -2.9435  0.3482
  128OSM    H6T13719   6.119   6.424   7.087  1.1428 -2.1378  0.2345
  128OSM    C7S13720   6.160   6.642   7.115  0.3546 -0.1502 -0.0424
  128OSM    H7S13721   6.050   6.653   7.099  0.1793 -0.9940  0.5051
  128OSM    H7T13722   6.220   6.715   7.058  0.6851 -1.0250 -0.8335
  128OSM    C8S13723   6.182   6.680   7.261 -0.2288  0.0873 -0.1546
  128OSM    H8S13724   6.184   6.791   7.255  1.4481  0.0092 -2.0608
  128OSM    H8T13725   6.281   6.645   7.296 -0.3554  0.8697  1.0441
  128OSM    C9S13726   6.072   6.621   7.359 -0.1230 -0.0868  0.0182
  128OSM    H9S13727   6.053   6.517   7.325 -1.1552 -0.0452  0.4090
  128OSM    H9T13728   5.976   6.678   7.356  0.6945  1.3233 -0.7714
  128OSM   C10S13729   6.116   6.629   7.501  0.6023  0.6857 -0.2970
  128OSM   H10S13730   6.120   6.737   7.526 -2.2337  0.4227  1.7704
  128OSM   H10T13731   6.215   6.577   7.503  0.3807  0.2647  1.7820
  128OSM   C11S13732   6.017   6.562   7.603 -0.3807  0.2289 -0.3009
  128OSM   H11S13733   5.980   6.482   7.534  0.7049 -0.3101 -0.2850
  128OSM   H11T13734   5.933   6.630   7.629  0.8143  2.2504 -1.4973
  128OSM   C12S13735   6.071   6.506   7.737 -0.2429  0.7223  0.3373
  128OSM   H12S13736   6.170   6.457   7.730 -0.2487  0.7880 -0.2283
  128OSM   H12T13737   6.003   6.440   7.795  0.3723  0.3752  0.6818
  128OSM   C13S13738   6.111   6.625   7.833  0.1631 -0.1391 -0.0589
  128OSM   H13S13739   6.021   6.682   7.864  0.5793 -0.2224  1.3572
  128OSM   H13T13740   6.172   6.700   7.779 -1.6484  2.4180  1.2246
  128OSM   C14S13741   6.178   6.594   7.967 -0.0613  0.2837  0.7909
  128OSM   H14S13742   6.287   6.589   7.951 -0.0792 -4.3155  0.7793
  128OSM   H14T13743   6.140   6.496   8.004 -0.5613  1.8353  4.8357
  128OSM   C15S13744   6.150   6.694   8.080  0.0396  0.2015 -0.3718
  128OSM   H15S13745   6.156   6.799   8.044  0.2054 -0.0266 -1.0027
  128OSM   H15T13746   6.235   6.684   8.151  0.9629 -0.4642 -1.5440
  128OSM   C16S13747   6.025   6.677   8.158 -0.0713 -0.0278  0.1602
  128OSM   H16S13748   6.002   6.570   8.176  1.2166 -0.1187  1.3811
  128OSM   H16T13749   5.945   6.728   8.100 -0.6150 -0.0691  0.8590
  128OSM   C17S13750   6.040   6.740   8.300  0.0821  0.1028 -0.1823
  128OSM   H17S13751   6.066   6.846   8.282  2.4141 -0.0777  1.6078
  128OSM   H17T13752   6.128   6.684   8.340 -1.3387 -2.2576 -0.1651
  128OSM   C18S13753   5.924   6.735   8.391 -0.1107 -0.4989  0.0172
  128OSM   H18S13754   5.832   6.750   8.329  1.2436  1.9554 -1.5907
  128OSM   H18T13755   5.926   6.809   8.474 -2.8716 -0.0987 -0.1836
  128OSM   H18U13756   5.918   6.635   8.439  1.6695 -1.5030 -1.7057
  128OSM    C1F13757   6.012   6.162   6.673 -0.2174 -0.0802 -0.4650
  128OSM     OF13758   6.110   6.090   6.667  0.3111  0.1182 -0.2211
  128OSM    C2F13759   5.874   6.102   6.683 -0.3991  0.0993  0.3339
  128OSM    H2F13760   5.881   5.994   6.705 -0.1748  0.3568  1.5614
  128OSM    H2G13761   5.836   6.110   6.578  0.6043 -2.9020 -0.3483
  128OSM    C3F13762   5.781   6.172   6.780  0.2878  0.5524  0.3219
  128OSM    H3F13763   5.691   6.106   6.778 -0.7136  1.8417 -2.4065
  128OSM    H3G13764   5.742   6.265   6.732 -1.7013  0.0289  0.8050
  128OSM    C4F13765   5.829   6.206   6.916 -0.1798  0.2254 -0.4905
  128OSM    H4F13766   5.750   6.267   6.964  0.8032  3.1987 -2.4078
  128OSM    H4G13767   5.915   6.276   6.908 -1.0648  1.2646 -1.3060
  128OSM    C5F13768   5.868   6.079   6.999 -0.6639 -0.2798 -0.4775
  128OSM    H5F13769   5.957   6.028   6.956 -0.0008 -0.6179  1.1982
  128OSM    H5G13770   5.786   6.004   6.998 -0.9729 -0.1145  2.5545
  128OSM    C6F13771   5.893   6.107   7.150  0.5208 -0.5497  0.0472
  128OSM    H6F13772   5.987   6.164   7.166 -0.2324  0.4994  0.8301
  128OSM    H6G13773   5.899   6.003   7.188 -0.7386 -0.6695 -0.0440
  128OSM    C7F13774   5.778   6.185   7.216  0.2425 -0.1534 -0.8113
  128OSM    H7F13775   5.674   6.155   7.190 -0.0519 -0.2051  0.3903
  128OSM    H7G13776   5.778   6.290   7.179 -0.9542  0.5329  0.9812
  128OSM    C8F13777   5.797   6.182   7.370 -0.9593  0.1094  0.2184
  128OSM    H8F13778   5.704   6.231   7.407 -0.7832 -0.2445  1.1468
  128OSM    H8G13779   5.873   6.253   7.408 -1.3217  0.5654  0.1034
  128OSM    C9F13780   5.804   6.043   7.426 -0.1967  0.3328  0.2066
  128OSM    H9F13781   5.785   5.958   7.359  1.2594  1.1045 -1.2668
  128OSM   C10F13782   5.835   6.019   7.555  0.1734  0.1890 -0.4519
  128OSM   H10F13783   5.841   5.916   7.593  4.1360 -0.1733 -1.5423
  128OSM   C11F13784   5.871   6.118   7.665 -0.4200 -0.5030 -0.4153
  128OSM   H11F13785   5.847   6.221   7.630 -0.3314 -1.0189 -2.1169
  128OSM   H11G13786   5.978   6.104   7.694 -0.2540 -2.0443 -1.6675
  128OSM   C12F13787   5.798   6.091   7.793  0.3041  0.3318 -0.3173
  128OSM   H12F13788   5.693   6.114   7.764  0.8177 -0.8506 -3.4342
  128OSM   H12G13789   5.828   6.165   7.870  0.1472 -0.4479  0.5224
  128OSM   C13F13790   5.817   5.950   7.855 -0.4636 -0.2992  0.4321
  128OSM   H13F13791   5.925   5.927   7.858 -0.1886  0.9950  0.7623
  128OSM   H13G13792   5.781   5.874   7.782 -0.8542  0.4041 -0.1234
  128OSM   C14F13793   5.744   5.921   7.982  0.0903 -0.0453 -0.2545
  128OSM   H14F13794   5.769   5.815   8.006  0.5215 -0.0384 -0.6522
  128OSM   H14G13795   5.633   5.926   7.974 -0.1087  0.4822  2.2681
  128OSM   C15F13796   5.799   6.004   8.100  0.0312 -0.5087 -0.2373
  128OSM   H15F13797   5.751   6.105   8.096 -1.4746 -0.9914  2.6613
  128OSM   H15G13798   5.907   6.026   8.088 -0.4750  1.1032 -2.4684
  128OSM   C16F13799   5.760   5.965   8.242  0.3798  0.2559 -0.3008
  128OSM   H16F13800   5.767   5.855   8.257 -1.4723  0.4920  3.3164
  128OSM   H16G13801   5.651   5.978   8.263 -0.0227  1.3597 -2.7174
  128OSM   C17F13802   5.846   6.035   8.347 -0.3493  0.3717 -0.1868
  128OSM   H17F13803   5.817   6.142   8.339 -0.2301  0.5950  1.7275
  128OSM   H17G13804   5.956   6.031   8.329  0.0069  4.0297  0.3556
  128OSM   C18F13805   5.839   5.983   8.495  0.4084 -0.2310 -0.2598
  128OSM   H18F13806   5.908   6.034   8.564  0.4694 -0.3398 -0.2395
  128OSM   H18G13807   5.854   5.873   8.495 -1.0610 -0.4579  0.6710
  128OSM   H18H13808   5.737   6.002   8.534 -0.8354 -1.1498 -2.7816
  129OSM      N13809   5.709   3.405   5.840  0.3529 -0.6710 -0.5791
  129OSM    C1513810   5.578   3.338   5.794 -0.1070  0.5017  0.5635
  129OSM   H15A13811   5.574   3.354   5.688  2.3711  0.3257  0.3772
  129OSM   H15B13812   5.494   3.370   5.854  1.4213  2.1946  1.9275
  129OSM   H15C13813   5.596   3.231   5.798  1.3997  0.7601  1.3975
  129OSM    C1413814   5.830   3.348   5.779 -0.1052 -0.2739  0.2024
  129OSM   H14A13815   5.830   3.356   5.671 -0.5722  1.5178  0.3106
  129OSM   H14B13816   5.838   3.243   5.804 -1.5149 -0.3377  0.4567
  129OSM   H14C13817   5.921   3.392   5.818 -0.3046 -0.7422  1.2099
  129OSM    C1313818   5.693   3.549   5.801  0.0544 -0.5245  0.2407
  129OSM   H13A13819   5.679   3.551   5.694  1.6080  0.6281  0.0131
  129OSM   H13B13820   5.783   3.604   5.824 -0.5080  1.4557 -1.9067
  129OSM   H13C13821   5.606   3.601   5.839  1.0129  0.1455  1.6311
  129OSM    C1213822   5.705   3.398   5.994  0.1271  0.0734  0.6255
  129OSM   H12A13823   5.682   3.296   6.018  0.8188  0.0416  1.1776
  129OSM   H12B13824   5.617   3.450   6.030 -0.0441 -0.5828  1.1686
  129OSM    C1113825   5.819   3.461   6.071 -0.6976 -0.0859 -0.0903
  129OSM   H11A13826   5.914   3.412   6.042 -0.4947  1.2743 -1.9499
  129OSM   H11B13827   5.797   3.427   6.174 -0.9725 -0.0120 -0.1229
  129OSM      P13828   5.735   3.684   6.142  0.4267 -0.0951 -0.3812
  129OSM    O1313829   5.772   3.828   6.129  0.0897  0.4907 -0.2154
  129OSM    O1413830   5.592   3.658   6.107  0.1103 -0.2051 -0.3827
  129OSM    O1113831   5.778   3.638   6.294 -0.1531 -0.2510  0.2287
  129OSM    O1213832   5.831   3.598   6.059  0.7726 -1.1851 -0.6575
  129OSM    C1S13833   5.708   3.675   6.412 -0.2069  0.5235  0.0513
  129OSM    H1S13834   5.609   3.623   6.414  0.6948 -1.2784  1.4123
  129OSM    H1T13835   5.694   3.785   6.413  2.4262  0.9223 -0.5506
  129OSM     NF13836   5.704   3.694   6.661  0.9528 -0.4233  0.5465
  129OSM    HNF13837   5.735   3.772   6.715 -2.5368  1.8235 -0.3748
  129OSM    C2S13838   5.779   3.642   6.545 -0.6379  0.0376  0.3974
  129OSM    H2S13839   5.780   3.533   6.564 -1.8637 -0.3744 -1.6317
  129OSM    C3S13840   5.926   3.694   6.547  0.0413  0.0774 -0.2108
  129OSM    H3S13841   5.925   3.805   6.539  2.8266  0.2779  1.0637
  129OSM     O313842   6.007   3.655   6.434 -0.4576  0.0855 -0.4426
  129OSM    HO313843   5.943   3.633   6.366 -1.0155 -0.2529  0.1896
  129OSM    C4S13844   5.990   3.664   6.677  0.5467 -0.8242 -0.2006
  129OSM    H4S13845   5.962   3.571   6.729  2.7518 -1.6414 -0.3466
  129OSM    C5S13846   6.054   3.762   6.750 -0.0786 -0.2662 -0.1441
  129OSM    H5S13847   6.064   3.866   6.717  0.1542 -0.0373  0.6087
  129OSM    C6S13848   6.110   3.754   6.893  0.2945 -0.3294  0.7846
  129OSM    H6S13849   6.122   3.856   6.933  0.9208  1.2334 -2.9342
  129OSM    H6T13850   6.216   3.720   6.888 -0.2197 -1.8615 -0.9731
  129OSM    C7S13851   6.043   3.654   7.003  0.0326  0.1653  0.7829
  129OSM    H7S13852   6.118   3.640   7.083  2.6279  0.3099 -1.4817
  129OSM    H7T13853   6.043   3.562   6.940 -1.6178  0.2077  0.6696
  129OSM    C8S13854   5.903   3.688   7.050  0.0906 -0.2188 -0.3831
  129OSM    H8S13855   5.832   3.682   6.965 -0.8288 -1.6592  0.4336
  129OSM    H8T13856   5.908   3.786   7.102 -0.4719 -1.0700  1.3777
  129OSM    C9S13857   5.852   3.580   7.151  0.4069  0.2696 -0.2770
  129OSM    H9S13858   5.770   3.612   7.218  0.7544 -0.8691  0.7160
  129OSM    H9T13859   5.934   3.572   7.226  0.8589 -1.3214 -0.9112
  129OSM   C10S13860   5.815   3.442   7.091  0.1854 -0.3361 -0.1618
  129OSM   H10S13861   5.795   3.385   7.185 -1.5269  0.0757 -0.2436
  129OSM   H10T13862   5.906   3.413   7.034  0.0542 -1.1459  0.0300
  129OSM   C11S13863   5.697   3.440   7.003  0.1127 -0.6281 -0.1347
  129OSM   H11S13864   5.712   3.513   6.920  0.0549 -1.7615 -1.1657
  129OSM   H11T13865   5.612   3.486   7.058  1.4670  0.2305  1.2982
  129OSM   C12S13866   5.672   3.296   6.943  0.5417 -0.6676  0.3004
  129OSM   H12S13867   5.770   3.264   6.903  0.9074  1.0252 -0.2300
  129OSM   H12T13868   5.600   3.311   6.860 -2.3251  0.4895  2.7820
  129OSM   C13S13869   5.601   3.194   7.039 -0.2906 -0.3985 -0.4287
  129OSM   H13S13870   5.654   3.201   7.136  0.4434 -2.5559 -0.6241
  129OSM   H13T13871   5.619   3.102   6.979  0.0493  0.9795 -2.5734
  129OSM   C14S13872   5.447   3.213   7.055 -0.1069 -0.1582  0.2295
  129OSM   H14S13873   5.426   3.315   7.094 -1.7189 -1.3093  2.6198
  129OSM   H14T13874   5.410   3.143   7.133  0.1512 -0.8136 -0.2309
  129OSM   C15S13875   5.354   3.198   6.933  0.2500 -0.0580  0.3698
  129OSM   H15S13876   5.375   3.095   6.897  0.2715  0.0833 -0.0261
  129OSM   H15T13877   5.386   3.266   6.851 -0.9283 -0.3658 -0.3777
  129OSM   C16S13878   5.201   3.216   6.970  0.0265  0.3219  0.4074
  129OSM   H16S13879   5.189   3.309   7.028 -2.1524  0.3447  0.0258
  129OSM   H16T13880   5.168   3.144   7.049 -3.1565 -0.0849 -1.1454
  129OSM   C17S13881   5.109   3.203   6.852  0.2797 -0.2393  0.6156
  129OSM   H17S13882   5.010   3.186   6.899 -0.7091  1.1432 -0.8803
  129OSM   H17T13883   5.125   3.120   6.779  0.1833  0.6936 -0.4879
  129OSM   C18S13884   5.093   3.337   6.783 -0.2064 -0.6586 -0.1251
  129OSM   H18S13885   5.018   3.356   6.703  0.9439  1.7930 -0.6953
  129OSM   H18T13886   5.194   3.358   6.739  1.7355 -1.7952  3.4067
  129OSM   H18U13887   5.076   3.410   6.864 -2.3842 -2.1813  0.9011
  129OSM    C1F13888   5.587   3.638   6.691  0.4925 -0.3317 -0.0664
  129OSM     OF13889   5.540   3.541   6.633  0.0423 -0.3945  0.5468
  129OSM    C2F13890   5.519   3.691   6.815  0.1381 -1.1052 -0.1501
  129OSM    H2F13891   5.480   3.795   6.809 -1.2394 -0.9660  5.3234
  129OSM    H2G13892   5.599   3.695   6.892  1.3516  0.8864 -1.4338
  129OSM    C3F13893   5.388   3.617   6.854 -1.3984  0.5540  0.4308
  129OSM    H3F13894   5.420   3.512   6.867  1.1842  0.9372 -2.0201
  129OSM    H3G13895   5.310   3.607   6.775 -2.2503 -0.1125  1.3239
  129OSM    C4F13896   5.322   3.666   6.980 -0.3487  0.1529  0.2939
  129OSM    H4F13897   5.231   3.604   6.991  0.7959 -1.5860  0.3439
  129OSM    H4G13898   5.287   3.771   6.977 -2.1000 -0.3889  0.7415
  129OSM    C5F13899   5.405   3.640   7.101 -0.6176 -0.0913 -0.1717
  129OSM    H5F13900   5.503   3.689   7.090  0.7675 -2.8749 -1.1703
  129OSM    H5G13901   5.416   3.530   7.110 -0.9594 -0.0082  1.5783
  129OSM    C6F13902   5.344   3.702   7.230 -0.5659  0.0117 -0.8225
  129OSM    H6F13903   5.238   3.669   7.239 -0.7539  0.8887  0.6560
  129OSM    H6G13904   5.354   3.812   7.229 -1.1677  0.0726 -2.1803
  129OSM    C7F13905   5.413   3.639   7.353 -0.3498  0.2856 -0.3453
  129OSM    H7F13906   5.521   3.657   7.333 -0.8742  3.1321 -1.0121
  129OSM    H7G13907   5.408   3.530   7.333 -0.0476  0.5017 -1.7031
  129OSM    C8F13908   5.360   3.678   7.495  0.0678 -0.4419  0.3058
  129OSM    H8F13909   5.390   3.779   7.530  1.1032 -0.6054 -0.0768
  129OSM    H8G13910   5.405   3.601   7.561 -0.2396 -1.2223 -0.3690
  129OSM    C9F13911   5.207   3.670   7.499  0.1068  0.2635  0.6855
  129OSM    H9F13912   5.158   3.714   7.411  0.8277 -0.2993 -0.0150
  129OSM   C10F13913   5.133   3.609   7.599 -0.0666  0.0295 -0.2355
  129OSM   H10F13914   5.024   3.620   7.606 -0.1830 -0.6131 -0.9435
  129OSM   C11F13915   5.189   3.538   7.722  0.2618 -0.7548 -0.5805
  129OSM   H11F13916   5.299   3.530   7.716  0.1976 -2.1905 -0.2841
  129OSM   H11G13917   5.150   3.434   7.721 -1.3666 -0.1727 -0.6465
  129OSM   C12F13918   5.158   3.586   7.865 -0.3045  0.9866 -0.2399
  129OSM   H12F13919   5.050   3.563   7.879  0.1369 -0.8245  0.4582
  129OSM   H12G13920   5.178   3.695   7.873 -0.5714  1.0562 -0.5236
  129OSM   C13F13921   5.245   3.512   7.964  0.6940  0.3099 -0.0027
  129OSM   H13F13922   5.249   3.404   7.939 -0.9583 -0.1386  1.4911
  129OSM   H13G13923   5.214   3.532   8.069  0.2033 -0.4933  0.0165
  129OSM   C14F13924   5.394   3.552   7.964  0.5290 -0.2394  0.0418
  129OSM   H14F13925   5.397   3.658   7.998 -0.6712 -0.4476  0.8671
  129OSM   H14G13926   5.433   3.533   7.862  1.9090 -2.5434  0.9214
  129OSM   C15F13927   5.479   3.475   8.061 -0.3201  0.5528 -0.3683
  129OSM   H15F13928   5.461   3.366   8.051 -0.6525  0.6410 -0.7181
  129OSM   H15G13929   5.432   3.507   8.157 -2.5203 -2.3441 -0.3666
  129OSM   C16F13930   5.628   3.510   8.057 -0.2416  0.5349 -0.4116
  129OSM   H16F13931   5.649   3.618   8.073 -1.0062  0.7684 -0.9219
  129OSM   H16G13932   5.675   3.479   7.962  0.7846  1.1676 -0.1227
  129OSM   C17F13933   5.701   3.448   8.177  0.9068 -0.2236 -0.0930
  129OSM   H17F13934   5.807   3.451   8.145  0.2805  0.6974 -2.3224
  129OSM   H17G13935   5.664   3.343   8.184 -0.0869  0.1068 -0.3004
  129OSM   C18F13936   5.697   3.527   8.309  0.4625 -0.9739  0.3463
  129OSM   H18F13937   5.590   3.537   8.336  0.4054 -0.0039 -0.1993
  129OSM   H18G13938   5.733   3.632   8.300 -1.1967 -0.4811 -1.0840
  129OSM   H18H13939   5.758   3.475   8.386 -0.0167  0.1400  1.5169
  130OSM      N13940   6.245   5.337   5.805 -0.1095 -0.2752 -0.4978
  130OSM    C1513941   6.376   5.288   5.751 -0.3729 -0.5471  0.5417
  130OSM   H15A13942   6.467   5.322   5.799  0.5365 -1.8782 -0.1801
  130OSM   H15B13943   6.385   5.308   5.646 -2.9818  0.5373  0.4440
  130OSM   H15C13944   6.391   5.181   5.751  2.1390 -0.2739  1.6912
  130OSM    C1413945   6.121   5.292   5.724  0.3594  0.4861 -0.2329
  130OSM   H14A13946   6.109   5.186   5.744  0.6975  0.7450  1.4737
  130OSM   H14B13947   6.133   5.292   5.616 -3.2100 -0.3186 -0.7638
  130OSM   H14C13948   6.031   5.344   5.752 -0.3735  0.0203 -1.6131
  130OSM    C1313949   6.229   5.296   5.955  0.5068  0.5688 -0.2849
  130OSM   H13A13950   6.232   5.190   5.974  1.5484  0.6304 -0.0301
  130OSM   H13B13951   6.135   5.333   5.993  1.4771  0.8270  2.0823
  130OSM   H13C13952   6.308   5.340   6.014  2.4137 -1.2713 -1.3215
  130OSM    C1213953   6.245   5.491   5.793  0.1564 -0.4562  0.2506
  130OSM   H12A13954   6.162   5.534   5.846  0.2355 -0.7977  0.6587
  130OSM   H12B13955   6.218   5.506   5.690 -1.1465  0.1431  0.6626
  130OSM    C1113956   6.367   5.571   5.843  0.1387  0.5636  0.6037
  130OSM   H11A13957   6.331   5.675   5.824 -2.5463 -0.5994 -1.1354
  130OSM   H11B13958   6.454   5.557   5.774 -0.4374 -1.1442  0.1867
  130OSM      P13959   6.400   5.661   6.089 -0.3452 -0.2431  0.2739
  130OSM    O1313960   6.537   5.681   6.143 -0.0893  0.4277 -0.0772
  130OSM    O1413961   6.322   5.773   6.038 -0.1223 -0.1534 -0.6007
  130OSM    O1113962   6.305   5.585   6.189 -0.6427  0.3397 -0.7450
  130OSM    O1213963   6.405   5.542   5.980  0.2753 -0.5157  0.2404
  130OSM    C1S13964   6.349   5.470   6.266 -0.1317 -0.2102 -0.6337
  130OSM    H1S13965   6.444   5.423   6.231 -0.1417 -1.4569  0.9159
  130OSM    H1T13966   6.272   5.390   6.260  0.2910 -0.7146  0.4298
  130OSM     NF13967   6.415   5.406   6.496  0.7881 -0.3309 -0.0746
  130OSM    HNF13968   6.345   5.349   6.538  1.6192 -0.1849  1.6070
  130OSM    C2S13969   6.366   5.515   6.419 -0.5349 -1.4492  0.7785
  130OSM    H2S13970   6.428   5.607   6.412 -3.2799  0.4030 -3.2875
  130OSM    C3S13971   6.229   5.574   6.476  0.9321 -0.0136  0.4203
  130OSM    H3S13972   6.151   5.496   6.468  0.3090  0.4335  1.7871
  130OSM     O313973   6.167   5.684   6.402  0.1806  0.2772 -0.3910
  130OSM    HO313974   6.208   5.678   6.316  0.8378  0.8968 -0.1291
  130OSM    C4S13975   6.240   5.606   6.620  0.0563 -0.2222 -1.0210
  130OSM    H4S13976   6.227   5.521   6.688  1.0286  0.1185 -0.3930
  130OSM    C5S13977   6.245   5.734   6.662  0.5412  0.0639  0.8354
  130OSM    H5S13978   6.234   5.821   6.595  0.1861  0.6623  1.6482
  130OSM    C6S13979   6.250   5.784   6.801  0.3628  0.7063 -0.0586
  130OSM    H6S13980   6.183   5.872   6.810  1.1996  1.2254  1.7534
  130OSM    H6T13981   6.355   5.809   6.826  0.4767  0.4153 -0.2345
  130OSM    C7S13982   6.201   5.686   6.906  0.1725  0.0192  0.1244
  130OSM    H7S13983   6.257   5.590   6.898  2.9324  1.5171  0.3424
  130OSM    H7T13984   6.093   5.668   6.885 -0.5293  2.0526  1.6347
  130OSM    C8S13985   6.195   5.745   7.048  0.1485 -0.1227  0.2114
  130OSM    H8S13986   6.101   5.802   7.061  0.5123  0.4188  0.5272
  130OSM    H8T13987   6.284   5.807   7.073  0.1931 -0.2577  0.3929
  130OSM    C9S13988   6.189   5.635   7.162 -0.0044 -0.0635  0.0549
  130OSM    H9S13989   6.288   5.585   7.167 -0.7130 -1.4212  2.9766
  130OSM    H9T13990   6.112   5.568   7.116  1.2057 -0.4955 -1.4423
  130OSM   C10S13991   6.165   5.696   7.300  0.1634  0.3811  0.7288
  130OSM   H10S13992   6.075   5.762   7.297  0.1186  0.4517  2.5476
  130OSM   H10T13993   6.254   5.758   7.323  1.1811 -0.7021 -0.1434
  130OSM   C11S13994   6.143   5.587   7.411  0.2820  0.7019  0.5780
  130OSM   H11S13995   6.239   5.533   7.420  0.2053  0.8823  3.1866
  130OSM   H11T13996   6.066   5.516   7.373 -0.4527  0.9596  1.5357
  130OSM   C12S13997   6.088   5.645   7.537 -0.3504  0.1331  0.5013
  130OSM   H12S13998   5.981   5.674   7.542 -0.2952  0.2704  0.9976
  130OSM   H12T13999   6.141   5.740   7.558 -0.3100  0.0111  0.9784
  130OSM   C13S14000   6.112   5.558   7.661  0.1689 -0.1996 -0.0688
  130OSM   H13S14001   6.220   5.577   7.673  0.4805 -0.2794 -2.2740
  130OSM   H13T14002   6.099   5.449   7.644 -3.1740 -0.2548  1.8728
  130OSM   C14S14003   6.038   5.612   7.783 -0.6562  0.5824  0.2997
  130OSM   H14S14004   5.929   5.602   7.761 -1.1414  2.2135  1.7932
  130OSM   H14T14005   6.068   5.719   7.790  3.4519 -0.2316 -1.6826
  130OSM   C15S14006   6.072   5.548   7.913  0.8266  0.5358  0.1559
  130OSM   H15S14007   6.092   5.439   7.902  0.8385  0.5974 -0.5137
  130OSM   H15T14008   5.987   5.562   7.983 -0.4553  4.1586 -1.8169
  130OSM   C16S14009   6.195   5.607   7.989  0.6297 -0.4497 -0.3181
  130OSM   H16S14010   6.269   5.602   7.906 -0.1718  1.1284 -1.1741
  130OSM   H16T14011   6.221   5.539   8.073  0.8408  0.5535  0.4514
  130OSM   C17S14012   6.167   5.744   8.059  0.3373  1.2166  0.5890
  130OSM   H17S14013   6.118   5.816   7.990  0.8384 -1.2183 -2.5702
  130OSM   H17T14014   6.258   5.799   8.091  0.5187  0.9735  0.5004
  130OSM   C18S14015   6.081   5.726   8.190  0.6024  0.1751 -0.1146
  130OSM   H18S14016   5.971   5.721   8.170  0.8389  1.6230 -2.0717
  130OSM   H18T14017   6.092   5.815   8.255 -0.0679 -0.9411  1.5950
  130OSM   H18U14018   6.103   5.632   8.245 -0.9888 -0.1213  0.0784
  130OSM    C1F14019   6.539   5.372   6.509  0.1100 -0.8399 -0.6847
  130OSM     OF14020   6.629   5.439   6.468 -0.1473 -0.1673 -0.0823
  130OSM    C2F14021   6.563   5.251   6.585 -0.4853 -0.1527 -0.1605
  130OSM    H2F14022   6.482   5.186   6.546 -2.6736  1.2281  1.8885
  130OSM    H2G14023   6.556   5.274   6.693  0.1086 -2.6871  0.4923
  130OSM    C3F14024   6.707   5.196   6.561  0.3180 -0.0149 -0.4129
  130OSM    H3F14025   6.791   5.262   6.591  1.0869 -0.2385 -1.9700
  130OSM    H3G14026   6.711   5.170   6.453  4.2644 -1.0176 -0.1734
  130OSM    C4F14027   6.730   5.064   6.642  0.3040 -0.3038  0.1555
  130OSM    H4F14028   6.644   4.998   6.616 -0.4773  1.1076 -1.0107
  130OSM    H4G14029   6.712   5.082   6.751 -2.1937 -1.6915  0.0515
  130OSM    C5F14030   6.868   5.000   6.609  1.1942 -0.8538  0.4621
  130OSM    H5F14031   6.888   4.999   6.500 -0.8350  2.7163 -0.0727
  130OSM    H5G14032   6.874   4.893   6.641  3.5056 -0.9184  0.0370
  130OSM    C6F14033   6.979   5.070   6.684 -0.5146  0.1522 -0.1933
  130OSM    H6F14034   6.975   5.181   6.676  0.9566  0.1070 -2.1908
  130OSM    H6G14035   7.076   5.038   6.642 -1.1515  1.6719 -3.0811
  130OSM    C7F14036   6.987   5.033   6.838  0.2232  0.1053 -0.0823
  130OSM    H7F14037   6.997   4.922   6.841 -1.6687 -0.0936  3.5958
  130OSM    H7G14038   6.894   5.061   6.892  0.6222 -0.0008  0.6775
  130OSM    C8F14039   7.080   5.118   6.916 -0.2787  0.4204  1.1165
  130OSM    H8F14040   7.037   5.216   6.946 -0.1871  1.1604 -1.0292
  130OSM    H8G14041   7.164   5.145   6.848 -0.4516 -0.3841  0.5662
  130OSM    C9F14042   7.137   5.039   7.029 -0.1143  0.6047 -0.1213
  130OSM    H9F14043   7.229   4.981   7.013  1.6400  2.6725  1.7736
  130OSM   C10F14044   7.085   5.034   7.153  0.1670 -0.1783 -0.4744
  130OSM   H10F14045   7.126   4.966   7.229 -0.4840  0.7652  0.7540
  130OSM   C11F14046   6.966   5.102   7.198  0.1664  0.1329 -0.0299
  130OSM   H11F14047   6.877   5.051   7.156 -1.3871  2.0344  0.7708
  130OSM   H11G14048   6.953   5.199   7.145 -2.1958 -1.0683 -1.8144
  130OSM   C12F14049   6.936   5.121   7.353  0.1407 -0.0568  0.6187
  130OSM   H12F14050   6.935   5.021   7.401  1.6046 -0.7622 -0.7492
  130OSM   H12G14051   6.835   5.166   7.367  0.1896  0.3175 -0.1801
  130OSM   C13F14052   7.035   5.218   7.417 -0.0930 -0.0204 -0.0588
  130OSM   H13F14053   7.010   5.315   7.371  0.0984 -0.8985 -2.1232
  130OSM   H13G14054   7.137   5.195   7.379  0.0928  0.2563  0.2738
  130OSM   C14F14055   7.035   5.210   7.570  0.1639 -0.5734  0.0503
  130OSM   H14F14056   6.931   5.218   7.608  0.4797 -2.1906  1.4340
  130OSM   H14G14057   7.096   5.297   7.601  0.6395 -0.9645  0.2332
  130OSM   C15F14058   7.098   5.083   7.628 -0.4152 -0.3163  0.0654
  130OSM   H15F14059   7.205   5.097   7.605 -0.1628 -1.4415  0.4856
  130OSM   H15G14060   7.076   4.995   7.564  2.5989 -0.5566 -0.7972
  130OSM   C16F14061   7.059   5.061   7.773  0.0883 -0.7169  0.0983
  130OSM   H16F14062   6.953   5.030   7.769 -0.2887 -0.7497  4.9328
  130OSM   H16G14063   7.076   5.152   7.835  1.8656 -1.1852  0.3714
  130OSM   C17F14064   7.143   4.943   7.827 -0.2947  0.1538  0.2707
  130OSM   H17F14065   7.148   4.871   7.742  0.8649  2.0615 -1.3473
  130OSM   H17G14066   7.094   4.898   7.917 -0.2604  1.0721  0.7638
  130OSM   C18F14067   7.283   4.982   7.874 -0.2830  0.0974 -0.7538
  130OSM   H18F14068   7.342   4.901   7.922  1.6252  2.2938  0.8470
  130OSM   H18G14069   7.278   5.056   7.956 -2.7932 -0.3093 -0.4703
  130OSM   H18H14070   7.326   5.036   7.787  0.2550  2.6003  0.9664
  131OSM      N14071   3.766   0.249   5.522  0.4517  1.1912 -0.3201
  131OSM    C1514072   3.686   0.123   5.557 -0.0959 -0.0957  0.3581
  131OSM   H15A14073   3.591   0.128   5.506  0.6107  1.8907 -0.8686
  131OSM   H15B14074   3.683   0.127   5.665  1.0353 -0.0019  0.3994
  131OSM   H15C14075   3.747   0.044   5.516  2.0638  1.5944  0.1160
  131OSM    C1414076   3.879   0.256   5.615 -0.7530  0.2557  0.6267
  131OSM   H14A14077   3.867   0.318   5.703  1.0658 -0.9434  1.8032
  131OSM   H14B14078   3.958   0.306   5.561  0.1554  1.2148  2.7218
  131OSM   H14C14079   3.917   0.158   5.640  0.8217  0.2395 -1.5599
  131OSM    C1314080   3.826   0.237   5.380 -0.1276 -0.0509  0.1828
  131OSM   H13A14081   3.904   0.163   5.369  0.0437  0.0343  0.7508
  131OSM   H13B14082   3.874   0.330   5.352  2.0420 -1.6407 -1.7288
  131OSM   H13C14083   3.748   0.227   5.307 -1.1398  0.2456  1.1888
  131OSM    C1214084   3.675   0.364   5.527 -0.7403  0.2076 -0.9948
  131OSM   H12A14085   3.598   0.357   5.451 -2.4838 -1.0843  0.7905
  131OSM   H12B14086   3.733   0.454   5.509 -1.8972  1.0573 -0.5988
  131OSM    C1114087   3.600   0.403   5.666 -0.3642 -1.0104  0.8050
  131OSM   H11A14088   3.542   0.313   5.697 -0.0840 -1.6273 -0.3675
  131OSM   H11B14089   3.532   0.490   5.658  0.2901 -0.6308 -1.4138
  131OSM      P14090   3.718   0.569   5.828 -0.2210 -0.0245 -0.0188
  131OSM    O1314091   3.810   0.565   5.945 -0.2011 -0.3696 -0.8744
  131OSM    O1414092   3.767   0.646   5.715 -0.6155 -0.1257 -0.2691
  131OSM    O1114093   3.569   0.621   5.881  0.2611  0.3802 -0.2211
  131OSM    O1214094   3.692   0.423   5.768  0.7007 -0.6654 -0.3603
  131OSM    C1S14095   3.501   0.538   5.977  0.1409 -0.0781 -0.0684
  131OSM    H1S14096   3.507   0.432   5.945 -2.7424  0.2908 -2.2245
  131OSM    H1T14097   3.391   0.551   5.966  0.2535  0.3355 -0.7547
  131OSM     NF14098   3.465   0.462   6.206  0.6406 -0.0272  0.1253
  131OSM    HNF14099   3.370   0.477   6.230 -0.5848  0.0322 -3.9167
  131OSM    C2S14100   3.539   0.555   6.121  0.1704 -0.3565 -0.0143
  131OSM    H2S14101   3.647   0.530   6.131  0.1248 -1.0850 -1.1444
  131OSM    C3S14102   3.523   0.707   6.165  0.2380  0.2167 -0.0029
  131OSM    H3S14103   3.413   0.720   6.162  0.1421 -0.5870 -0.1508
  131OSM     O314104   3.577   0.803   6.072  0.4328 -0.4954  0.3952
  131OSM    HO314105   3.601   0.744   6.000 -0.5777 -1.8535  1.1445
  131OSM    C4S14106   3.575   0.724   6.306  0.3649 -1.2325 -0.0529
  131OSM    H4S14107   3.500   0.687   6.378  0.5592 -1.6862 -0.0798
  131OSM    C5S14108   3.694   0.767   6.345 -0.3641 -0.5203  0.4887
  131OSM    H5S14109   3.771   0.809   6.278 -1.3638  1.5349  0.5276
  131OSM    C6S14110   3.729   0.770   6.494  0.5687 -0.0633 -0.5841
  131OSM    H6S14111   3.718   0.877   6.522 -1.3873 -0.2800 -0.3976
  131OSM    H6T14112   3.829   0.733   6.525 -0.3353 -1.8826  0.2547
  131OSM    C7S14113   3.624   0.711   6.592 -0.2219  0.5425 -0.1875
  131OSM    H7S14114   3.594   0.608   6.562 -0.8667  0.4084  0.8513
  131OSM    H7T14115   3.538   0.779   6.580  0.1919  0.8786 -1.3005
  131OSM    C8S14116   3.671   0.711   6.743  0.7179  0.1144 -0.1345
  131OSM    H8S14117   3.725   0.808   6.751 -3.2744  2.5412  0.0077
  131OSM    H8T14118   3.742   0.625   6.748  3.0008  1.5795 -3.5528
  131OSM    C9S14119   3.555   0.687   6.843 -0.2797  0.7634  0.5577
  131OSM    H9S14120   3.494   0.600   6.810  0.1678 -0.3743  2.5261
  131OSM    H9T14121   3.479   0.766   6.828 -1.1615 -0.2107 -0.3395
  131OSM   C10S14122   3.607   0.665   6.988 -0.1746  0.1652  0.1227
  131OSM   H10S14123   3.647   0.766   7.011 -0.9937  0.7942 -1.1088
  131OSM   H10T14124   3.683   0.584   6.989 -0.2717  0.0377 -1.0768
  131OSM   C11S14125   3.488   0.638   7.086 -0.4170 -0.0534  0.1685
  131OSM   H11S14126   3.436   0.541   7.071  0.4109 -0.6345  0.9380
  131OSM   H11T14127   3.409   0.713   7.065  0.3867  0.7203 -0.1238
  131OSM   C12S14128   3.540   0.661   7.223 -0.2443 -0.2276 -0.2489
  131OSM   H12S14129   3.564   0.770   7.223 -1.5209  0.0725  0.5184
  131OSM   H12T14130   3.630   0.598   7.238 -1.3282 -1.9927 -0.8092
  131OSM   C13S14131   3.446   0.639   7.339  0.8120  0.3980  0.6449
  131OSM   H13S14132   3.400   0.540   7.320 -0.8147  1.3318 -0.6041
  131OSM   H13T14133   3.362   0.711   7.323 -1.3118 -1.8843  0.8773
  131OSM   C14S14134   3.496   0.656   7.480 -0.4729  0.4751  0.6170
  131OSM   H14S14135   3.506   0.766   7.488 -4.0444  1.1373 -1.7796
  131OSM   H14T14136   3.592   0.600   7.494 -1.5870 -1.4932  0.7639
  131OSM   C15S14137   3.394   0.609   7.582  0.3928  0.1678 -0.3867
  131OSM   H15S14138   3.369   0.503   7.563 -0.8833  0.1945  0.9487
  131OSM   H15T14139   3.305   0.674   7.567  0.7916  0.6764 -0.5638
  131OSM   C16S14140   3.443   0.608   7.731  1.2038 -0.5123 -0.2113
  131OSM   H16S14141   3.478   0.711   7.751  0.7682 -0.3885 -0.0729
  131OSM   H16T14142   3.533   0.543   7.732  0.5794 -1.4721 -1.8365
  131OSM   C17S14143   3.333   0.565   7.839 -0.4544  0.2222 -0.4099
  131OSM   H17S14144   3.288   0.468   7.808  0.3587  0.1432 -1.4037
  131OSM   H17T14145   3.258   0.647   7.833  0.7521  1.4920  1.0509
  131OSM   C18S14146   3.391   0.562   7.983  0.2057  0.4954  0.3133
  131OSM   H18S14147   3.422   0.661   8.022  1.2345 -0.5624  2.3414
  131OSM   H18T14148   3.477   0.493   7.995 -0.9377 -0.6638  2.4660
  131OSM   H18U14149   3.309   0.530   8.051  1.5766  2.4009  3.0159
  131OSM    C1F14150   3.495   0.335   6.221 -0.7256  0.2938  0.0414
  131OSM     OF14151   3.586   0.282   6.155  0.2063 -0.1022  0.0233
  131OSM    C2F14152   3.414   0.257   6.319 -0.2035 -0.8805 -0.4201
  131OSM    H2F14153   3.432   0.150   6.295 -1.7953 -1.7748  2.0610
  131OSM    H2G14154   3.308   0.277   6.296 -1.2118 -2.9180  1.9611
  131OSM    C3F14155   3.453   0.284   6.463 -0.1045 -0.2525 -0.0095
  131OSM    H3F14156   3.391   0.217   6.526  1.8048  0.2567  2.5881
  131OSM    H3G14157   3.449   0.391   6.491  2.0406 -0.0745 -0.2221
  131OSM    C4F14158   3.603   0.254   6.496 -0.2629 -0.5471  0.1964
  131OSM    H4F14159   3.658   0.324   6.429  0.1388  0.1950  1.2617
  131OSM    H4G14160   3.625   0.151   6.461  2.7799  1.1000 -3.4978
  131OSM    C5F14161   3.649   0.300   6.630  0.5943 -0.4861  0.9247
  131OSM    H5F14162   3.598   0.398   6.648 -0.8036 -0.0403 -4.0880
  131OSM    H5G14163   3.756   0.330   6.632  0.6594 -0.5964 -0.3137
  131OSM    C6F14164   3.629   0.200   6.746  0.8015  0.6743 -0.2042
  131OSM    H6F14165   3.685   0.109   6.714  1.5580  1.4567 -1.1993
  131OSM    H6G14166   3.521   0.179   6.754 -0.5668  5.4202 -2.6372
  131OSM    C7F14167   3.693   0.257   6.875  0.2323  0.3460  0.1075
  131OSM    H7F14168   3.787   0.309   6.847 -0.1579 -0.3930 -2.9784
  131OSM    H7G14169   3.734   0.170   6.932 -0.7725 -0.8819 -0.9782
  131OSM    C8F14170   3.606   0.328   6.973  0.1125  0.3937  0.4289
  131OSM    H8F14171   3.551   0.408   6.919  0.3415 -0.5145 -1.2177
  131OSM    H8G14172   3.670   0.379   7.048  0.6088 -2.5653  2.1757
  131OSM    C9F14173   3.506   0.240   7.034  0.0993 -0.2903 -0.9280
  131OSM    H9F14174   3.442   0.185   6.963  1.1992 -1.4140 -1.0766
  131OSM   C10F14175   3.492   0.200   7.159  0.2696 -0.8751 -0.3698
  131OSM   H10F14176   3.429   0.111   7.172  0.8768 -1.5909 -2.0373
  131OSM   C11F14177   3.583   0.239   7.275 -0.3822  0.0526  0.2111
  131OSM   H11F14178   3.610   0.347   7.265  2.7353 -0.7686 -1.8709
  131OSM   H11G14179   3.675   0.178   7.265 -0.9893 -0.9210  0.4401
  131OSM   C12F14180   3.520   0.190   7.404 -0.6078 -0.4783  0.2989
  131OSM   H12F14181   3.519   0.079   7.406  2.4971 -0.6330  3.4401
  131OSM   H12G14182   3.412   0.213   7.411 -0.7617 -1.2329  0.5356
  131OSM   C13F14183   3.589   0.247   7.525  0.2801  0.1689  0.9303
  131OSM   H13F14184   3.581   0.358   7.515 -1.4348 -0.0838 -1.2835
  131OSM   H13G14185   3.697   0.221   7.535 -0.0796 -1.9512 -0.1593
  131OSM   C14F14186   3.512   0.195   7.647 -0.1668 -0.1518  0.1194
  131OSM   H14F14187   3.510   0.084   7.651  0.0804 -0.1456  0.5012
  131OSM   H14G14188   3.409   0.238   7.641  1.0749  3.0550 -0.1238
  131OSM   C15F14189   3.556   0.255   7.781 -0.5044 -0.0220  0.1404
  131OSM   H15F14190   3.521   0.358   7.802 -3.8270 -1.3919  2.2378
  131OSM   H15G14191   3.667   0.253   7.778 -0.4607  1.6803 -0.0192
  131OSM   C16F14192   3.515   0.177   7.907 -0.0437 -0.4357  0.4141
  131OSM   H16F14193   3.526   0.067   7.897 -1.0473 -0.5837  0.7742
  131OSM   H16G14194   3.407   0.189   7.931 -0.3140  0.3462 -1.0801
  131OSM   C17F14195   3.607   0.221   8.025  0.4136 -0.2192  0.1368
  131OSM   H17F14196   3.581   0.324   8.059  0.5814  0.0939 -0.6508
  131OSM   H17G14197   3.712   0.219   7.988  0.4378 -0.7137  0.2368
  131OSM   C18F14198   3.601   0.130   8.147 -0.9105 -0.1111  0.0875
  131OSM   H18F14199   3.643   0.032   8.117 -0.5806 -0.3017  1.1235
  131OSM   H18G14200   3.502   0.117   8.196 -0.5027 -0.5064  0.8207
  131OSM   H18H14201   3.677   0.160   8.222 -0.5066  0.3796 -0.5060
  132OSM      N14202   1.401   2.457   6.263  0.2470 -0.5221 -0.0843
  132OSM    C1514203   1.332   2.415   6.397 -0.3000 -0.0158  0.0805
  132OSM   H15A14204   1.413   2.398   6.467 -0.1248 -1.4196 -0.4429
  132OSM   H15B14205   1.261   2.335   6.386 -2.6872  1.8712  0.9126
  132OSM   H15C14206   1.271   2.497   6.433  0.0621  0.0442  0.5816
  132OSM    C1414207   1.490   2.350   6.218  0.0031  0.4027 -0.3953
  132OSM   H14A14208   1.531   2.372   6.121  0.8192  2.0116  0.2837
  132OSM   H14B14209   1.447   2.251   6.213  0.0834  0.3978 -1.0295
  132OSM   H14C14210   1.559   2.333   6.299  1.9917 -2.0590 -2.4235
  132OSM    C1314211   1.284   2.468   6.164  0.4640 -0.7783  1.3610
  132OSM   H13A14212   1.225   2.552   6.196  0.9743 -0.4601  1.4837
  132OSM   H13B14213   1.216   2.384   6.170 -0.9427  0.3352  1.4880
  132OSM   H13C14214   1.323   2.479   6.064 -0.8277 -2.5564  0.6148
  132OSM    C1214215   1.483   2.581   6.278 -0.5029  0.1813  0.5631
  132OSM   H12A14216   1.511   2.602   6.176 -1.1808 -1.8307 -0.0810
  132OSM   H12B14217   1.568   2.564   6.342  1.3716 -2.0788 -2.2791
  132OSM    C1114218   1.409   2.712   6.321  0.9751 -0.2269 -0.7648
  132OSM   H11A14219   1.481   2.797   6.316  0.5196  0.0981 -2.7916
  132OSM   H11B14220   1.377   2.708   6.427 -0.7506  1.4752 -1.1517
  132OSM      P14221   1.306   2.843   6.124 -0.3009 -0.5202 -0.2295
  132OSM    O1314222   1.439   2.835   6.055 -0.0848 -0.0485 -0.5777
  132OSM    O1414223   1.184   2.838   6.037  0.0407 -1.0481  0.0773
  132OSM    O1114224   1.302   2.987   6.195  0.0554 -0.4321  0.5776
  132OSM    O1214225   1.292   2.741   6.239 -0.5329  0.1914  0.3690
  132OSM    C1S14226   1.195   3.042   6.275 -0.6434  0.8980  0.1645
  132OSM    H1S14227   1.096   3.013   6.233 -0.5205  0.6933  0.0108
  132OSM    H1T14228   1.199   3.153   6.277 -0.3123  0.8903  0.0728
  132OSM     NF14229   1.084   3.032   6.495 -0.4300  0.5430  0.0348
  132OSM    HNF14230   1.089   3.103   6.565  0.4186  0.1659  0.3689
  132OSM    C2S14231   1.205   3.004   6.423 -0.6612 -0.2773  0.5375
  132OSM    H2S14232   1.219   2.894   6.430  2.4379  0.1003  2.0717
  132OSM    C3S14233   1.326   3.068   6.486 -0.7975 -0.2373  0.9648
  132OSM    H3S14234   1.310   3.178   6.488  0.8746  0.1106 -1.2637
  132OSM     O314235   1.448   3.052   6.413  0.0949  0.2562 -0.0021
  132OSM    HO314236   1.431   3.033   6.320 -1.8446 -1.9726  0.7148
  132OSM    C4S14237   1.334   3.026   6.639 -0.4665  0.0597  0.1889
  132OSM    H4S14238   1.300   3.111   6.699  0.0133 -0.0002  0.5476
  132OSM    C5S14239   1.389   2.915   6.692 -0.7765  0.0415 -0.6494
  132OSM    H5S14240   1.443   2.842   6.629 -2.1573 -0.3853 -1.3630
  132OSM    C6S14241   1.399   2.873   6.834  0.5481  0.1719 -0.1312
  132OSM    H6S14242   1.504   2.867   6.868  1.3934 -2.5686 -2.8049
  132OSM    H6T14243   1.337   2.782   6.847 -0.0918  0.3138 -1.9222
  132OSM    C7S14244   1.336   2.984   6.927  0.3169  0.1769  0.7574
  132OSM    H7S14245   1.230   2.988   6.894  0.9040  0.8333 -1.2099
  132OSM    H7T14246   1.389   3.080   6.910  0.5983 -0.2317 -0.9197
  132OSM    C8S14247   1.339   2.941   7.074  0.4516 -0.2642  0.1004
  132OSM    H8S14248   1.439   2.944   7.123  1.1843 -0.2191 -1.3508
  132OSM    H8T14249   1.297   2.839   7.072  0.7265 -0.3916 -2.3684
  132OSM    C9S14250   1.242   3.027   7.154  0.3050 -0.1348  1.2354
  132OSM    H9S14251   1.136   3.013   7.123  1.0205 -1.7250 -0.6087
  132OSM    H9T14252   1.264   3.134   7.131 -1.3486  0.2352  1.2021
  132OSM   C10S14253   1.252   2.999   7.308 -0.3976 -0.1697 -0.1602
  132OSM   H10S14254   1.354   3.026   7.344 -0.1322  0.7038 -1.5141
  132OSM   H10T14255   1.237   2.889   7.320  0.6074 -0.3276 -0.2753
  132OSM   C11S14256   1.154   3.077   7.393 -0.4132  0.1778 -0.7564
  132OSM   H11S14257   1.053   3.077   7.347 -1.3035  1.0841  1.1267
  132OSM   H11T14258   1.194   3.181   7.396 -2.5657  1.0338 -0.2817
  132OSM   C12S14259   1.140   3.021   7.534  0.2098 -0.4018 -0.1546
  132OSM   H12S14260   1.238   3.025   7.587 -0.2162  2.9535  0.5875
  132OSM   H12T14261   1.123   2.911   7.535  4.2955 -1.2201  1.6765
  132OSM   C13S14262   1.027   3.083   7.613 -0.5476  0.1855  0.0083
  132OSM   H13S14263   0.940   3.062   7.547 -1.0006 -0.8814  0.9289
  132OSM   H13T14264   1.053   3.191   7.621 -1.5390  0.4308  0.0517
  132OSM   C14S14265   1.023   3.039   7.760 -0.3127  0.3218  0.0146
  132OSM   H14S14266   1.120   3.062   7.810  0.6180 -0.8230 -1.1999
  132OSM   H14T14267   1.013   2.929   7.771  1.0902  0.2108  0.4390
  132OSM   C15S14268   0.922   3.109   7.855  0.1556 -0.0223  0.5567
  132OSM   H15S14269   0.939   3.218   7.852  0.7641 -0.1195  0.2012
  132OSM   H15T14270   0.948   3.077   7.958  1.4737 -2.9611 -0.5590
  132OSM   C16S14271   0.774   3.100   7.817 -0.4330 -0.1132 -1.0197
  132OSM   H16S14272   0.738   2.999   7.845  1.0640 -0.5849 -0.7372
  132OSM   H16T14273   0.771   3.108   7.706 -0.3664 -3.1191 -1.3237
  132OSM   C17S14274   0.683   3.208   7.883  0.1962 -0.3721  0.2644
  132OSM   H17S14275   0.594   3.223   7.819  0.5742  0.5223 -0.0640
  132OSM   H17T14276   0.732   3.308   7.881  0.8407 -0.6973 -1.3218
  132OSM   C18S14277   0.643   3.189   8.031  0.4192 -0.0894  0.7164
  132OSM   H18S14278   0.579   3.274   8.065  0.6333  1.3859 -2.2241
  132OSM   H18T14279   0.733   3.189   8.095  1.9356 -2.6567 -1.2291
  132OSM   H18U14280   0.585   3.094   8.036  0.4677 -0.3478 -2.0367
  132OSM    C1F14281   0.966   2.972   6.466  0.2960 -0.7512 -0.6096
  132OSM     OF14282   0.960   2.887   6.378 -0.7049 -0.4320  0.2510
  132OSM    C2F14283   0.840   3.020   6.542 -0.3060  0.9438  0.6385
  132OSM    H2F14284   0.807   3.099   6.472  0.6478 -0.3132 -1.3258
  132OSM    H2G14285   0.871   3.065   6.639  2.6670 -0.1742  0.3219
  132OSM    C3F14286   0.731   2.917   6.556 -0.6350 -0.5808 -0.4809
  132OSM    H3F14287   0.763   2.827   6.613 -1.4489 -0.2946  0.4480
  132OSM    H3G14288   0.705   2.883   6.454 -0.3833 -1.3556 -0.2902
  132OSM    C4F14289   0.606   2.970   6.618  0.4798  0.1221 -0.0433
  132OSM    H4F14290   0.531   2.908   6.564 -1.3308 -0.1950  2.6595
  132OSM    H4G14291   0.577   3.071   6.582  1.1614 -0.0937 -1.2491
  132OSM    C5F14292   0.592   2.944   6.767  0.0333 -0.1022  0.4381
  132OSM    H5F14293   0.638   3.028   6.823 -3.1660  1.3823  1.0316
  132OSM    H5G14294   0.646   2.849   6.787  0.4687  0.2436  0.9453
  132OSM    C6F14295   0.446   2.932   6.810  0.6830 -0.3469  0.5125
  132OSM    H6F14296   0.413   2.851   6.742  3.4431  0.0707 -1.5206
  132OSM    H6G14297   0.388   3.026   6.803 -1.1332 -1.1967  3.0250
  132OSM    C7F14298   0.423   2.886   6.956  0.6641 -0.2221  1.2439
  132OSM    H7F14299   0.326   2.924   6.994 -0.2577 -1.1916 -0.0395
  132OSM    H7G14300   0.506   2.924   7.019  2.8582 -3.3693  0.5319
  132OSM    C8F14301   0.437   2.735   6.968  0.6689 -0.2528  0.5151
  132OSM    H8F14302   0.436   2.726   7.079  0.9841  1.8523  0.7393
  132OSM    H8G14303   0.540   2.703   6.943 -0.1272 -2.0986 -0.5255
  132OSM    C9F14304   0.329   2.653   6.903 -0.7239 -0.4000 -0.1310
  132OSM    H9F14305   0.257   2.709   6.843 -0.3360 -0.9114 -1.0857
  132OSM   C10F14306   0.320   2.525   6.912 -0.2558 -0.1793  0.2745
  132OSM   H10F14307   0.232   2.476   6.867 -0.1848 -1.2521  1.2718
  132OSM   C11F14308   0.420   2.435   6.977 -0.8726 -0.1844 -1.3230
  132OSM   H11F14309   0.490   2.500   7.034  1.0678 -1.6026 -1.9875
  132OSM   H11G14310   0.487   2.393   6.899 -0.9900 -0.9125 -1.0344
  132OSM   C12F14311   0.371   2.315   7.060  0.0899 -0.1514  0.5201
  132OSM   H12F14312   0.459   2.255   7.090 -0.7374 -0.2353  2.9735
  132OSM   H12G14313   0.298   2.247   7.011 -0.7371  1.7368 -1.0247
  132OSM   C13F14314   0.317   2.345   7.206  0.3873 -0.0689 -0.4113
  132OSM   H13F14315   0.231   2.415   7.213  1.4578  1.3519 -1.0314
  132OSM   H13G14316   0.391   2.382   7.281  2.4099  1.9350 -3.1952
  132OSM   C14F14317   0.260   2.218   7.259  0.2046  0.5256  0.5774
  132OSM   H14F14318   0.330   2.135   7.236  0.7527  1.3827 -1.0049
  132OSM   H14G14319   0.165   2.202   7.203  0.4810 -1.8697  0.6838
  132OSM   C15F14320   0.230   2.218   7.410  0.0521 -0.4367  0.5411
  132OSM   H15F14321   0.306   2.282   7.460  1.0809 -1.3102  0.1444
  132OSM   H15G14322   0.234   2.119   7.461 -0.4605 -2.7572 -3.5030
  132OSM   C16F14323   0.094   2.282   7.435  0.8281  0.7557  0.3485
  132OSM   H16F14324   0.015   2.205   7.421  1.0852  0.6179 -0.4255
  132OSM   H16G14325   0.083   2.352   7.349 -0.0508 -0.7404 -0.8195
  132OSM   C17F14326   0.076   2.341   7.575 -0.1103 -0.0452 -0.1015
  132OSM   H17F14327  -0.031   2.366   7.593 -0.6359  0.0163 -2.7579
  132OSM   H17G14328   0.130   2.438   7.572  2.2095 -1.2683 -2.4608
  132OSM   C18F14329   0.116   2.248   7.693 -0.2607 -0.2034  0.6274
  132OSM   H18F14330   0.067   2.149   7.689 -1.1685  0.2037  1.1649
  132OSM   H18G14331   0.088   2.290   7.793  3.0570 -1.5645  2.2778
  132OSM   H18H14332   0.224   2.225   7.694 -0.5990 -1.9822  1.8478
  133OSM      N14333   5.998   2.143   5.644 -0.1535 -0.3836  0.7433
  133OSM    C1514334   5.973   2.162   5.494 -0.1207 -1.0476 -0.2072
  133OSM   H15A14335   5.994   2.076   5.432  1.1761  0.9074 -2.6730
  133OSM   H15B14336   6.034   2.239   5.450 -1.3606 -0.9098 -1.7559
  133OSM   H15C14337   5.873   2.194   5.471 -0.2740 -0.2060  1.5353
  133OSM    C1414338   5.918   2.025   5.680  0.6868  0.3399 -0.0573
  133OSM   H14A14339   5.952   1.937   5.627 -1.3923  0.8556 -2.4217
  133OSM   H14B14340   5.814   2.045   5.659  0.6101  0.2516  0.2303
  133OSM   H14C14341   5.916   2.002   5.786 -0.0561 -1.5441 -0.4285
  133OSM    C1314342   6.145   2.115   5.662  0.8445 -0.2267 -0.3171
  133OSM   H13A14343   6.163   2.018   5.619  0.4056 -0.3426 -0.2398
  133OSM   H13B14344   6.159   2.116   5.769 -0.5107 -1.1144 -0.1033
  133OSM   H13C14345   6.200   2.201   5.625  1.0151 -0.6615 -1.0987
  133OSM    C1214346   5.966   2.266   5.727  0.4638 -0.3574  0.6287
  133OSM   H12A14347   5.869   2.306   5.701  1.7192  1.4972 -1.5925
  133OSM   H12B14348   6.032   2.347   5.701 -1.6446  1.1822 -0.2187
  133OSM    C1114349   5.973   2.255   5.883 -0.3414  0.1006 -0.5488
  133OSM   H11A14350   5.967   2.349   5.942 -1.3212 -0.7466  0.7551
  133OSM   H11B14351   6.079   2.226   5.902 -0.4322  1.2461  2.2785
  133OSM      P14352   5.748   2.178   5.931 -0.2553 -0.0631  0.0487
  133OSM    O1314353   5.727   2.299   5.853  0.1225 -0.2858 -0.4669
  133OSM    O1414354   5.679   2.057   5.902  0.5600  0.4126  0.3004
  133OSM    O1114355   5.718   2.219   6.077 -0.3160 -0.3648  0.6238
  133OSM    O1214356   5.902   2.149   5.946  0.2885 -0.3486  0.0262
  133OSM    C1S14357   5.723   2.123   6.183  0.0699 -0.1493 -0.3098
  133OSM    H1S14358   5.787   2.035   6.157  1.7891  0.3202  2.0106
  133OSM    H1T14359   5.627   2.073   6.208 -0.1104  1.1029  1.7125
  133OSM     NF14360   5.816   2.074   6.423 -0.0539  0.3186  0.3989
  133OSM    HNF14361   5.769   2.075   6.511  0.1717 -3.6501  0.7460
  133OSM    C2S14362   5.789   2.174   6.319  0.4171  0.4217  0.2281
  133OSM    H2S14363   5.889   2.211   6.291  1.0720 -0.7386  0.9554
  133OSM    C3S14364   5.696   2.287   6.378 -0.1562  0.2734  0.0342
  133OSM    H3S14365   5.592   2.252   6.390 -1.1917  2.5688 -1.4134
  133OSM     O314366   5.672   2.393   6.284 -0.8667 -0.1240 -0.6266
  133OSM    HO314367   5.670   2.348   6.200 -0.7694 -0.5044 -0.4268
  133OSM    C4S14368   5.744   2.353   6.503 -0.2751 -0.8813  0.6661
  133OSM    H4S14369   5.833   2.412   6.476 -1.4920  0.5335 -0.4164
  133OSM    C5S14370   5.683   2.351   6.625 -0.2915 -0.2581  0.1047
  133OSM    H5S14371   5.588   2.300   6.642 -0.9219  0.6460 -0.5727
  133OSM    C6S14372   5.747   2.421   6.738  0.7492  0.3243  0.4503
  133OSM    H6S14373   5.682   2.416   6.828 -1.4479  1.6254 -0.9633
  133OSM    H6T14374   5.756   2.531   6.730 -0.7675  0.3963 -0.5231
  133OSM    C7S14375   5.892   2.366   6.768 -0.2834 -0.5058  0.1504
  133OSM    H7S14376   5.956   2.355   6.678  0.5367  0.4671  0.5905
  133OSM    H7T14377   5.876   2.261   6.799  1.0009 -0.8017 -0.1140
  133OSM    C8S14378   5.972   2.439   6.878  0.1046  0.1873 -0.1358
  133OSM    H8S14379   6.006   2.535   6.834  1.5431 -0.5595 -0.7188
  133OSM    H8T14380   6.061   2.386   6.916 -0.1589  0.2182  0.5339
  133OSM    C9S14381   5.890   2.468   7.008 -0.5961 -0.3510 -0.5568
  133OSM    H9S14382   5.792   2.500   6.968 -0.1934 -0.8856 -2.0258
  133OSM    H9T14383   5.941   2.556   7.053  0.4282 -0.1618 -1.9955
  133OSM   C10S14384   5.878   2.354   7.107 -0.6324  0.2294 -0.0183
  133OSM   H10S14385   5.972   2.304   7.137 -0.8376  0.7534  1.6193
  133OSM   H10T14386   5.814   2.280   7.054  0.1096  1.0379 -2.1416
  133OSM   C11S14387   5.822   2.389   7.246  0.7916 -0.4762  0.2023
  133OSM   H11S14388   5.816   2.497   7.271  0.9184 -0.7720  1.5844
  133OSM   H11T14389   5.897   2.344   7.314  0.3409 -0.3370  0.8052
  133OSM   C12S14390   5.688   2.322   7.275 -0.8201  0.1231  0.6275
  133OSM   H12S14391   5.694   2.214   7.251  0.0694  0.7254 -2.3265
  133OSM   H12T14392   5.618   2.379   7.210  1.5100  1.0130 -1.2755
  133OSM   C13S14393   5.648   2.339   7.418  0.2003 -0.5115  0.3968
  133OSM   H13S14394   5.619   2.441   7.451 -2.8691 -1.3545  0.6693
  133OSM   H13T14395   5.728   2.295   7.481  1.0378 -2.3295 -1.8146
  133OSM   C14S14396   5.531   2.243   7.462 -0.0694 -0.7715  0.2434
  133OSM   H14S14397   5.560   2.136   7.460 -0.6708 -0.9344 -0.6908
  133OSM   H14T14398   5.461   2.259   7.377 -0.4959 -0.5255  0.6425
  133OSM   C15S14399   5.457   2.298   7.590 -0.2338 -0.3111  0.3161
  133OSM   H15S14400   5.347   2.283   7.583 -0.4338  1.1870 -0.1801
  133OSM   H15T14401   5.467   2.409   7.596  0.4011 -0.3122 -0.5311
  133OSM   C16S14402   5.511   2.247   7.728  0.4155 -0.5795  0.6261
  133OSM   H16S14403   5.618   2.277   7.730 -0.1133  1.7827 -1.1817
  133OSM   H16T14404   5.489   2.139   7.728 -2.9661 -0.1545 -3.4931
  133OSM   C17S14405   5.439   2.306   7.853 -0.3052 -0.1181  0.0093
  133OSM   H17S14406   5.328   2.297   7.850 -0.3302  0.1776  0.0818
  133OSM   H17T14407   5.467   2.413   7.864 -0.6073  0.0435 -0.7445
  133OSM   C18S14408   5.481   2.229   7.982 -0.1337 -0.1766 -0.5038
  133OSM   H18S14409   5.585   2.268   7.994 -0.6580  1.0855  0.1856
  133OSM   H18T14410   5.484   2.119   7.975 -1.1504 -0.2178 -0.4180
  133OSM   H18U14411   5.414   2.249   8.068  0.3617  0.1731 -0.1926
  133OSM    C1F14412   5.902   1.975   6.405 -0.5962  0.3781  0.8599
  133OSM     OF14413   5.970   1.967   6.304  0.3468  0.0110 -0.1520
  133OSM    C2F14414   5.910   1.864   6.501 -0.4054  0.3633 -0.3712
  133OSM    H2F14415   6.003   1.814   6.466 -0.7415  0.6908 -1.7976
  133OSM    H2G14416   5.824   1.795   6.490 -0.4732  0.1492  1.2572
  133OSM    C3F14417   5.934   1.908   6.649 -0.0135 -0.0424 -0.1173
  133OSM    H3F14418   5.945   1.816   6.709  0.1290 -0.6000 -0.9799
  133OSM    H3G14419   5.841   1.956   6.687 -0.5522 -0.9839 -0.2072
  133OSM    C4F14420   6.058   1.993   6.659  0.7969  0.1820  0.4761
  133OSM    H4F14421   6.045   2.097   6.622 -1.2480 -0.1843  0.0323
  133OSM    H4G14422   6.119   1.931   6.590 -2.1700 -0.9014 -1.3568
  133OSM    C5F14423   6.110   2.003   6.800 -0.1944  0.2602 -0.6564
  133OSM    H5F14424   6.138   1.903   6.839 -1.9920  0.0771  0.2489
  133OSM    H5G14425   6.024   2.033   6.863 -0.1648  0.0309 -0.5085
  133OSM    C6F14426   6.220   2.113   6.805  0.0960  0.1758 -0.1107
  133OSM    H6F14427   6.191   2.196   6.736  0.5295  0.6793  0.3041
  133OSM    H6G14428   6.306   2.061   6.759 -0.4827 -0.0336 -0.9919
  133OSM    C7F14429   6.245   2.166   6.943 -0.3022  0.1679  0.0059
  133OSM    H7F14430   6.156   2.145   7.005 -1.3950  0.7971 -1.3024
  133OSM    H7G14431   6.246   2.277   6.936 -0.3007  0.3348  2.1125
  133OSM    C8F14432   6.372   2.118   7.017 -0.2377 -0.3887  0.2685
  133OSM    H8F14433   6.393   2.201   7.087 -2.5688 -0.1274  0.7443
  133OSM    H8G14434   6.458   2.088   6.952 -1.2342 -0.1184 -1.2430
  133OSM    C9F14435   6.340   1.999   7.091  1.0082 -0.5270 -0.0455
  133OSM    H9F14436   6.316   1.916   7.023  1.9430 -1.8424  1.1720
  133OSM   C10F14437   6.351   1.976   7.223  0.6504  0.2760 -0.2201
  133OSM   H10F14438   6.318   1.879   7.261 -2.4493  1.8201  1.3914
  133OSM   C11F14439   6.385   2.075   7.330  0.7891 -0.1997 -0.1822
  133OSM   H11F14440   6.304   2.071   7.406 -0.6236  0.7517 -1.5711
  133OSM   H11G14441   6.395   2.180   7.293  2.2691  0.8979  2.9765
  133OSM   C12F14442   6.516   2.046   7.398  0.0698  0.1481  0.7429
  133OSM   H12F14443   6.594   2.062   7.321 -1.7138 -1.0460 -1.4414
  133OSM   H12G14444   6.541   1.939   7.417  1.4809  0.0807 -1.2237
  133OSM   C13F14445   6.550   2.141   7.515 -0.8778  0.1922  0.2545
  133OSM   H13F14446   6.524   2.245   7.484 -2.1481  0.5813  2.4270
  133OSM   H13G14447   6.657   2.124   7.539 -1.4467 -2.3981  1.2949
  133OSM   C14F14448   6.458   2.104   7.633  0.0430 -0.8494 -0.0018
  133OSM   H14F14449   6.456   1.995   7.657 -3.3594 -0.8198  0.3512
  133OSM   H14G14450   6.353   2.126   7.604  0.6220  0.7409 -0.9665
  133OSM   C15F14451   6.489   2.179   7.762  0.1818  0.0978  0.1955
  133OSM   H15F14452   6.486   2.289   7.748  0.1627  0.0003 -0.6342
  133OSM   H15G14453   6.591   2.142   7.790 -0.8158 -1.2585  2.2711
  133OSM   C16F14454   6.393   2.134   7.874 -0.3963  0.2505  0.0430
  133OSM   H16F14455   6.425   2.038   7.921  0.8089  0.1307 -0.9717
  133OSM   H16G14456   6.292   2.125   7.829 -0.0397  3.1571 -1.5515
  133OSM   C17F14457   6.372   2.253   7.973 -0.2655 -0.0376 -0.7703
  133OSM   H17F14458   6.304   2.318   7.915 -1.9171 -0.4894  0.5830
  133OSM   H17G14459   6.473   2.292   7.999  0.4941 -1.1220 -1.9460
  133OSM   C18F14460   6.312   2.197   8.102  0.0370 -0.5886 -0.0683
  133OSM   H18F14461   6.386   2.148   8.169  0.1851  0.7425  0.7840
  133OSM   H18G14462   6.234   2.122   8.073 -0.3079 -0.8432  1.4588
  133OSM   H18H14463   6.266   2.280   8.160  0.5122 -0.2806 -0.1275
  134OSM      N14464   0.233   5.207   6.123 -0.1485  0.0717 -0.0432
  134OSM    C1514465   0.179   5.142   6.251 -0.5682 -0.1618 -0.5306
  134OSM   H15A14466   0.197   5.036   6.249 -0.7496 -0.2899  1.6163
  134OSM   H15B14467   0.073   5.160   6.248 -0.7691 -1.3615 -1.4603
  134OSM   H15C14468   0.224   5.189   6.338 -1.6329 -0.7834  0.3861
  134OSM    C1414469   0.139   5.192   6.011  0.8767  0.3027  0.4603
  134OSM   H14A14470   0.144   5.268   5.934  2.3681  0.1531  0.3800
  134OSM   H14B14471   0.039   5.197   6.051  0.0903 -2.1338 -1.0471
  134OSM   H14C14472   0.143   5.089   5.979 -1.5453 -0.2600  1.7031
  134OSM    C1314473   0.239   5.358   6.157 -0.1708  0.4341 -0.6204
  134OSM   H13A14474   0.146   5.410   6.177 -0.0882  0.0753  0.7796
  134OSM   H13B14475   0.291   5.410   6.077  0.4318 -1.8936 -1.8449
  134OSM   H13C14476   0.303   5.368   6.243 -0.6185  0.8351 -0.3277
  134OSM    C1214477   0.375   5.154   6.080  0.3145  0.0558 -0.2952
  134OSM   H12A14478   0.409   5.215   5.998  0.9319 -0.0272 -0.1014
  134OSM   H12B14479   0.363   5.051   6.051  0.7562  0.3678 -1.6398
  134OSM    C1114480   0.483   5.157   6.191 -0.6784  0.2633 -0.6310
  134OSM   H11A14481   0.571   5.095   6.166 -1.0824 -0.9605  0.8459
  134OSM   H11B14482   0.445   5.102   6.280  3.1708 -0.3469  0.8389
  134OSM      P14483   0.639   5.358   6.171 -0.1993 -0.0451 -0.0189
  134OSM    O1314484   0.679   5.291   6.047  0.1377  0.2836  0.6208
  134OSM    O1414485   0.610   5.506   6.154  0.3846 -0.1611 -0.5953
  134OSM    O1114486   0.745   5.340   6.282  0.4667  0.1352  0.5130
  134OSM    O1214487   0.515   5.290   6.233 -0.2084 -0.3017 -0.4058
  134OSM    C1S14488   0.727   5.402   6.414 -0.4894  0.3096  0.7011
  134OSM    H1S14489   0.621   5.394   6.446 -0.6144 -0.5748  0.1022
  134OSM    H1T14490   0.742   5.512   6.412 -0.0901  0.3084  2.2013
  134OSM     NF14491   0.792   5.396   6.646  0.3543 -0.0873 -0.6525
  134OSM    HNF14492   0.871   5.430   6.696  0.6630  1.1346 -1.8979
  134OSM    C2S14493   0.825   5.341   6.518 -0.0388  0.1523 -0.3861
  134OSM    H2S14494   0.805   5.232   6.524  0.4010  0.1121  0.5613
  134OSM    C3S14495   0.969   5.348   6.475  0.3223 -0.1774  0.4924
  134OSM    H3S14496   1.002   5.454   6.469  1.3691 -0.5746 -2.0409
  134OSM     O314497   0.994   5.298   6.340  0.4459  0.2285  0.5645
  134OSM    HO314498   0.905   5.303   6.305  0.9363  1.6533 -0.5843
  134OSM    C4S14499   1.061   5.280   6.575 -0.5526 -0.1401 -0.2471
  134OSM    H4S14500   1.091   5.350   6.653 -2.6605 -0.7600  1.2361
  134OSM    C5S14501   1.118   5.159   6.565  0.1628  1.4716 -0.4658
  134OSM    H5S14502   1.100   5.099   6.475 -0.1613  0.7906  0.0449
  134OSM    C6S14503   1.219   5.089   6.657 -0.4065  0.1495  0.0988
  134OSM    H6S14504   1.316   5.071   6.605 -0.4092 -0.0622  0.1660
  134OSM    H6T14505   1.167   4.997   6.689 -1.0953 -0.0144 -1.4297
  134OSM    C7S14506   1.251   5.166   6.788 -0.0151  0.3180  0.3041
  134OSM    H7S14507   1.155   5.205   6.827 -1.1519 -1.9472 -0.1015
  134OSM    H7T14508   1.319   5.251   6.765 -0.0277  0.1734 -0.2834
  134OSM    C8S14509   1.324   5.081   6.891 -0.2492 -0.0769 -0.5366
  134OSM    H8S14510   1.372   5.146   6.968 -0.4215 -2.0453  1.3367
  134OSM    H8T14511   1.406   5.021   6.845 -1.5760 -3.6645  1.3146
  134OSM    C9S14512   1.236   4.975   6.960  0.4228  0.3727  0.0594
  134OSM    H9S14513   1.213   4.892   6.891 -2.8562  2.8550 -2.1525
  134OSM    H9T14514   1.141   5.026   6.988  0.5396  0.0358  1.0933
  134OSM   C10S14515   1.308   4.918   7.081 -1.2199 -0.1432  0.0079
  134OSM   H10S14516   1.414   4.908   7.048 -0.8083 -0.2053  1.2767
  134OSM   H10T14517   1.270   4.816   7.102  0.0985 -0.3401  1.7355
  134OSM   C11S14518   1.313   5.013   7.203  0.3580  0.0980  0.3461
  134OSM   H11S14519   1.220   5.072   7.215 -1.0288 -1.5188 -1.8404
  134OSM   H11T14520   1.394   5.089   7.190  0.3592  0.4321  2.0926
  134OSM   C12S14521   1.351   4.951   7.342 -0.1898 -0.2533 -0.4581
  134OSM   H12S14522   1.458   4.925   7.328  0.1637  0.2133  1.2307
  134OSM   H12T14523   1.293   4.857   7.348 -1.5023  0.5247 -0.5921
  134OSM   C13S14524   1.331   5.034   7.466 -0.2248  0.3251 -0.4969
  134OSM   H13S14525   1.223   5.045   7.489  0.0855  0.9065  0.7767
  134OSM   H13T14526   1.366   5.139   7.456 -1.4949  0.8683  0.5108
  134OSM   C14S14527   1.405   4.973   7.582 -0.0422  0.0547 -0.4153
  134OSM   H14S14528   1.506   4.941   7.551 -0.0982 -0.6185  0.0601
  134OSM   H14T14529   1.360   4.877   7.614  0.5895 -0.2430 -0.4079
  134OSM   C15S14530   1.395   5.061   7.704  0.1079  0.6838 -0.0032
  134OSM   H15S14531   1.286   5.082   7.711 -0.5486 -1.4514 -2.2622
  134OSM   H15T14532   1.453   5.153   7.681 -0.3588  0.5443 -1.9400
  134OSM   C16S14533   1.450   4.998   7.832  0.3012  0.6915 -0.2777
  134OSM   H16S14534   1.545   4.948   7.801 -1.5890 -1.9888 -2.2180
  134OSM   H16T14535   1.391   4.914   7.873 -0.9393  1.0283 -1.3052
  134OSM   C17S14536   1.465   5.103   7.939 -0.3348 -1.0044  0.6366
  134OSM   H17S14537   1.373   5.156   7.973  0.9662  1.5374  0.4096
  134OSM   H17T14538   1.512   5.190   7.889 -1.6707  0.0195  1.1048
  134OSM   C18S14539   1.548   5.047   8.054 -0.2624  0.4993  0.2421
  134OSM   H18S14540   1.640   4.997   8.016 -0.8822  0.4779 -1.3123
  134OSM   H18T14541   1.484   4.971   8.103 -1.2593  1.5319  0.6013
  134OSM   H18U14542   1.570   5.131   8.124  0.2532  1.3944 -0.9582
  134OSM    C1F14543   0.672   5.390   6.706  0.1053 -0.3252  0.3939
  134OSM     OF14544   0.571   5.337   6.654 -0.0209 -0.7439  0.1206
  134OSM    C2F14545   0.668   5.446   6.845 -0.2357 -0.6125  0.8621
  134OSM    H2F14546   0.659   5.556   6.839  1.8411 -0.3794  1.3419
  134OSM    H2G14547   0.764   5.428   6.898 -0.5259 -1.5147  1.1105
  134OSM    C3F14548   0.556   5.385   6.926  0.4702 -0.2653 -0.6212
  134OSM    H3F14549   0.551   5.275   6.915  0.1541 -0.4019  0.6985
  134OSM    H3G14550   0.458   5.432   6.900 -1.3859 -2.6919  1.4316
  134OSM    C4F14551   0.585   5.423   7.073 -0.3575  0.4725 -0.0985
  134OSM    H4F14552   0.597   5.534   7.067 -3.6873  0.9006 -0.5081
  134OSM    H4G14553   0.682   5.378   7.103 -1.6544 -1.3167  1.6624
  134OSM    C5F14554   0.474   5.385   7.169  0.4015 -0.3558  0.0928
  134OSM    H5F14555   0.512   5.286   7.204  1.9163  0.1884  0.0894
  134OSM    H5G14556   0.379   5.373   7.113  0.7378 -0.5527 -0.4439
  134OSM    C6F14557   0.469   5.491   7.285  0.0687  0.3949 -0.6127
  134OSM    H6F14558   0.369   5.498   7.332 -0.0796 -3.6202 -0.0174
  134OSM    H6G14559   0.490   5.590   7.240  1.3873 -0.5472 -2.1658
  134OSM    C7F14560   0.569   5.452   7.390  0.2620 -0.2271  0.1433
  134OSM    H7F14561   0.673   5.429   7.357  0.9184 -0.0972  1.9871
  134OSM    H7G14562   0.534   5.357   7.435  0.8986  0.2380  1.6915
  134OSM    C8F14563   0.602   5.563   7.491 -0.2464  0.2914 -0.0266
  134OSM    H8F14564   0.663   5.635   7.432  0.0156 -2.0776 -2.9229
  134OSM    H8G14565   0.681   5.534   7.563 -0.2993  1.5801  0.5783
  134OSM    C9F14566   0.486   5.626   7.561  0.3447 -0.3183  0.6985
  134OSM    H9F14567   0.399   5.663   7.504 -0.6974 -1.7888  1.2747
  134OSM   C10F14568   0.464   5.630   7.693 -0.4754 -0.2603 -0.6141
  134OSM   H10F14569   0.379   5.690   7.728 -1.4666 -2.8490  1.7731
  134OSM   C11F14570   0.560   5.573   7.796 -0.2765  0.6088 -0.4826
  134OSM   H11F14571   0.606   5.647   7.865  1.9481 -1.6251  0.5923
  134OSM   H11G14572   0.648   5.523   7.751 -0.4582  0.2464 -0.4436
  134OSM   C12F14573   0.503   5.459   7.884 -0.2663  0.4377  0.4428
  134OSM   H12F14574   0.506   5.367   7.822  2.2372 -0.2995  1.5161
  134OSM   H12G14575   0.396   5.475   7.908 -0.2639  1.6008 -0.1861
  134OSM   C13F14576   0.586   5.438   8.006 -0.8530  0.2049  0.8236
  134OSM   H13F14577   0.608   5.537   8.050 -0.3264  1.1568 -1.4347
  134OSM   H13G14578   0.675   5.381   7.971 -0.0583  1.5796  0.5452
  134OSM   C14F14579   0.521   5.337   8.108 -0.2154 -0.4982  0.7234
  134OSM   H14F14580   0.540   5.233   8.076  0.7127 -0.3601  0.8178
  134OSM   H14G14581   0.411   5.352   8.111 -0.5170 -2.4894  1.0154
  134OSM   C15F14582   0.557   5.361   8.253  0.5359 -0.4976  0.2300
  134OSM   H15F14583   0.567   5.470   8.276  2.0147  0.0510 -2.6412
  134OSM   H15G14584   0.658   5.317   8.260 -0.7350 -3.5833  0.8144
  134OSM   C16F14585   0.482   5.290   8.365  0.0355  0.0349  0.6731
  134OSM   H16F14586   0.441   5.198   8.320 -1.4320  1.6805 -1.5454
  134OSM   H16G14587   0.403   5.365   8.384 -0.0857 -0.6999  3.6100
  134OSM   C17F14588   0.551   5.267   8.494 -0.0313  0.0544 -0.2071
  134OSM   H17F14589   0.593   5.367   8.519 -0.5030  0.0965  0.4496
  134OSM   H17G14590   0.631   5.192   8.477  1.5432  1.0866  2.0797
  134OSM   C18F14591   0.451   5.220   8.601 -0.4649  0.1690  0.9249
  134OSM   H18F14592   0.490   5.208   8.704 -1.6014  4.5860  2.0930
  134OSM   H18G14593   0.414   5.120   8.572  1.3265 -0.1462 -0.4487
  134OSM   H18H14594   0.367   5.293   8.597 -3.0157 -2.5641  0.9992
  135OSM      N14595   0.528   4.497   5.965 -0.8088 -0.1797 -0.0688
  135OSM    C1514596   0.408   4.555   5.913 -0.4640 -0.0679  0.4360
  135OSM   H15A14597   0.346   4.482   5.864 -1.5957  1.5090 -0.5600
  135OSM   H15B14598   0.419   4.640   5.848  0.1772 -0.4435  0.0460
  135OSM   H15C14599   0.345   4.588   5.994  0.3115 -1.7846  1.8026
  135OSM    C1414600   0.502   4.356   6.023 -0.7994 -0.3014 -0.2476
  135OSM   H14A14601   0.452   4.289   5.954 -0.9934  0.5159 -0.9206
  135OSM   H14B14602   0.442   4.371   6.111 -1.1202 -1.8175 -0.1905
  135OSM   H14C14603   0.591   4.301   6.050  0.2891  0.5752 -1.8592
  135OSM    C1314604   0.628   4.481   5.854  0.3568  0.3330 -0.1266
  135OSM   H13A14605   0.589   4.419   5.775 -1.1260 -0.9872  1.5634
  135OSM   H13B14606   0.719   4.430   5.883  0.3615 -0.3901 -1.3715
  135OSM   H13C14607   0.654   4.576   5.808  1.0248 -0.6628 -1.9071
  135OSM    C1214608   0.605   4.576   6.077  0.4450  0.0985 -1.0338
  135OSM   H12A14609   0.614   4.680   6.048  0.7054  0.6162  0.7763
  135OSM   H12B14610   0.705   4.537   6.093  0.2642 -0.4968 -1.3155
  135OSM    C1114611   0.528   4.586   6.211 -0.3767 -0.0843  0.3490
  135OSM   H11A14612   0.591   4.629   6.292  1.1103 -2.3329  0.4783
  135OSM   H11B14613   0.509   4.486   6.255 -1.5909 -0.7248 -1.5278
  135OSM      P14614   0.380   4.800   6.209  0.1899  0.0721 -0.1166
  135OSM    O1314615   0.442   4.871   6.101  0.4838  0.1788  0.0134
  135OSM    O1414616   0.235   4.826   6.233  0.2433  0.8320 -0.4871
  135OSM    O1114617   0.466   4.831   6.339  0.6528  0.1870  0.4102
  135OSM    O1214618   0.400   4.645   6.197  0.1609  0.1566 -0.2698
  135OSM    C1S14619   0.422   4.788   6.468 -0.2267  0.5211 -0.2419
  135OSM    H1S14620   0.361   4.695   6.472 -2.9000  2.1606  3.3581
  135OSM    H1T14621   0.350   4.862   6.509 -0.7866  0.7142 -1.5105
  135OSM     NF14622   0.489   4.773   6.704 -0.5151 -0.2138 -0.4663
  135OSM    HNF14623   0.483   4.851   6.766 -0.6395 -0.4384 -0.1904
  135OSM    C2S14624   0.536   4.802   6.568  0.3353 -0.1415  0.0648
  135OSM    H2S14625   0.616   4.730   6.541  2.4671  2.3517 -0.6663
  135OSM    C3S14626   0.598   4.949   6.561 -0.0595  0.1097  0.4396
  135OSM    H3S14627   0.523   5.027   6.585  1.9240  2.4049 -0.3600
  135OSM     O314628   0.653   4.989   6.437  0.1132  0.1017  0.7028
  135OSM    HO314629   0.621   4.920   6.379  1.2150  0.9690 -1.0232
  135OSM    C4S14630   0.706   4.957   6.670  0.2395 -0.4612  0.0207
  135OSM    H4S14631   0.790   4.891   6.645 -0.0220 -0.7988  0.0347
  135OSM    C5S14632   0.699   5.042   6.769  0.2012  0.6348 -0.2409
  135OSM    H5S14633   0.612   5.109   6.776 -0.5140 -0.4099  1.2564
  135OSM    C6S14634   0.804   5.043   6.874 -0.0446  0.3314 -0.2926
  135OSM    H6S14635   0.844   5.147   6.872 -1.6629  0.9693 -1.6016
  135OSM    H6T14636   0.889   4.971   6.865  1.2871  1.7989 -0.0457
  135OSM    C7S14637   0.750   5.022   7.018  0.3260 -0.3457  0.7420
  135OSM    H7S14638   0.717   4.922   7.050 -1.3549  0.0054  0.1851
  135OSM    H7T14639   0.650   5.062   7.044 -1.2268 -4.0846  1.0297
  135OSM    C8S14640   0.846   5.084   7.121 -1.0619  0.3923  0.0681
  135OSM    H8S14641   0.873   5.187   7.090 -1.0361  0.2074 -0.5441
  135OSM    H8T14642   0.943   5.030   7.127 -1.1067  0.3146  0.0991
  135OSM    C9S14643   0.776   5.103   7.262 -0.0344  0.6131 -0.0997
  135OSM    H9S14644   0.715   5.014   7.291  1.8937 -0.6933  0.1866
  135OSM    H9T14645   0.706   5.189   7.257  0.8364  1.4246  0.9908
  135OSM   C10S14646   0.876   5.132   7.372 -0.0121  0.0542 -0.5365
  135OSM   H10S14647   0.913   5.237   7.369  0.0198  0.0641  0.0899
  135OSM   H10T14648   0.952   5.051   7.381 -0.6771 -0.3614  2.2429
  135OSM   C11S14649   0.808   5.135   7.515 -0.0280 -0.1524  0.2633
  135OSM   H11S14650   0.732   5.056   7.531 -1.0277  0.8739  0.7326
  135OSM   H11T14651   0.750   5.229   7.521 -0.4316 -0.3148 -0.9233
  135OSM   C12S14652   0.911   5.136   7.631  0.3860 -0.1949 -0.1780
  135OSM   H12S14653   0.997   5.203   7.611  1.1474 -0.7859  1.0010
  135OSM   H12T14654   0.937   5.029   7.639 -2.1050 -0.9365 -1.0692
  135OSM   C13S14655   0.855   5.199   7.762 -0.0008  0.0373 -0.2522
  135OSM   H13S14656   0.757   5.155   7.792  0.2405 -0.1998  0.1983
  135OSM   H13T14657   0.844   5.309   7.758 -0.3983  0.0373  0.5278
  135OSM   C14S14658   0.956   5.185   7.884  0.7217 -0.0749  0.5772
  135OSM   H14S14659   1.055   5.235   7.870 -0.7435  2.9931  0.3624
  135OSM   H14T14660   0.989   5.079   7.893  0.9000 -0.2091 -1.1711
  135OSM   C15S14661   0.898   5.226   8.015 -0.2961 -0.0308 -0.5623
  135OSM   H15S14662   0.791   5.197   8.028 -0.1331 -0.0433  0.9352
  135OSM   H15T14663   0.892   5.337   8.019 -0.9453 -0.0957  1.0250
  135OSM   C16S14664   0.980   5.180   8.128 -0.0478 -0.6917  0.5206
  135OSM   H16S14665   1.052   5.261   8.153  1.3011 -1.1234 -1.6578
  135OSM   H16T14666   1.031   5.087   8.093  1.0548  0.5862 -1.4315
  135OSM   C17S14667   0.898   5.133   8.244 -0.8594  0.4533 -0.3585
  135OSM   H17S14668   0.844   5.036   8.236  0.9355 -0.7243  0.9750
  135OSM   H17T14669   0.834   5.215   8.282 -1.6176  1.0332 -2.7081
  135OSM   C18S14670   0.996   5.104   8.368  0.5140 -0.2088  0.4914
  135OSM   H18S14671   1.067   5.189   8.366 -0.5755  0.7381 -0.8086
  135OSM   H18T14672   1.062   5.015   8.367  0.5548 -0.2014  1.8317
  135OSM   H18U14673   0.934   5.100   8.460 -0.7133  0.8946 -0.2479
  135OSM    C1F14674   0.445   4.655   6.736 -0.0321  0.6498  0.4832
  135OSM     OF14675   0.468   4.556   6.671 -0.2834 -0.1939 -0.0638
  135OSM    C2F14676   0.357   4.658   6.852 -0.2359 -0.3761 -0.1113
  135OSM    H2F14677   0.253   4.668   6.815 -0.0986 -1.9901 -1.0405
  135OSM    H2G14678   0.386   4.749   6.908 -2.5248 -0.1664  0.8159
  135OSM    C3F14679   0.361   4.536   6.951 -0.7175 -0.8139 -0.4737
  135OSM    H3F14680   0.372   4.438   6.899 -1.8073 -1.4688  0.5063
  135OSM    H3G14681   0.267   4.530   7.009  1.0343 -0.8123  2.5447
  135OSM    C4F14682   0.480   4.542   7.056 -0.1976  0.0161 -0.5352
  135OSM    H4F14683   0.497   4.648   7.084 -2.7244  0.8607 -1.9260
  135OSM    H4G14684   0.572   4.506   7.007  0.0709  1.3967 -1.0853
  135OSM    C5F14685   0.447   4.469   7.186  0.3932  0.4610 -0.1649
  135OSM    H5F14686   0.475   4.362   7.179  0.1394  0.4603 -1.3488
  135OSM    H5G14687   0.343   4.473   7.225  0.6855 -0.3340  0.7289
  135OSM    C6F14688   0.520   4.532   7.304  0.3642  0.3064  0.6219
  135OSM    H6F14689   0.483   4.635   7.326  0.2419 -0.0263  2.0719
  135OSM    H6G14690   0.629   4.542   7.287  0.7026 -0.3497  2.2209
  135OSM    C7F14691   0.502   4.463   7.438 -0.1370 -0.4293  1.0027
  135OSM    H7F14692   0.574   4.378   7.442  0.2377 -0.2171 -0.5047
  135OSM    H7G14693   0.395   4.432   7.439 -0.4759  0.6511  2.2701
  135OSM    C8F14694   0.524   4.555   7.559 -0.5868  0.3554 -0.4662
  135OSM    H8F14695   0.501   4.490   7.647  1.0404  0.1632 -0.1451
  135OSM    H8G14696   0.452   4.639   7.543 -1.3443 -0.1164  0.3618
  135OSM    C9F14697   0.665   4.612   7.580 -0.4570  0.4782 -0.7969
  135OSM    H9F14698   0.715   4.665   7.498  2.7673 -0.7795  0.1809
  135OSM   C10F14699   0.741   4.589   7.693  0.8307  0.0822  0.3370
  135OSM   H10F14700   0.828   4.652   7.713 -0.1890  1.0868  1.8505
  135OSM   C11F14701   0.706   4.502   7.815  0.5950  0.0175  0.0353
  135OSM   H11F14702   0.712   4.394   7.791 -1.0926 -0.0565 -0.1462
  135OSM   H11G14703   0.604   4.533   7.844  0.7119 -0.4743  0.9964
  135OSM   C12F14704   0.806   4.529   7.930 -0.4328  0.6225  0.2496
  135OSM   H12F14705   0.805   4.641   7.932  0.4926  0.6293  0.5984
  135OSM   H12G14706   0.905   4.489   7.900 -1.3648 -0.0330 -2.1863
  135OSM   C13F14707   0.772   4.472   8.062 -0.2025 -0.1757 -0.4540
  135OSM   H13F14708   0.855   4.495   8.132 -2.4362  3.3584  1.3217
  135OSM   H13G14709   0.766   4.361   8.056  0.1939 -0.3691  1.8067
  135OSM   C14F14710   0.644   4.514   8.137 -0.1217 -0.8201 -0.6034
  135OSM   H14F14711   0.677   4.509   8.243 -0.1160 -0.3715 -0.5834
  135OSM   H14G14712   0.558   4.446   8.122 -0.8487  0.2339 -1.4148
  135OSM   C15F14713   0.596   4.662   8.121 -0.0289 -0.2172  1.1119
  135OSM   H15F14714   0.538   4.670   8.026 -2.0059 -0.3283  2.2516
  135OSM   H15G14715   0.682   4.732   8.126 -0.6889  0.7511 -0.4244
  135OSM   C16F14716   0.496   4.702   8.230 -0.1565 -0.1594 -0.9364
  135OSM   H16F14717   0.550   4.677   8.324  2.5208  1.7069 -1.8407
  135OSM   H16G14718   0.410   4.633   8.222 -0.7683  0.4548  0.1062
  135OSM   C17F14719   0.456   4.848   8.238  0.3120  0.1939  0.2795
  135OSM   H17F14720   0.370   4.867   8.170  0.7484 -1.0988 -0.6705
  135OSM   H17G14721   0.543   4.913   8.211  0.9133 -0.1967  1.2446
  135OSM   C18F14722   0.405   4.898   8.374  0.2484  0.7155 -0.2459
  135OSM   H18F14723   0.474   4.864   8.455  1.5519  1.8353 -0.8442
  135OSM   H18G14724   0.315   4.836   8.396 -0.6274  1.9400 -0.2326
  135OSM   H18H14725   0.374   5.005   8.373  0.7136  0.8825 -2.4611
  136OSM      N14726   3.872   2.576   5.558 -0.3110  0.4489 -0.2006
  136OSM    C1514727   3.734   2.539   5.599 -0.3242 -0.2099 -0.2135
  136OSM   H15A14728   3.685   2.482   5.522 -0.9887 -0.7709  0.6012
  136OSM   H15B14729   3.679   2.631   5.605 -0.9679 -0.6691  2.9651
  136OSM   H15C14730   3.731   2.488   5.695  0.5725 -0.6269 -0.3945
  136OSM    C1414731   3.942   2.455   5.500 -0.1485  0.3986 -0.3451
  136OSM   H14A14732   4.044   2.477   5.471  0.5093 -3.9338 -2.1116
  136OSM   H14B14733   3.890   2.421   5.411 -1.0946  2.6988 -0.7499
  136OSM   H14C14734   3.948   2.377   5.574 -0.0926  0.5587 -0.1801
  136OSM    C1314735   3.869   2.684   5.453 -0.0697 -0.2588  0.0183
  136OSM   H13A14736   3.971   2.718   5.444  0.4773 -1.1989  2.0945
  136OSM   H13B14737   3.804   2.769   5.467 -1.9899 -1.8121  1.1185
  136OSM   H13C14738   3.850   2.639   5.356 -1.2631 -1.7725  0.9083
  136OSM    C1214739   3.946   2.621   5.678  0.6841  0.0693  0.4451
  136OSM   H12A14740   3.887   2.703   5.716  0.8615  0.6969 -0.6014
  136OSM   H12B14741   4.043   2.660   5.650  0.5400 -0.1015 -0.3049
  136OSM    C1114742   3.961   2.517   5.794 -0.1690 -0.2072  0.1738
  136OSM   H11A14743   4.035   2.560   5.865 -1.3436  0.5687  0.9738
  136OSM   H11B14744   4.008   2.428   5.748 -1.1640 -1.7426  1.9522
  136OSM      P14745   3.794   2.570   5.986  0.5694 -0.1894 -0.1143
  136OSM    O1314746   3.810   2.719   5.979 -0.8252 -0.5869  0.2828
  136OSM    O1414747   3.656   2.524   6.024 -0.0385 -0.5134  0.0585
  136OSM    O1114748   3.893   2.519   6.095  0.3892  0.0282 -0.0090
  136OSM    O1214749   3.837   2.486   5.858 -0.5831 -0.6264  0.6781
  136OSM    C1S14750   3.923   2.386   6.130  0.5485  0.2006 -0.2346
  136OSM    H1S14751   3.947   2.335   6.034  1.5847  3.0123 -1.5929
  136OSM    H1T14752   3.840   2.331   6.178 -0.2069  2.7500  1.5916
  136OSM     NF14753   4.023   2.408   6.356  0.3487 -0.0890 -0.1508
  136OSM    HNF14754   4.076   2.482   6.395  1.1337  0.8058 -2.7568
  136OSM    C2S14755   4.058   2.378   6.217  0.2439  0.8792 -0.7069
  136OSM    H2S14756   4.094   2.273   6.216  0.9507  1.1066 -0.2059
  136OSM    C3S14757   4.178   2.464   6.167 -0.5775 -0.7650  0.1471
  136OSM    H3S14758   4.137   2.567   6.171 -0.0088 -0.5429  0.3029
  136OSM     O314759   4.207   2.447   6.029 -0.3908  0.5236 -0.1009
  136OSM    HO314760   4.165   2.364   6.004 -0.3115  0.3517  0.3338
  136OSM    C4S14761   4.301   2.445   6.251 -0.0338 -0.0091 -0.1251
  136OSM    H4S14762   4.321   2.509   6.338  1.4380  0.0529 -0.4728
  136OSM    C5S14763   4.399   2.357   6.222 -0.0330 -0.5484  0.5843
  136OSM    H5S14764   4.391   2.277   6.147 -0.5967 -0.3013  0.3746
  136OSM    C6S14765   4.523   2.343   6.304 -0.5362  0.1509 -0.4394
  136OSM    H6S14766   4.604   2.403   6.258 -1.4192  0.1229 -2.0892
  136OSM    H6T14767   4.553   2.236   6.310  1.1568  0.5674 -0.9373
  136OSM    C7S14768   4.502   2.385   6.453  0.6611 -0.1870 -0.0220
  136OSM    H7S14769   4.404   2.357   6.497  1.1552 -1.4711  0.3079
  136OSM    H7T14770   4.506   2.495   6.467  1.3002 -0.1775 -0.2219
  136OSM    C8S14771   4.620   2.338   6.536 -0.4074 -0.3134 -0.2100
  136OSM    H8S14772   4.637   2.228   6.528  1.1735 -0.1372  0.3238
  136OSM    H8T14773   4.595   2.362   6.642  1.0875 -0.3659  0.1810
  136OSM    C9S14774   4.759   2.403   6.503 -0.2976  0.5149  0.1356
  136OSM    H9S14775   4.770   2.507   6.542 -1.9987 -0.0971  2.4123
  136OSM    H9T14776   4.779   2.405   6.394  0.8842 -2.5712  0.2011
  136OSM   C10S14777   4.868   2.315   6.562 -0.0628  0.5396 -0.1308
  136OSM   H10S14778   4.899   2.232   6.495 -0.0921  0.4368 -0.0154
  136OSM   H10T14779   4.827   2.275   6.657  1.1829 -3.7496 -1.1868
  136OSM   C11S14780   4.995   2.393   6.591 -0.0762  0.3366 -0.1238
  136OSM   H11S14781   4.970   2.493   6.632  0.7353  1.9336 -3.1911
  136OSM   H11T14782   5.045   2.425   6.497 -0.6496  1.7946  0.0382
  136OSM   C12S14783   5.097   2.327   6.681 -0.1204  0.0683 -0.2278
  136OSM   H12S14784   5.145   2.240   6.631  0.5970  0.0853  0.4105
  136OSM   H12T14785   5.057   2.282   6.774  0.8296 -0.2496  0.0368
  136OSM   C13S14786   5.204   2.422   6.723  0.1877 -0.6607  0.1382
  136OSM   H13S14787   5.155   2.492   6.794 -1.5042 -1.9172  0.2720
  136OSM   H13T14788   5.245   2.486   6.642 -1.2191  2.8395  1.9684
  136OSM   C14S14789   5.320   2.355   6.792  0.7160 -0.0527 -0.1967
  136OSM   H14S14790   5.395   2.434   6.815 -0.8047  0.8421  2.1202
  136OSM   H14T14791   5.362   2.281   6.721  0.5755 -0.0277 -0.3050
  136OSM   C15S14792   5.293   2.280   6.926 -0.1815 -0.2475  0.3268
  136OSM   H15S14793   5.233   2.188   6.907  1.5319 -1.2850 -0.2169
  136OSM   H15T14794   5.245   2.345   7.003  0.4382 -0.7071  1.1008
  136OSM   C16S14795   5.421   2.228   6.984  0.7459  1.0268 -0.2878
  136OSM   H16S14796   5.399   2.202   7.090 -0.2408 -0.2419 -0.7754
  136OSM   H16T14797   5.491   2.314   6.982  0.7527  1.0337  0.2360
  136OSM   C17S14798   5.470   2.109   6.906  0.3245 -0.0504  0.3386
  136OSM   H17S14799   5.498   2.144   6.804  1.1946  0.3989  0.7203
  136OSM   H17T14800   5.383   2.041   6.906 -0.1820  0.5741 -0.5925
  136OSM   C18S14801   5.587   2.042   6.988  0.1225 -0.4032  0.2655
  136OSM   H18S14802   5.538   2.028   7.087 -1.2671  0.4977 -0.2597
  136OSM   H18T14803   5.660   2.125   6.988 -1.7651  1.3618 -0.7383
  136OSM   H18U14804   5.620   1.944   6.947  2.4474 -0.2226  1.5391
  136OSM    C1F14805   3.921   2.344   6.427 -1.0559 -0.1765 -1.0982
  136OSM     OF14806   3.867   2.239   6.394 -0.4395 -0.1133 -0.0539
  136OSM    C2F14807   3.877   2.395   6.555 -0.2048 -0.3413 -0.7172
  136OSM    H2F14808   3.821   2.315   6.609  0.2184 -0.2135 -0.0800
  136OSM    H2G14809   3.796   2.472   6.550  0.9942  0.8996 -1.8961
  136OSM    C3F14810   3.990   2.447   6.644 -0.4216 -0.6266 -0.6168
  136OSM    H3F14811   3.945   2.501   6.731  0.8083  2.2823 -1.6605
  136OSM    H3G14812   4.042   2.531   6.593 -1.4852 -1.7042 -3.6677
  136OSM    C4F14813   4.106   2.362   6.691  0.4193 -0.4195  0.6479
  136OSM    H4F14814   4.182   2.346   6.612 -0.8784 -0.6554 -0.5996
  136OSM    H4G14815   4.066   2.267   6.732 -0.6272  0.9606  3.0844
  136OSM    C5F14816   4.174   2.424   6.816  0.5529 -0.2177  0.0816
  136OSM    H5F14817   4.112   2.406   6.906  0.0338 -0.2230 -0.2771
  136OSM    H5G14818   4.172   2.534   6.800 -0.7966 -0.3946 -1.1569
  136OSM    C6F14819   4.319   2.371   6.824  0.8262 -0.4122 -0.0745
  136OSM    H6F14820   4.375   2.436   6.754 -0.6726 -0.0018 -0.9511
  136OSM    H6G14821   4.315   2.268   6.783  0.4598 -0.1827 -0.6344
  136OSM    C7F14822   4.388   2.385   6.955  0.2697  0.4361 -1.3172
  136OSM    H7F14823   4.340   2.320   7.032 -0.0429  1.5470 -0.5590
  136OSM    H7G14824   4.381   2.490   6.988 -0.7305 -0.2898  1.0477
  136OSM    C8F14825   4.534   2.352   6.958  0.0276 -0.4011 -0.1488
  136OSM    H8F14826   4.556   2.258   6.902  1.0431 -0.2679  0.0231
  136OSM    H8G14827   4.567   2.323   7.059 -2.0809 -1.7160  0.2344
  136OSM    C9F14828   4.623   2.459   6.907  0.0048  0.4483 -0.5686
  136OSM    H9F14829   4.596   2.504   6.811  2.2981  0.4302 -1.2863
  136OSM   C10F14830   4.733   2.495   6.972 -0.1678 -0.0924  0.3844
  136OSM   H10F14831   4.795   2.557   6.905 -1.2093  1.8388  1.1022
  136OSM   C11F14832   4.800   2.446   7.095  0.0262  0.6593  0.0945
  136OSM   H11F14833   4.895   2.391   7.078  0.0609  0.3664  1.1828
  136OSM   H11G14834   4.732   2.373   7.144  0.0588  0.6748  0.1620
  136OSM   C12F14835   4.835   2.549   7.204 -0.6557  0.4154  0.3703
  136OSM   H12F14836   4.853   2.503   7.303  1.1003 -1.6973 -0.8242
  136OSM   H12G14837   4.749   2.611   7.235  0.2323  1.2507  1.2338
  136OSM   C13F14838   4.964   2.629   7.172 -0.1138  0.3618  0.0721
  136OSM   H13F14839   5.057   2.571   7.155  1.3100  1.8989  2.0853
  136OSM   H13G14840   4.991   2.680   7.267  3.8982 -2.2035  0.5538
  136OSM   C14F14841   4.954   2.738   7.061 -0.5589  0.9293  0.2574
  136OSM   H14F14842   4.862   2.799   7.072 -0.7004  1.0561 -1.3961
  136OSM   H14G14843   4.964   2.691   6.961 -2.9347  0.0004  0.3859
  136OSM   C15F14844   5.084   2.834   7.059  0.5027 -0.0561  0.4600
  136OSM   H15F14845   5.070   2.909   6.979  0.7660  0.2263  0.6741
  136OSM   H15G14846   5.169   2.765   7.040  2.4606  2.0952  1.0236
  136OSM   C16F14847   5.109   2.911   7.194 -0.0603 -0.8068  0.1634
  136OSM   H16F14848   5.206   2.963   7.184  0.7730 -1.9709  1.7510
  136OSM   H16G14849   5.107   2.831   7.271 -0.5498 -1.3736 -0.4213
  136OSM   C17F14850   4.994   3.008   7.230 -0.8100  0.9849 -0.1457
  136OSM   H17F14851   4.924   3.016   7.144 -1.3472  0.4470  0.2340
  136OSM   H17G14852   5.041   3.108   7.240 -0.6785  1.3074 -3.0880
  136OSM   C18F14853   4.922   2.964   7.362  0.4405 -0.8507  0.1415
  136OSM   H18F14854   4.997   2.942   7.441 -0.7446 -1.3756  1.1609
  136OSM   H18G14855   4.862   2.872   7.342 -0.6887 -0.0469 -0.2752
  136OSM   H18H14856   4.858   3.052   7.383  0.6064 -0.0971 -2.2156
  137OSM      N14857   3.089   4.432   6.313  0.3932 -0.0831 -0.5382
  137OSM    C1514858   2.990   4.333   6.266  0.4236  0.4666 -0.4588
  137OSM   H15A14859   2.894   4.379   6.251 -0.2190 -0.0517  1.6535
  137OSM   H15B14860   2.975   4.254   6.338  0.0519  1.1808  0.2675
  137OSM   H15C14861   3.028   4.269   6.188  1.4873 -3.2090  2.7260
  137OSM    C1414862   3.226   4.365   6.345 -0.2982  0.2465 -0.2619
  137OSM   H14A14863   3.252   4.316   6.253 -0.2473  0.3744 -0.3169
  137OSM   H14B14864   3.228   4.292   6.425  0.7331 -0.6927 -1.1134
  137OSM   H14C14865   3.299   4.442   6.366  1.3125 -0.5840 -2.4255
  137OSM    C1314866   3.111   4.525   6.196 -0.2279 -0.3456  0.1442
  137OSM   H13A14867   3.019   4.548   6.145  0.8035  1.3835 -1.0374
  137OSM   H13B14868   3.168   4.479   6.116 -0.4802  1.2932 -1.0276
  137OSM   H13C14869   3.149   4.619   6.233 -0.0056 -0.4297  0.1310
  137OSM    C1214870   3.042   4.515   6.433  0.3725 -0.0696 -0.2959
  137OSM   H12A14871   3.091   4.611   6.430 -0.3577  0.2997 -0.5957
  137OSM   H12B14872   3.082   4.468   6.522  1.2130  0.5123 -0.3608
  137OSM    C1114873   2.887   4.543   6.446  0.2844 -0.2006  0.2436
  137OSM   H11A14874   2.865   4.617   6.525  0.2978 -2.1509  2.1450
  137OSM   H11B14875   2.834   4.449   6.472  0.3804 -0.3541 -0.1005
  137OSM      P14876   2.681   4.565   6.291 -0.3643 -0.0021  0.0533
  137OSM    O1314877   2.647   4.633   6.163 -0.3377  0.0598 -0.2593
  137OSM    O1414878   2.643   4.424   6.303 -0.3618 -0.5233 -0.0432
  137OSM    O1114879   2.610   4.636   6.406 -0.3714 -0.4007 -0.7583
  137OSM    O1214880   2.833   4.586   6.324 -0.4644  0.1466 -0.4698
  137OSM    C1S14881   2.573   4.584   6.533  0.4567  0.2869 -0.3992
  137OSM    H1S14882   2.655   4.599   6.606 -0.1892 -1.0408  0.6344
  137OSM    H1T14883   2.555   4.474   6.530 -0.1664  0.3935 -0.8439
  137OSM     NF14884   2.420   4.604   6.725  0.5969  0.0417 -0.5878
  137OSM    HNF14885   2.344   4.541   6.741  0.3055  0.0619 -1.7561
  137OSM    C2S14886   2.444   4.649   6.589  0.6372 -0.4430  0.2246
  137OSM    H2S14887   2.451   4.760   6.590  0.8784 -0.4596  1.3632
  137OSM    C3S14888   2.318   4.615   6.493  0.5171 -0.2572  0.1511
  137OSM    H3S14889   2.298   4.506   6.499 -0.6649 -0.0819 -0.3460
  137OSM     O314890   2.327   4.644   6.355 -0.2401 -0.1685 -0.3056
  137OSM    HO314891   2.421   4.659   6.339 -0.2058  1.0496  0.8656
  137OSM    C4S14892   2.188   4.685   6.539  0.4035 -0.8286  0.0748
  137OSM    H4S14893   2.184   4.791   6.512  0.4462 -0.6734  0.6599
  137OSM    C5S14894   2.082   4.633   6.609 -0.0683  0.9932 -0.2496
  137OSM    H5S14895   2.075   4.526   6.633 -0.8555  0.9214 -0.7417
  137OSM    C6S14896   1.960   4.714   6.652  0.1277  0.2152 -0.4587
  137OSM    H6S14897   1.881   4.714   6.575  0.5170 -1.0300 -0.8770
  137OSM    H6T14898   1.985   4.822   6.661  1.1082 -0.1463  1.8262
  137OSM    C7S14899   1.893   4.670   6.789  0.1437 -0.5091  0.8117
  137OSM    H7S14900   1.835   4.576   6.774 -1.4666  0.7664 -1.7673
  137OSM    H7T14901   1.816   4.747   6.812 -0.6104 -1.4675  1.6038
  137OSM    C8S14902   1.997   4.661   6.897  0.1225  0.5622 -0.1192
  137OSM    H8S14903   2.052   4.757   6.896 -0.3925  0.9770  2.3956
  137OSM    H8T14904   2.061   4.572   6.883 -0.6798  0.1303 -1.2029
  137OSM    C9S14905   1.938   4.638   7.039 -0.2888 -0.6859  0.6551
  137OSM    H9S14906   1.869   4.553   7.024  1.4791 -1.7963 -1.8949
  137OSM    H9T14907   1.876   4.722   7.078  0.3082  0.7656 -1.3457
  137OSM   C10S14908   2.041   4.610   7.144  0.3630 -0.0891 -0.1773
  137OSM   H10S14909   2.136   4.663   7.124  0.6499 -1.2433 -2.1351
  137OSM   H10T14910   2.065   4.502   7.135 -1.9363 -0.8102  1.3636
  137OSM   C11S14911   1.990   4.643   7.285  0.0621 -0.6025  0.4011
  137OSM   H11S14912   1.899   4.581   7.300 -0.1265 -0.3800  0.1741
  137OSM   H11T14913   1.950   4.746   7.286 -0.7210 -0.8428 -1.8068
  137OSM   C12S14914   2.111   4.613   7.382  0.5991  0.0873 -0.5226
  137OSM   H12S14915   2.187   4.693   7.372 -0.4019  1.0122 -0.7963
  137OSM   H12T14916   2.161   4.520   7.345 -0.6548 -0.8196  0.0153
  137OSM   C13S14917   2.074   4.588   7.527  0.6332  0.4640  0.3746
  137OSM   H13S14918   2.002   4.504   7.521  0.2495  0.7323  1.1763
  137OSM   H13T14919   2.017   4.672   7.571 -0.3477  0.9231 -1.6607
  137OSM   C14S14920   2.193   4.561   7.621  0.3891  0.6360  0.7183
  137OSM   H14S14921   2.255   4.651   7.642  1.4318 -0.1358  0.9933
  137OSM   H14T14922   2.255   4.484   7.572  2.3316  1.7226  1.3660
  137OSM   C15S14923   2.139   4.507   7.756  0.0688  0.4134  0.0377
  137OSM   H15S14924   2.218   4.447   7.806 -2.3674 -0.3625  3.2205
  137OSM   H15T14925   2.060   4.431   7.737  0.4725 -0.1632  0.6193
  137OSM   C16S14926   2.096   4.610   7.860  0.7537  0.0715 -0.0243
  137OSM   H16S14927   2.017   4.679   7.823  1.9446 -0.1335 -3.2922
  137OSM   H16T14928   2.187   4.673   7.868  0.9026 -0.3084  1.5126
  137OSM   C17S14929   2.059   4.544   7.988 -0.0277  0.1772 -0.3320
  137OSM   H17S14930   2.147   4.498   8.038 -0.7979  0.6428  1.5109
  137OSM   H17T14931   1.991   4.460   7.962 -0.2627 -0.5332  2.2862
  137OSM   C18S14932   1.971   4.628   8.080 -0.2443  0.0547 -0.0404
  137OSM   H18S14933   1.936   4.569   8.167  2.2529  1.3758  2.0037
  137OSM   H18T14934   1.892   4.671   8.015  0.0679  1.4697  0.4871
  137OSM   H18U14935   2.029   4.712   8.124  1.1829  0.8305 -3.1244
  137OSM    C1F14936   2.497   4.641   6.832  0.4638  0.6880 -0.3454
  137OSM     OF14937   2.576   4.728   6.812  0.0477 -0.1317 -0.1231
  137OSM    C2F14938   2.485   4.575   6.966  0.1739 -0.7075  0.0780
  137OSM    H2F14939   2.547   4.482   6.975  0.1686 -0.7723 -0.5414
  137OSM    H2G14940   2.379   4.546   6.981 -0.0411  0.5834  1.2997
  137OSM    C3F14941   2.515   4.664   7.091  0.1598  0.4775  0.2350
  137OSM    H3F14942   2.456   4.757   7.075 -0.3355  0.0490 -0.4483
  137OSM    H3G14943   2.623   4.692   7.088  0.2727  0.0781  0.5455
  137OSM    C4F14944   2.480   4.589   7.217 -0.7122  0.3267  0.1274
  137OSM    H4F14945   2.499   4.481   7.199  0.2548  0.2300  1.5423
  137OSM    H4G14946   2.372   4.602   7.239 -0.6626  1.5079 -0.2528
  137OSM    C5F14947   2.554   4.644   7.342 -0.0490 -0.5433  0.4989
  137OSM    H5F14948   2.543   4.754   7.343 -0.9784 -0.6299  0.7893
  137OSM    H5G14949   2.660   4.617   7.320 -0.0490 -1.1782  1.2242
  137OSM    C6F14950   2.503   4.573   7.475 -0.5518 -0.8648  0.6035
  137OSM    H6F14951   2.522   4.464   7.466 -0.2253 -0.7162 -0.7091
  137OSM    H6G14952   2.397   4.605   7.489  0.3935  3.5571 -0.6875
  137OSM    C7F14953   2.597   4.616   7.595 -0.2017 -0.4814 -0.0520
  137OSM    H7F14954   2.576   4.725   7.588 -3.2270 -1.0821 -2.3404
  137OSM    H7G14955   2.705   4.611   7.571 -0.7328 -3.3070 -2.3586
  137OSM    C8F14956   2.562   4.552   7.727  0.4481 -0.0444 -0.0710
  137OSM    H8F14957   2.595   4.446   7.730  0.9227  0.0998 -0.0506
  137OSM    H8G14958   2.454   4.551   7.749 -0.1021  0.0628 -2.4974
  137OSM    C9F14959   2.638   4.624   7.838 -0.2948  1.0013 -0.3894
  137OSM    H9F14960   2.704   4.698   7.790 -1.4889  1.4093 -1.4655
  137OSM   C10F14961   2.626   4.599   7.966  0.3753  0.9183  0.6203
  137OSM   H10F14962   2.698   4.647   8.034 -0.0825  1.0459  1.0178
  137OSM   C11F14963   2.533   4.499   8.034  0.6224  0.4797  0.5396
  137OSM   H11F14964   2.467   4.446   7.962 -0.5883 -2.0168  3.2816
  137OSM   H11G14965   2.467   4.558   8.101  2.4850  1.4368  1.6276
  137OSM   C12F14966   2.600   4.391   8.117  0.4070  0.2093  0.5399
  137OSM   H12F14967   2.679   4.340   8.058  1.5570  1.8834  0.5727
  137OSM   H12G14968   2.526   4.314   8.150  0.4327 -0.1767 -0.2883
  137OSM   C13F14969   2.666   4.449   8.244 -0.9837  0.0370 -0.3746
  137OSM   H13F14970   2.682   4.557   8.220  0.8823 -0.7075 -3.0071
  137OSM   H13G14971   2.766   4.403   8.257 -0.6098  0.9046 -0.0986
  137OSM   C14F14972   2.591   4.434   8.372  0.5311  0.7015 -0.1425
  137OSM   H14F14973   2.672   4.445   8.448  0.4365 -0.9532  0.2264
  137OSM   H14G14974   2.555   4.330   8.382  1.0455  0.4650 -0.6795
  137OSM   C15F14975   2.475   4.540   8.395  0.0624 -0.8085 -0.4868
  137OSM   H15F14976   2.413   4.523   8.305 -0.2462 -0.7170 -0.2900
  137OSM   H15G14977   2.513   4.644   8.404 -4.3874  1.1543 -1.8106
  137OSM   C16F14978   2.394   4.510   8.523 -0.1802 -0.1642 -0.0485
  137OSM   H16F14979   2.461   4.515   8.611  0.5547 -1.7702 -0.4793
  137OSM   H16G14980   2.361   4.404   8.512  2.2911 -0.9291 -0.5677
  137OSM   C17F14981   2.269   4.605   8.532  0.5074  0.2774 -0.5317
  137OSM   H17F14982   2.204   4.608   8.443  1.3386  1.7712 -1.1219
  137OSM   H17G14983   2.307   4.709   8.540  1.0628  0.1145 -0.9620
  137OSM   C18F14984   2.182   4.562   8.653  0.0966 -0.8826  0.4374
  137OSM   H18F14985   2.239   4.589   8.744  0.1026  2.2209 -0.3490
  137OSM   H18G14986   2.165   4.453   8.647 -0.7363 -0.7004 -1.6059
  137OSM   H18H14987   2.084   4.614   8.663 -0.3003 -1.2652 -1.1981
  138OSM      N14988   2.221   1.528   5.970 -0.1555 -0.3594  0.1404
  138OSM    C1514989   2.236   1.465   6.102  0.3538  0.6431 -0.1547
  138OSM   H15A14990   2.185   1.515   6.183  0.0927 -0.7963  0.5875
  138OSM   H15B14991   2.342   1.463   6.125  0.0629  0.1723  1.2249
  138OSM   H15C14992   2.197   1.365   6.096 -0.3509  0.8634  0.5991
  138OSM    C1414993   2.284   1.436   5.877  0.1655 -0.8258 -0.3236
  138OSM   H14A14994   2.223   1.348   5.863 -2.5198  0.6344  1.2332
  138OSM   H14B14995   2.376   1.401   5.921 -0.4191 -0.0077  1.6930
  138OSM   H14C14996   2.306   1.475   5.779  0.7178 -0.7597 -0.1765
  138OSM    C1314997   2.074   1.539   5.930 -0.0095 -0.3814  0.2329
  138OSM   H13A14998   2.032   1.444   5.898 -2.6391  0.6614  0.3476
  138OSM   H13B14999   2.063   1.592   5.837 -1.7608 -1.5946 -0.3025
  138OSM   H13C15000   2.014   1.594   6.001  1.1909  0.5021  0.5972
  138OSM    C1215001   2.292   1.660   5.961 -0.3390 -1.1347  0.3286
  138OSM   H12A15002   2.259   1.719   5.876 -2.4834 -0.9117  1.2627
  138OSM   H12B15003   2.400   1.652   5.961 -0.1564  0.2907 -2.0332
  138OSM    C1115004   2.256   1.760   6.080  0.0224 -1.0274  0.6821
  138OSM   H11A15005   2.266   1.710   6.179  1.3969 -1.2894  0.4367
  138OSM   H11B15006   2.154   1.803   6.073  1.3308  2.2023 -0.7041
  138OSM      P15007   2.500   1.864   6.087  0.0401  0.0347  0.6357
  138OSM    O1315008   2.554   1.761   5.987 -0.1606 -0.3194  0.1917
  138OSM    O1415009   2.552   2.003   6.084 -0.2930  0.1532  0.8064
  138OSM    O1115010   2.520   1.811   6.232  0.8487 -0.3844  0.7302
  138OSM    O1215011   2.343   1.876   6.072  0.0203 -0.1620  0.0798
  138OSM    C1S15012   2.476   1.883   6.348  0.2257  0.0348  0.2641
  138OSM    H1S15013   2.365   1.877   6.339  0.1934  1.8907 -1.2327
  138OSM    H1T15014   2.505   1.990   6.342  1.0204 -0.2326 -0.8569
  138OSM     NF15015   2.454   1.910   6.580 -0.3021 -0.1162  0.0849
  138OSM    HNF15016   2.491   1.999   6.606 -0.8997  0.3462 -0.6218
  138OSM    C2S15017   2.524   1.832   6.481  0.9351 -0.1168 -0.2719
  138OSM    H2S15018   2.498   1.724   6.480  0.8747 -0.1128 -2.0099
  138OSM    C3S15019   2.679   1.834   6.497  0.4707  0.1861  0.0591
  138OSM    H3S15020   2.716   1.938   6.507 -0.3318  0.5449 -0.5582
  138OSM     O315021   2.754   1.790   6.380 -0.1526  0.2852  0.4604
  138OSM    HO315022   2.692   1.811   6.310 -2.6493 -0.3026  2.3955
  138OSM    C4S15023   2.704   1.763   6.625  0.3423 -0.0798  0.2872
  138OSM    H4S15024   2.713   1.830   6.711 -1.8882  0.9453 -0.2202
  138OSM    C5S15025   2.732   1.636   6.644  0.0997 -0.2513 -0.1961
  138OSM    H5S15026   2.717   1.575   6.553 -0.7085 -0.6577  0.1956
  138OSM    C6S15027   2.749   1.566   6.772 -0.2366 -0.7407  0.1331
  138OSM    H6S15028   2.808   1.635   6.836  1.4345 -2.6547  0.7668
  138OSM    H6T15029   2.808   1.472   6.760  1.3439  0.1086  0.8323
  138OSM    C7S15030   2.616   1.543   6.840  0.6025  0.7854  0.0289
  138OSM    H7S15031   2.561   1.474   6.772 -0.2790  0.0858  1.4170
  138OSM    H7T15032   2.551   1.633   6.841 -1.6696 -0.7824 -0.3124
  138OSM    C8S15033   2.607   1.477   6.985 -0.1173 -0.6861  0.5044
  138OSM    H8S15034   2.685   1.399   6.997  0.0690 -0.4206  1.0772
  138OSM    H8T15035   2.507   1.431   6.994 -0.3909 -0.1194  0.4341
  138OSM    C9S15036   2.637   1.584   7.090  0.5801  0.3544  0.1835
  138OSM    H9S15037   2.580   1.678   7.070 -0.1612 -0.5044 -2.0091
  138OSM    H9T15038   2.746   1.605   7.089  0.4862  1.1037  2.0434
  138OSM   C10S15039   2.588   1.528   7.228  0.2726  0.2929  0.4948
  138OSM   H10S15040   2.617   1.424   7.255  0.0593  0.5688  1.8798
  138OSM   H10T15041   2.478   1.519   7.223  0.4458 -3.8017  0.6394
  138OSM   C11S15042   2.631   1.608   7.345 -0.1680 -0.4018 -0.2159
  138OSM   H11S15043   2.610   1.717   7.332 -0.7605 -0.4567  0.2488
  138OSM   H11T15044   2.741   1.595   7.351 -0.0631  1.1144  2.3620
  138OSM   C12S15045   2.564   1.561   7.471  0.2351  0.0819  0.4788
  138OSM   H12S15046   2.608   1.463   7.499 -0.3006 -0.0059  1.0445
  138OSM   H12T15047   2.460   1.535   7.441  1.4864 -3.0726 -1.6206
  138OSM   C13S15048   2.572   1.656   7.587 -0.3039 -0.6390 -0.1136
  138OSM   H13S15049   2.522   1.750   7.558  2.8355  0.9500 -0.7649
  138OSM   H13T15050   2.680   1.680   7.599 -0.3296  0.3458 -1.5950
  138OSM   C14S15051   2.513   1.596   7.721  0.2786  0.4586 -0.0811
  138OSM   H14S15052   2.552   1.493   7.737 -0.9980 -0.5498 -2.8081
  138OSM   H14T15053   2.409   1.564   7.700  0.7101 -1.9424  1.1041
  138OSM   C15S15054   2.537   1.684   7.844  1.2115  0.5747 -0.3921
  138OSM   H15S15055   2.518   1.788   7.807  0.6535  0.1897 -1.2353
  138OSM   H15T15056   2.645   1.686   7.867  0.6969  1.9427  2.3161
  138OSM   C16S15057   2.460   1.650   7.975  0.0477  0.2606  0.5343
  138OSM   H16S15058   2.490   1.545   7.996 -2.2682 -1.6742 -4.3543
  138OSM   H16T15059   2.352   1.645   7.949  0.4806 -1.3205 -1.1938
  138OSM   C17S15060   2.496   1.736   8.094 -0.4724 -0.5078  0.6074
  138OSM   H17S15061   2.510   1.840   8.059  0.2092 -0.5418  0.7617
  138OSM   H17T15062   2.600   1.708   8.123  0.0168  2.6971  2.3988
  138OSM   C18S15063   2.416   1.728   8.229  0.0820 -0.2958  0.0440
  138OSM   H18S15064   2.320   1.783   8.217 -0.4051 -1.4053 -1.5729
  138OSM   H18T15065   2.484   1.768   8.307  1.7416 -2.1770 -0.3286
  138OSM   H18U15066   2.398   1.621   8.253 -1.8562  0.1002  0.4759
  138OSM    C1F15067   2.335   1.864   6.615  1.0113 -0.6553  0.6147
  138OSM     OF15068   2.281   1.771   6.558  0.3046 -0.0843 -0.3485
  138OSM    C2F15069   2.250   1.934   6.721  0.1446  0.3520 -0.2124
  138OSM    H2F15070   2.152   1.954   6.673  0.1963 -1.1008 -0.9850
  138OSM    H2G15071   2.292   2.034   6.744 -1.9820  0.9937  1.1536
  138OSM    C3F15072   2.233   1.873   6.865  0.9679 -0.4255  0.1651
  138OSM    H3F15073   2.213   1.764   6.867 -0.5938 -0.1647 -0.3512
  138OSM    H3G15074   2.147   1.920   6.916  0.6882 -0.6276 -0.1160
  138OSM    C4F15075   2.358   1.912   6.942  0.6282 -0.3026  0.0556
  138OSM    H4F15076   2.374   2.022   6.931  0.3915 -0.1760  0.9481
  138OSM    H4G15077   2.439   1.848   6.901 -1.6623 -3.3355 -0.0351
  138OSM    C5F15078   2.351   1.873   7.090 -0.3778 -0.0924  0.2495
  138OSM    H5F15079   2.454   1.889   7.130 -0.0438 -1.1779 -0.1395
  138OSM    H5G15080   2.328   1.765   7.098 -0.7245  0.1311  3.6548
  138OSM    C6F15081   2.251   1.957   7.177  0.3144 -0.4671 -0.8093
  138OSM    H6F15082   2.145   1.943   7.146  1.0415 -1.3539 -3.1057
  138OSM    H6G15083   2.286   2.060   7.156  3.6138 -1.1773  0.6020
  138OSM    C7F15084   2.253   1.923   7.327  0.1147 -0.3463 -0.2053
  138OSM    H7F15085   2.222   1.817   7.339  0.0576 -0.4193 -0.9582
  138OSM    H7G15086   2.167   1.982   7.365 -0.8652 -1.9729  0.1962
  138OSM    C8F15087   2.388   1.940   7.406  0.0017  0.2120  0.0488
  138OSM    H8F15088   2.472   1.883   7.361  1.3290 -0.3286  2.9802
  138OSM    H8G15089   2.375   1.908   7.512  0.2540 -0.5383 -0.1399
  138OSM    C9F15090   2.412   2.094   7.409  0.0954  0.0011  0.3797
  138OSM    H9F15091   2.449   2.130   7.311 -0.7629 -0.3399 -0.0818
  138OSM   C10F15092   2.386   2.172   7.513  0.5485  0.2828 -0.2376
  138OSM   H10F15093   2.399   2.281   7.516  0.6521  0.3139  3.3252
  138OSM   C11F15094   2.333   2.131   7.652 -0.1061 -0.4077  0.1200
  138OSM   H11F15095   2.322   2.022   7.670 -0.8251 -0.0666  1.9893
  138OSM   H11G15096   2.233   2.176   7.671  0.6547  0.4532  2.4645
  138OSM   C12F15097   2.412   2.185   7.772  0.0827  1.1260  0.0159
  138OSM   H12F15098   2.356   2.180   7.868 -3.8030  0.5334 -2.0665
  138OSM   H12G15099   2.423   2.295   7.759 -2.9332  1.8644  2.4726
  138OSM   C13F15100   2.545   2.117   7.796 -0.3089 -0.2311 -0.2011
  138OSM   H13F15101   2.589   2.110   7.694 -1.0697  0.8744 -0.6180
  138OSM   H13G15102   2.531   2.011   7.829  0.6883 -0.4271 -0.3818
  138OSM   C14F15103   2.633   2.192   7.895  0.2498 -0.4400 -0.0682
  138OSM   H14F15104   2.599   2.167   7.998  0.5579  1.9186  0.6697
  138OSM   H14G15105   2.627   2.303   7.888  0.3637 -0.4708 -0.7205
  138OSM   C15F15106   2.781   2.154   7.893 -0.5216  0.6417  0.5021
  138OSM   H15F15107   2.811   2.192   7.793  1.2510 -1.0432  0.3184
  138OSM   H15G15108   2.811   2.047   7.890  1.4000  1.1386 -2.2750
  138OSM   C16F15109   2.859   2.215   8.010 -0.6181 -0.1931  0.7563
  138OSM   H16F15110   2.965   2.183   8.005 -0.4740  0.2033  1.1256
  138OSM   H16G15111   2.822   2.180   8.109 -0.0188 -2.3527  0.2541
  138OSM   C17F15112   2.843   2.370   8.013 -0.3333  0.5116  0.3333
  138OSM   H17F15113   2.736   2.381   8.042 -0.3246  0.0022  0.5725
  138OSM   H17G15114   2.867   2.408   7.912  1.0370  0.7109  0.7162
  138OSM   C18F15115   2.921   2.441   8.125 -0.0499 -0.2104 -0.3571
  138OSM   H18F15116   3.030   2.420   8.121  0.2188  0.9009  0.4397
  138OSM   H18G15117   2.877   2.428   8.226 -0.3469 -0.8123 -0.5606
  138OSM   H18H15118   2.913   2.551   8.113  1.9265  0.4533  2.9691
  139OSM      N15119   1.538   0.484   6.009  0.1023  0.3494 -0.6222
  139OSM    C1515120   1.677   0.466   6.058  0.9493 -0.8577  0.3074
  139OSM   H15A15121   1.746   0.444   5.978  0.6424 -2.1843  0.3683
  139OSM   H15B15122   1.676   0.384   6.130  0.6721  0.2203  1.5704
  139OSM   H15C15123   1.715   0.551   6.112  0.5183 -1.7624  2.1273
  139OSM    C1415124   1.529   0.609   5.922  0.2773  0.4001 -1.0402
  139OSM   H14A15125   1.530   0.700   5.981  1.6826 -0.5316  0.4613
  139OSM   H14B15126   1.431   0.609   5.878 -0.9578  0.6085  1.4941
  139OSM   H14C15127   1.610   0.616   5.852  0.9849 -0.1983 -0.3006
  139OSM    C1315128   1.505   0.358   5.926  0.2028 -1.2322  0.3497
  139OSM   H13A15129   1.524   0.265   5.978 -0.8565 -3.2704 -2.5990
  139OSM   H13B15130   1.561   0.353   5.834 -0.5538  0.4327 -0.2398
  139OSM   H13C15131   1.401   0.357   5.895 -0.3519  3.2658  1.3875
  139OSM    C1215132   1.438   0.488   6.125 -0.2032 -0.3296  0.1176
  139OSM   H12A15133   1.430   0.393   6.177  0.7497 -1.3054 -1.4340
  139OSM   H12B15134   1.344   0.519   6.083 -0.0747  0.1532  0.1863
  139OSM    C1115135   1.470   0.603   6.230  0.2291  0.4364 -0.2798
  139OSM   H11A15136   1.575   0.597   6.266 -0.9107  1.5708  3.6925
  139OSM   H11B15137   1.405   0.586   6.318 -0.3528 -3.1699 -1.2536
  139OSM      P15138   1.348   0.841   6.201  0.0596 -0.0990 -0.0749
  139OSM    O1315139   1.377   0.968   6.134  0.2569 -0.4764 -0.1796
  139OSM    O1415140   1.215   0.790   6.173 -0.5044  0.0597 -0.9063
  139OSM    O1115141   1.361   0.858   6.358 -0.8679 -0.0347  0.3780
  139OSM    O1215142   1.454   0.733   6.174 -0.0271  0.0694  0.1669
  139OSM    C1S15143   1.487   0.887   6.415  0.6374  0.0395 -0.7090
  139OSM    H1S15144   1.518   0.989   6.383 -0.4662  0.7037  0.2492
  139OSM    H1T15145   1.563   0.813   6.383 -0.3323 -1.5274  0.4725
  139OSM     NF15146   1.606   0.969   6.618  0.0034  0.0347  0.2569
  139OSM    HNF15147   1.676   0.902   6.641 -1.0226 -0.6296  1.5905
  139OSM    C2S15148   1.483   0.903   6.572  0.7024  0.1025  0.3009
  139OSM    H2S15149   1.396   0.965   6.604  0.2574 -0.8139  0.9193
  139OSM    C3S15150   1.459   0.762   6.627  0.4167  0.6031 -0.0253
  139OSM    H3S15151   1.546   0.698   6.600 -1.6566 -2.4572  0.0167
  139OSM     O315152   1.353   0.701   6.568 -0.3463  0.5213  0.1345
  139OSM    HO315153   1.336   0.748   6.486 -0.3061 -0.9448 -0.7683
  139OSM    C4S15154   1.442   0.770   6.773  0.0628  0.6707  0.3599
  139OSM    H4S15155   1.532   0.735   6.826 -0.5350 -2.0438 -0.2945
  139OSM    C5S15156   1.329   0.809   6.842 -0.1855  0.7497 -0.9496
  139OSM    H5S15157   1.234   0.814   6.787  0.0557 -0.1792 -1.4862
  139OSM    C6S15158   1.309   0.821   6.988  0.2037 -0.2550 -0.6226
  139OSM    H6S15159   1.264   0.723   7.016  0.1468 -0.3143 -0.9085
  139OSM    H6T15160   1.234   0.896   7.019  0.2337 -0.8185  0.8883
  139OSM    C7S15161   1.440   0.849   7.075  0.2295 -0.1306 -0.6128
  139OSM    H7S15162   1.481   0.939   7.025  0.9837 -1.0821 -1.7347
  139OSM    H7T15163   1.511   0.767   7.055  1.6755  0.8828  0.1321
  139OSM    C8S15164   1.408   0.862   7.222  0.0432  0.2209  0.1445
  139OSM    H8S15165   1.385   0.762   7.264  2.5418 -0.1685  0.7306
  139OSM    H8T15166   1.317   0.923   7.242  0.0224 -0.2085  1.4886
  139OSM    C9S15167   1.526   0.920   7.318  0.5568  0.0309  0.4554
  139OSM    H9S15168   1.579   0.996   7.257  1.8504 -0.2878  1.1486
  139OSM    H9T15169   1.602   0.844   7.345  4.1441  2.0733 -2.9113
  139OSM   C10S15170   1.470   0.982   7.447  0.0780 -0.7415 -0.6662
  139OSM   H10S15171   1.427   1.080   7.418 -3.5159 -1.4436  1.6720
  139OSM   H10T15172   1.556   0.999   7.515  1.0338 -1.2868 -1.7045
  139OSM   C11S15173   1.359   0.904   7.520 -0.5599  0.4968 -0.2477
  139OSM   H11S15174   1.398   0.802   7.541 -0.9032  0.5766  0.8113
  139OSM   H11T15175   1.270   0.895   7.454 -2.4472  1.5322  1.9956
  139OSM   C12S15176   1.311   0.971   7.658 -0.1423  0.3601  0.3123
  139OSM   H12S15177   1.211   0.929   7.680  0.5224 -1.8364 -0.5651
  139OSM   H12T15178   1.307   1.081   7.641 -1.5590  0.2253 -0.3396
  139OSM   C13S15179   1.381   0.947   7.789 -0.0520 -0.0759  0.2132
  139OSM   H13S15180   1.471   1.013   7.794 -2.0010  2.7979 -0.0141
  139OSM   H13T15181   1.423   0.846   7.807  0.9369 -0.4546 -3.4536
  139OSM   C14S15182   1.303   0.983   7.911  0.3216 -0.2886  0.1228
  139OSM   H14S15183   1.199   0.951   7.932  0.0931  0.4534  0.1550
  139OSM   H14T15184   1.272   1.089   7.899  2.4667  0.6456  2.0555
  139OSM   C15S15185   1.385   0.968   8.041  0.7401  0.5563 -0.5090
  139OSM   H15S15186   1.477   1.031   8.038  0.6450  0.7531  0.4549
  139OSM   H15T15187   1.418   0.862   8.048 -0.1238  0.2274 -1.2281
  139OSM   C16S15188   1.315   1.011   8.165 -0.1618 -0.1385 -0.5413
  139OSM   H16S15189   1.214   0.969   8.181 -1.5833  3.0615 -0.3814
  139OSM   H16T15190   1.297   1.119   8.146  0.5870  0.1198  0.1679
  139OSM   C17S15191   1.390   0.984   8.301  1.2739 -0.0104  0.0941
  139OSM   H17S15192   1.494   1.024   8.298  0.6486  1.6562 -0.4754
  139OSM   H17T15193   1.395   0.875   8.323 -0.9582 -0.2548 -0.4250
  139OSM   C18S15194   1.317   1.052   8.411  0.0011 -0.2424  0.1532
  139OSM   H18S15195   1.339   1.159   8.427  1.2206 -0.3954 -0.3372
  139OSM   H18T15196   1.349   1.020   8.512 -0.3124  1.3759  0.7969
  139OSM   H18U15197   1.207   1.063   8.402  0.0989  0.4090 -0.3608
  139OSM    C1F15198   1.619   1.100   6.598 -0.7584 -0.3867  0.0522
  139OSM     OF15199   1.516   1.173   6.601  0.7873 -0.0473  0.4379
  139OSM    C2F15200   1.754   1.161   6.586  0.5057 -0.2577  0.1095
  139OSM    H2F15201   1.817   1.127   6.501 -0.0499 -1.1570  0.0378
  139OSM    H2G15202   1.797   1.127   6.683 -0.1951  0.0736  0.5402
  139OSM    C3F15203   1.758   1.316   6.555  0.0915 -0.3508  0.1233
  139OSM    H3F15204   1.685   1.377   6.611  1.2891  0.7599  0.5331
  139OSM    H3G15205   1.723   1.341   6.453  0.8086 -1.5940 -0.4594
  139OSM    C4F15206   1.891   1.379   6.562 -0.6148 -0.0791  0.6922
  139OSM    H4F15207   1.883   1.486   6.532  0.9851  0.0755  0.7184
  139OSM    H4G15208   1.969   1.326   6.503 -0.4090 -0.2621  1.1275
  139OSM    C5F15209   1.936   1.382   6.713  0.1103 -0.9783  0.3058
  139OSM    H5F15210   1.956   1.280   6.753  1.6026 -1.2588 -1.0372
  139OSM    H5G15211   1.854   1.432   6.768 -0.8982 -0.3585 -1.6673
  139OSM    C6F15212   2.069   1.458   6.728 -0.1252 -0.8581 -0.4039
  139OSM    H6F15213   2.050   1.567   6.723  3.1318 -0.1449  0.3897
  139OSM    H6G15214   2.144   1.417   6.657  0.7801  2.7002 -1.7144
  139OSM    C7F15215   2.143   1.429   6.864  0.5382 -0.2826  0.9169
  139OSM    H7F15216   2.232   1.495   6.869  0.8283 -0.4666 -0.9286
  139OSM    H7G15217   2.165   1.320   6.858 -2.6837 -0.9676 -0.9563
  139OSM    C8F15218   2.054   1.443   6.995  0.1799  0.2333 -0.2553
  139OSM    H8F15219   2.115   1.398   7.077  0.4118  0.2631 -0.4097
  139OSM    H8G15220   1.956   1.393   6.981  0.6834 -1.3324  1.4346
  139OSM    C9F15221   2.030   1.591   7.021 -0.3709 -0.0138  0.8430
  139OSM    H9F15222   2.034   1.655   6.931 -4.0042 -4.0060 -2.6136
  139OSM   C10F15223   1.982   1.656   7.126 -0.1434  0.1318 -0.9145
  139OSM   H10F15224   1.980   1.765   7.140  0.1255  0.3490 -2.3882
  139OSM   C11F15225   1.937   1.580   7.248 -0.3471 -0.0045  0.7608
  139OSM   H11F15226   1.972   1.475   7.241  1.1242  0.3092  2.5373
  139OSM   H11G15227   1.828   1.585   7.270 -1.2467 -1.0945 -2.8827
  139OSM   C12F15228   2.017   1.635   7.363  0.1988 -0.5878  0.5061
  139OSM   H12F15229   1.989   1.742   7.371 -2.6635 -1.0224 -1.8605
  139OSM   H12G15230   2.126   1.623   7.348  0.1182  0.5956 -1.4022
  139OSM   C13F15231   1.973   1.561   7.492  0.2065 -0.1189 -0.3986
  139OSM   H13F15232   2.007   1.455   7.486 -1.1513 -0.6479  0.6453
  139OSM   H13G15233   1.863   1.576   7.496 -0.1359 -1.9796 -1.6964
  139OSM   C14F15234   2.041   1.627   7.622 -0.2215  0.4218 -0.4410
  139OSM   H14F15235   1.994   1.725   7.646  0.9766  0.4489  2.1130
  139OSM   H14G15236   2.151   1.633   7.611  0.1139 -1.9729  0.9783
  139OSM   C15F15237   2.018   1.537   7.744 -0.6935 -0.1438 -0.7147
  139OSM   H15F15238   2.064   1.438   7.727 -0.2810 -0.5301  2.1858
  139OSM   H15G15239   1.919   1.513   7.787  1.2773 -5.2957  1.8355
  139OSM   C16F15240   2.094   1.605   7.859  1.0976  0.1651 -0.0024
  139OSM   H16F15241   2.042   1.702   7.873 -1.5935 -0.9936 -1.0878
  139OSM   H16G15242   2.198   1.622   7.826  1.2473 -0.9398 -0.1664
  139OSM   C17F15243   2.077   1.523   7.990  0.4041  0.1608  0.3689
  139OSM   H17F15244   2.153   1.442   7.991  0.3333  0.1002  0.7898
  139OSM   H17G15245   1.979   1.471   7.980  0.9253 -0.8289  0.2442
  139OSM   C18F15246   2.082   1.605   8.115  0.0156  0.2384  0.2126
  139OSM   H18F15247   2.011   1.689   8.125  0.1021  0.0871  2.8235
  139OSM   H18G15248   2.186   1.644   8.116  0.2800 -0.2903 -1.8117
  139OSM   H18H15249   2.057   1.550   8.209 -0.7872  0.8255  0.3574
  140OSM      N15250   3.125   5.481   6.332  0.0612 -0.0144  0.3537
  140OSM    C1515251   3.032   5.577   6.254 -0.2626  0.8146 -0.0152
  140OSM   H15A15252   2.957   5.515   6.207 -0.9845  0.6643  1.3075
  140OSM   H15B15253   3.092   5.614   6.172  0.4737  1.8367  0.9460
  140OSM   H15C15254   2.985   5.647   6.321  0.8252 -0.7867  2.5598
  140OSM    C1415255   3.179   5.373   6.237 -0.2415 -0.0869 -0.4492
  140OSM   H14A15256   3.184   5.421   6.140 -0.1952  0.4532 -0.1808
  140OSM   H14B15257   3.112   5.288   6.234 -0.2617 -0.1232  0.5762
  140OSM   H14C15258   3.279   5.334   6.248  0.6979  2.4994  0.9593
  140OSM    C1315259   3.233   5.551   6.392  0.0243 -0.1457  0.3223
  140OSM   H13A15260   3.311   5.488   6.433  1.0078  1.0246  0.3322
  140OSM   H13B15261   3.205   5.624   6.467  2.6133  1.2352  0.0702
  140OSM   H13C15262   3.287   5.611   6.320  0.3026 -2.5335 -1.5676
  140OSM    C1215263   3.044   5.409   6.442 -0.1657 -0.5653  0.2786
  140OSM   H12A15264   3.015   5.482   6.516 -0.8013  0.2974 -0.7877
  140OSM   H12B15265   3.109   5.347   6.501  1.9279 -0.0225 -1.3420
  140OSM    C1115266   2.928   5.322   6.388  0.3911 -0.1271  0.0687
  140OSM   H11A15267   2.867   5.375   6.313 -0.3918 -1.0829 -0.0024
  140OSM   H11B15268   2.851   5.326   6.468  1.2153  0.9009  0.8278
  140OSM      P15269   2.989   5.089   6.471  0.1133  0.3965  0.0059
  140OSM    O1315270   3.066   4.965   6.427  0.4206  0.2293 -0.2228
  140OSM    O1415271   3.036   5.162   6.588  1.1988  0.0745 -0.3570
  140OSM    O1115272   2.836   5.052   6.507  0.2498 -0.0052 -0.2743
  140OSM    O1215273   2.976   5.190   6.340 -0.0267 -0.5051 -0.5856
  140OSM    C1S15274   2.828   4.942   6.596 -0.1240  0.2021  0.6093
  140OSM    H1S15275   2.901   4.861   6.572  1.2188  0.5436  3.1452
  140OSM    H1T15276   2.726   4.902   6.579 -0.9608  2.8445 -1.0696
  140OSM     NF15277   2.822   4.864   6.832 -0.6617 -0.0239 -0.6064
  140OSM    HNF15278   2.735   4.817   6.844 -1.2386  0.8969 -1.0958
  140OSM    C2S15279   2.828   4.986   6.750 -0.2892 -0.1216  0.3454
  140OSM    H2S15280   2.921   5.043   6.774  1.2231 -1.7602 -1.2734
  140OSM    C3S15281   2.712   5.074   6.780 -0.0146 -0.1135  0.4059
  140OSM    H3S15282   2.621   5.019   6.750 -0.6727  0.4373  1.3288
  140OSM     O315283   2.709   5.190   6.692 -0.4390 -0.0001 -0.7379
  140OSM    HO315284   2.743   5.150   6.611 -0.4993 -0.4493 -0.5413
  140OSM    C4S15285   2.707   5.130   6.918  0.5883  0.6366 -0.3552
  140OSM    H4S15286   2.768   5.221   6.930  1.0352  0.2977 -0.0408
  140OSM    C5S15287   2.624   5.098   7.019  0.6299  0.5196 -0.1891
  140OSM    H5S15288   2.548   5.021   7.006 -0.9010  2.0429 -0.5807
  140OSM    C6S15289   2.623   5.172   7.152 -0.4226  0.2202  0.2735
  140OSM    H6S15290   2.519   5.163   7.192 -0.8962  1.0789 -0.7249
  140OSM    H6T15291   2.638   5.278   7.123  2.3436 -1.1649 -4.2671
  140OSM    C7S15292   2.723   5.122   7.256 -0.2169  0.9750 -0.1624
  140OSM    H7S15293   2.722   5.191   7.343  0.9039  2.0412 -0.9762
  140OSM    H7T15294   2.819   5.127   7.200 -1.0046  0.4018 -1.6177
  140OSM    C8S15295   2.693   4.973   7.298 -0.2362  0.7450 -0.0927
  140OSM    H8S15296   2.692   4.919   7.201  4.3469  0.3402 -0.1788
  140OSM    H8T15297   2.592   4.962   7.343  0.5230 -1.2595  1.2947
  140OSM    C9S15298   2.800   4.907   7.385  0.6573 -0.0944 -0.2812
  140OSM    H9S15299   2.892   4.885   7.326  1.0779 -0.9229  0.6630
  140OSM    H9T15300   2.758   4.807   7.408 -1.0471  0.3922 -1.1177
  140OSM   C10S15301   2.826   4.984   7.510 -0.3541  0.5787  0.1512
  140OSM   H10S15302   2.731   5.014   7.559  0.0895  0.2223  1.2585
  140OSM   H10T15303   2.876   5.081   7.485  1.6900 -0.5779 -0.4524
  140OSM   C11S15304   2.920   4.911   7.604 -0.9408 -0.2867 -0.5690
  140OSM   H11S15305   3.022   4.910   7.558 -0.2660  1.7404  0.7569
  140OSM   H11T15306   2.886   4.805   7.610 -0.0759 -0.5612 -0.2665
  140OSM   C12S15307   2.937   4.971   7.745  0.4318 -0.3306  0.1736
  140OSM   H12S15308   2.841   4.970   7.800  0.4085 -1.8998  0.1466
  140OSM   H12T15309   2.960   5.079   7.729 -2.5735  0.2482 -0.9333
  140OSM   C13S15310   3.032   4.900   7.839 -0.4581  0.0242 -0.4435
  140OSM   H13S15311   3.129   4.886   7.787 -0.8332 -3.8953 -0.3484
  140OSM   H13T15312   2.995   4.797   7.854  1.3904 -0.4172  1.5329
  140OSM   C14S15313   3.033   4.965   7.981 -0.1366 -0.3830  0.4097
  140OSM   H14S15314   2.931   4.955   8.022 -0.7335 -1.4418 -1.2369
  140OSM   H14T15315   3.056   5.072   7.962  0.4579 -0.4447  0.7597
  140OSM   C15S15316   3.129   4.903   8.077  1.4852  0.5537 -0.8812
  140OSM   H15S15317   3.228   4.896   8.026  0.4141  0.0159 -2.9966
  140OSM   H15T15318   3.109   4.798   8.109  1.6888  0.9906  0.8047
  140OSM   C16S15319   3.137   4.971   8.214 -0.5374  0.0333  0.3690
  140OSM   H16S15320   3.038   4.990   8.260 -0.7856 -0.6725  0.1464
  140OSM   H16T15321   3.175   5.075   8.211  1.2378 -0.6055 -1.4322
  140OSM   C17S15322   3.228   4.896   8.311 -0.1928  0.0253  0.1548
  140OSM   H17S15323   3.242   4.953   8.405  0.4956  0.7303 -0.3615
  140OSM   H17T15324   3.320   4.878   8.252 -1.3210 -1.5430 -1.2447
  140OSM   C18S15325   3.188   4.754   8.353 -0.0084  0.2310  0.2268
  140OSM   H18S15326   3.195   4.685   8.267 -2.0860  1.6690 -1.2094
  140OSM   H18T15327   3.088   4.758   8.401  0.2141 -2.9693  1.1482
  140OSM   H18U15328   3.257   4.711   8.429 -0.9539 -1.5514  0.1169
  140OSM    C1F15329   2.934   4.787   6.845 -0.2971 -0.3884 -0.4450
  140OSM     OF15330   3.039   4.827   6.802  0.2180  0.6780 -0.2774
  140OSM    C2F15331   2.913   4.648   6.887 -0.2783 -0.0049  0.5123
  140OSM    H2F15332   2.934   4.594   6.793  0.3643 -1.1620  1.3013
  140OSM    H2G15333   2.805   4.639   6.912 -1.0175  2.8661 -1.2218
  140OSM    C3F15334   3.017   4.598   6.995 -0.4060 -0.4788 -0.3627
  140OSM    H3F15335   3.108   4.657   6.971 -0.8939  0.2491 -0.4354
  140OSM    H3G15336   3.034   4.489   6.984  0.7349 -0.3813  0.2436
  140OSM    C4F15337   2.976   4.624   7.141  0.1249  0.8387 -0.3645
  140OSM    H4F15338   2.868   4.602   7.135  0.9174 -4.3496  0.0792
  140OSM    H4G15339   2.973   4.733   7.165  0.5451  1.2009 -1.8109
  140OSM    C5F15340   3.060   4.542   7.240  0.1825 -1.0639  0.2101
  140OSM    H5F15341   3.164   4.571   7.215 -0.2997  1.1460  0.5937
  140OSM    H5G15342   3.057   4.434   7.215  1.3513 -1.0686  0.0276
  140OSM    C6F15343   3.008   4.567   7.387 -0.1470  0.3216  0.9762
  140OSM    H6F15344   2.901   4.538   7.388  0.1875 -1.0487 -0.0757
  140OSM    H6G15345   3.022   4.675   7.408  1.4121  0.1236  1.0763
  140OSM    C7F15346   3.096   4.494   7.495  0.1532 -0.2536  0.5248
  140OSM    H7F15347   3.199   4.509   7.457  1.3030 -1.7352  2.8149
  140OSM    H7G15348   3.068   4.386   7.496  0.3609 -0.3079  0.5367
  140OSM    C8F15349   3.077   4.561   7.633  0.0980  0.3979 -0.3145
  140OSM    H8F15350   2.969   4.565   7.660  0.4851  1.2681  1.2137
  140OSM    H8G15351   3.105   4.669   7.627 -0.0494  0.6487  2.4545
  140OSM    C9F15352   3.162   4.493   7.733 -0.3521  0.1396 -0.2682
  140OSM    H9F15353   3.262   4.469   7.694  1.0273 -0.2817  3.1253
  140OSM   C10F15354   3.130   4.449   7.857  0.8156 -0.4623  0.1964
  140OSM   H10F15355   3.201   4.390   7.916  1.2660 -0.2078 -0.0907
  140OSM   C11F15356   2.996   4.460   7.921  0.3465  0.5443  0.5140
  140OSM   H11F15357   2.943   4.362   7.920  0.5226  0.4444 -1.2225
  140OSM   H11G15358   2.939   4.539   7.867  2.7932  2.0405 -0.0233
  140OSM   C12F15359   3.021   4.499   8.074 -0.0104  0.6634  0.5289
  140OSM   H12F15360   2.921   4.514   8.121  1.1612  0.7339  3.1520
  140OSM   H12G15361   3.082   4.591   8.084  0.1629  1.0833 -3.1130
  140OSM   C13F15362   3.085   4.380   8.155  0.4020  0.4950 -0.0274
  140OSM   H13F15363   3.193   4.370   8.130  0.4258  0.9352 -0.1182
  140OSM   H13G15364   3.033   4.286   8.128 -0.5250  0.9662  0.1000
  140OSM   C14F15365   3.081   4.400   8.305 -0.8422  0.4559 -0.6482
  140OSM   H14F15366   2.976   4.404   8.341  0.0525  0.2801  2.2432
  140OSM   H14G15367   3.138   4.489   8.339  1.3640 -1.4984  1.0031
  140OSM   C15F15368   3.145   4.275   8.374 -0.1985 -0.5717 -0.1212
  140OSM   H15F15369   3.083   4.192   8.336 -0.6233 -0.1824 -0.2860
  140OSM   H15G15370   3.132   4.288   8.484  0.3125 -0.4269 -0.0708
  140OSM   C16F15371   3.300   4.260   8.373 -0.8845 -0.4022 -0.2777
  140OSM   H16F15372   3.328   4.250   8.266 -2.8175  3.3964 -1.3085
  140OSM   H16G15373   3.334   4.171   8.430  1.1387  0.2604 -0.3468
  140OSM   C17F15374   3.371   4.387   8.431 -0.2938  0.4965  0.2147
  140OSM   H17F15375   3.338   4.480   8.379  1.8107  1.8225  1.1357
  140OSM   H17G15376   3.476   4.395   8.395 -0.1035 -1.2896  0.3161
  140OSM   C18F15377   3.367   4.404   8.575 -0.0332 -0.1432 -0.8922
  140OSM   H18F15378   3.416   4.499   8.606 -0.4570 -0.0406 -0.5228
  140OSM   H18G15379   3.415   4.324   8.635 -0.9425 -0.7167 -0.9086
  140OSM   H18H15380   3.264   4.397   8.615  0.1178  2.3992  0.1152
  141OSM      N15381   2.329   4.292   6.105 -0.3418 -0.7110  1.0184
  141OSM    C1515382   2.402   4.399   6.028  0.1125  0.0447 -0.5955
  141OSM   H15A15383   2.498   4.426   6.070  0.1228  0.1299 -0.6741
  141OSM   H15B15384   2.330   4.477   6.009 -2.1511 -2.2326 -2.0451
  141OSM   H15C15385   2.427   4.358   5.931 -1.5163 -1.2748 -0.5144
  141OSM    C1415386   2.194   4.263   6.051 -0.2897  0.2511 -1.0125
  141OSM   H14A15387   2.151   4.357   6.019  3.3198  2.2348 -0.5759
  141OSM   H14B15388   2.130   4.224   6.129  0.3274 -1.3294 -1.2618
  141OSM   H14C15389   2.195   4.195   5.968 -0.4013 -0.8170 -0.1596
  141OSM    C1315390   2.406   4.163   6.101  0.0675  0.0205  0.3317
  141OSM   H13A15391   2.509   4.183   6.128  0.0171  0.5786  0.1254
  141OSM   H13B15392   2.407   4.128   5.998  0.9301  1.6785 -0.2666
  141OSM   H13C15393   2.366   4.086   6.165  1.5346  1.2834  2.9013
  141OSM    C1215394   2.309   4.344   6.246  0.2429  0.0985  0.0776
  141OSM   H12A15395   2.263   4.442   6.245 -0.2768 -0.1233 -2.1224
  141OSM   H12B15396   2.406   4.368   6.288  1.0659 -0.5901 -1.3616
  141OSM    C1115397   2.234   4.255   6.345  0.7033  0.0744  0.0787
  141OSM   H11A15398   2.248   4.308   6.442 -1.7521  0.1852  0.4289
  141OSM   H11B15399   2.280   4.154   6.348 -0.0350 -0.3636 -2.0769
  141OSM      P15400   1.994   4.359   6.324 -0.0339 -0.0264  0.2432
  141OSM    O1315401   2.048   4.494   6.308 -0.1457 -0.0006  0.3149
  141OSM    O1415402   1.886   4.321   6.232  0.7248 -0.0103 -0.1239
  141OSM    O1115403   1.926   4.342   6.470 -0.3896  0.6715 -0.3959
  141OSM    O1215404   2.098   4.243   6.317 -0.1072 -0.7477  0.0417
  141OSM    C1S15405   1.996   4.255   6.565 -0.1699 -0.1483  0.7182
  141OSM    H1S15406   2.106   4.269   6.563 -0.2529  1.0416 -2.8078
  141OSM    H1T15407   1.986   4.150   6.532  2.3120  0.3863 -2.1539
  141OSM     NF15408   2.046   4.217   6.798 -0.4311  0.0108  0.2389
  141OSM    HNF15409   2.028   4.121   6.820  3.9216 -0.8272  1.1394
  141OSM    C2S15410   1.953   4.284   6.711 -0.2749  0.4048  0.7481
  141OSM    H2S15411   1.958   4.392   6.735 -1.8546  0.2319  2.0680
  141OSM    C3S15412   1.799   4.249   6.720  0.0518 -0.1202 -0.3742
  141OSM    H3S15413   1.796   4.144   6.684  0.5632  0.2615 -1.5670
  141OSM     O315414   1.705   4.315   6.633 -0.5447  0.5808 -0.4331
  141OSM    HO315415   1.761   4.371   6.577  0.4648 -0.7064 -0.7695
  141OSM    C4S15416   1.760   4.266   6.859  0.5017  0.5764 -0.6714
  141OSM    H4S15417   1.786   4.365   6.901  1.2151 -0.5841  1.8224
  141OSM    C5S15418   1.694   4.174   6.937 -0.2230 -0.3100  0.4775
  141OSM    H5S15419   1.656   4.078   6.897 -2.3216  0.9161 -0.6634
  141OSM    C6S15420   1.652   4.190   7.079  0.4167  0.4896  0.4203
  141OSM    H6S15421   1.629   4.090   7.120 -1.9540  1.2436  1.0558
  141OSM    H6T15422   1.556   4.246   7.081  0.5647  0.7964 -0.4526
  141OSM    C7S15423   1.747   4.261   7.171 -0.4321  0.5643 -1.1530
  141OSM    H7S15424   1.701   4.269   7.272  0.6625  1.6696 -0.7172
  141OSM    H7T15425   1.759   4.367   7.138 -3.1928  1.2306 -0.2919
  141OSM    C8S15426   1.880   4.184   7.182  0.5450  0.3165  0.0505
  141OSM    H8S15427   1.937   4.206   7.089  1.3578 -0.7965  0.2668
  141OSM    H8T15428   1.851   4.078   7.167  1.0921  0.4473 -2.4687
  141OSM    C9S15429   1.965   4.203   7.313  0.0821  0.5228 -0.4739
  141OSM    H9S15430   2.013   4.301   7.335  1.9147 -0.5522  0.5086
  141OSM    H9T15431   2.050   4.133   7.302 -0.8818 -0.3367 -3.0229
  141OSM   C10S15432   1.884   4.150   7.429 -0.2254  0.0506  0.7537
  141OSM   H10S15433   1.834   4.058   7.393 -4.5647  1.9743  1.2342
  141OSM   H10T15434   1.816   4.235   7.451 -0.9298 -0.1123 -0.6885
  141OSM   C11S15435   1.950   4.128   7.564 -0.6747 -0.2732 -0.2354
  141OSM   H11S15436   2.010   4.219   7.586 -1.2615  0.2498 -0.7449
  141OSM   H11T15437   2.013   4.037   7.566 -0.7643 -0.3274  0.9551
  141OSM   C12S15438   1.849   4.083   7.666  0.5481 -0.7363 -0.0253
  141OSM   H12S15439   1.826   3.974   7.658  0.5210 -0.6685 -1.0416
  141OSM   H12T15440   1.756   4.140   7.644  1.7102  1.2175 -0.0975
  141OSM   C13S15441   1.885   4.093   7.819  0.0954 -1.2829 -0.0591
  141OSM   H13S15442   1.802   4.044   7.875 -1.1420  1.5794  0.7829
  141OSM   H13T15443   1.892   4.201   7.844  2.8116 -1.9226  2.5530
  141OSM   C14S15444   2.005   4.013   7.861  0.7300  0.1352  0.2359
  141OSM   H14S15445   2.100   4.057   7.823  0.3315  1.2632  0.4965
  141OSM   H14T15446   2.010   3.906   7.832  0.1751 -0.5886  2.5836
  141OSM   C15S15447   2.015   4.007   8.019 -0.8624 -0.0930  0.2407
  141OSM   H15S15448   2.112   3.957   8.038 -1.1817 -0.8835 -0.1331
  141OSM   H15T15449   1.938   3.946   8.071  1.0068 -2.9163 -0.0969
  141OSM   C16S15450   2.025   4.153   8.079  0.0561 -0.2474 -0.6305
  141OSM   H16S15451   1.928   4.207   8.087 -0.9492 -2.0413 -0.0568
  141OSM   H16T15452   2.086   4.213   8.009 -1.7705  1.3093 -0.9616
  141OSM   C17S15453   2.112   4.156   8.201 -0.5639 -1.0736 -0.1946
  141OSM   H17S15454   2.210   4.109   8.176  0.6391  1.3373 -0.2794
  141OSM   H17T15455   2.064   4.092   8.278 -0.5183 -0.3905  0.4136
  141OSM   C18S15456   2.117   4.300   8.262  0.1683 -0.4586 -0.5175
  141OSM   H18S15457   2.012   4.336   8.272  0.7703  0.8674  1.7033
  141OSM   H18T15458   2.175   4.366   8.195  0.7357 -0.9152 -0.4813
  141OSM   H18U15459   2.164   4.302   8.362 -0.0808  2.2429 -0.3867
  141OSM    C1F15460   2.161   4.268   6.843 -0.1378  0.4130 -0.0437
  141OSM     OF15461   2.212   4.377   6.805  0.5129  0.3256  0.2413
  141OSM    C2F15462   2.219   4.174   6.949  0.1408 -0.6283  0.0803
  141OSM    H2F15463   2.309   4.119   6.914 -0.2685 -1.6697  0.6194
  141OSM    H2G15464   2.146   4.097   6.980 -0.0459 -1.5805 -2.4889
  141OSM    C3F15465   2.266   4.250   7.068  0.1789  0.0041 -1.0515
  141OSM    H3F15466   2.179   4.303   7.112  0.8701  0.5618 -0.3104
  141OSM    H3G15467   2.343   4.326   7.043 -0.8199  1.5305  0.3251
  141OSM    C4F15468   2.327   4.162   7.181 -0.5465  0.2505 -0.1025
  141OSM    H4F15469   2.428   4.123   7.155 -1.0546 -0.6661 -0.7441
  141OSM    H4G15470   2.260   4.075   7.189 -0.4178  0.2967  2.0376
  141OSM    C5F15471   2.333   4.226   7.321  0.2887 -0.1378  0.5058
  141OSM    H5F15472   2.240   4.281   7.344 -0.2576 -0.5245 -0.6994
  141OSM    H5G15473   2.410   4.306   7.320  0.0737  0.1737  2.8504
  141OSM    C6F15474   2.351   4.128   7.432 -0.1518 -0.5893 -0.1569
  141OSM    H6F15475   2.450   4.086   7.405  1.2915  2.7993 -0.5995
  141OSM    H6G15476   2.274   4.049   7.419 -0.8890 -0.0044  0.5111
  141OSM    C7F15477   2.344   4.195   7.575 -0.2443  0.9805  0.0879
  141OSM    H7F15478   2.245   4.240   7.597  0.1568  1.2192  1.4993
  141OSM    H7G15479   2.420   4.276   7.581 -0.4757  1.4405 -2.1203
  141OSM    C8F15480   2.365   4.085   7.686 -0.8125  0.3396  0.0767
  141OSM    H8F15481   2.461   4.032   7.668 -1.5515 -0.2722 -2.5522
  141OSM    H8G15482   2.296   3.999   7.670  1.9265 -2.1588  0.8131
  141OSM    C9F15483   2.352   4.144   7.823  0.1080 -0.4668  0.5455
  141OSM    H9F15484   2.271   4.218   7.823 -1.4846 -1.9653 -3.1508
  141OSM   C10F15485   2.422   4.119   7.932  0.3233 -0.4540  0.2173
  141OSM   H10F15486   2.385   4.168   8.024  0.4823  0.4473 -0.1870
  141OSM   C11F15487   2.541   4.026   7.946 -0.1548  0.3397 -0.0280
  141OSM   H11F15488   2.627   4.084   7.984  2.3056 -2.8629 -0.3408
  141OSM   H11G15489   2.573   3.989   7.846 -1.7800 -1.1645 -0.0447
  141OSM   C12F15490   2.528   3.908   8.044  0.1540  0.7123  0.4059
  141OSM   H12F15491   2.602   3.828   8.026 -1.5012 -0.6042 -0.8883
  141OSM   H12G15492   2.434   3.865   8.002 -0.3666  2.2198 -0.0360
  141OSM   C13F15493   2.504   3.932   8.196 -0.0542 -0.4915 -0.0732
  141OSM   H13F15494   2.461   3.842   8.243  0.5864 -0.3940  0.7085
  141OSM   H13G15495   2.420   4.004   8.205 -1.8362 -2.1991 -1.9247
  141OSM   C14F15496   2.628   3.979   8.274  0.0342  0.6644  0.2723
  141OSM   H14F15497   2.601   4.012   8.377  2.7078  0.7700  1.0251
  141OSM   H14G15498   2.666   4.062   8.211  0.0982  0.4656  0.0475
  141OSM   C15F15499   2.742   3.877   8.288  0.5132  0.3332 -0.3238
  141OSM   H15F15500   2.833   3.929   8.323  0.5424 -0.5786  1.0491
  141OSM   H15G15501   2.769   3.821   8.195 -0.2607  0.3737 -0.5805
  141OSM   C16F15502   2.713   3.781   8.399  0.0244  0.1989 -0.5431
  141OSM   H16F15503   2.767   3.684   8.400  0.2263  0.3042 -0.9817
  141OSM   H16G15504   2.610   3.740   8.388 -0.1567 -0.2980  2.2721
  141OSM   C17F15505   2.729   3.826   8.548 -0.2578  0.0437 -0.3252
  141OSM   H17F15506   2.651   3.903   8.565 -0.0390  0.7083 -2.0812
  141OSM   H17G15507   2.831   3.869   8.561  0.1528 -0.7590 -0.7749
  141OSM   C18F15508   2.712   3.719   8.654 -0.8131  0.1740  1.1224
  141OSM   H18F15509   2.688   3.775   8.747  0.9927  2.1619  0.4731
  141OSM   H18G15510   2.802   3.655   8.662 -0.7489 -0.0877 -1.1184
  141OSM   H18H15511   2.630   3.648   8.629  0.6427 -0.6286 -1.8583
  142OSM      N15512   6.314   0.103   6.027 -0.3197 -0.0987 -0.1034
  142OSM    C1515513   6.445   0.183   6.012 -0.1226  0.0852  0.6742
  142OSM   H15A15514   6.439   0.282   6.055 -1.2886 -0.4936  1.9101
  142OSM   H15B15515   6.442   0.203   5.906 -2.2457  1.2504  0.8979
  142OSM   H15C15516   6.524   0.129   6.062  1.4194  0.8283 -0.8442
  142OSM    C1415517   6.203   0.156   5.950 -0.2639 -0.1051  0.4229
  142OSM   H14A15518   6.219   0.138   5.845 -1.0307 -2.0355  0.5929
  142OSM   H14B15519   6.193   0.263   5.960  1.1782 -0.1130  3.1007
  142OSM   H14C15520   6.108   0.118   5.983 -0.5226 -0.2075 -0.4440
  142OSM    C1315521   6.340  -0.040   6.008  0.0916 -0.0356  0.3072
  142OSM   H13A15522   6.256  -0.101   6.036  1.2120 -2.0541 -0.5390
  142OSM   H13B15523   6.429  -0.067   6.063  0.2522  0.2610  0.1977
  142OSM   H13C15524   6.370  -0.060   5.906  0.3915 -0.2957  0.4431
  142OSM    C1215525   6.270   0.107   6.179 -0.1856  0.0243 -0.1969
  142OSM   H12A15526   6.352   0.075   6.241  1.1274  0.5769 -1.5917
  142OSM   H12B15527   6.195   0.031   6.196  0.9929 -0.7077  2.1910
  142OSM    C1115528   6.210   0.234   6.240 -0.1238  0.1355 -0.7631
  142OSM   H11A15529   6.179   0.207   6.343  1.0984  0.7257 -0.2154
  142OSM   H11B15530   6.112   0.250   6.190 -0.6287  0.4495  0.2987
  142OSM      P15531   6.265   0.488   6.275 -0.1020  0.1100  0.2288
  142OSM    O1315532   6.358   0.595   6.235  0.0442 -0.8165  0.3449
  142OSM    O1415533   6.130   0.510   6.228  0.6143 -0.2491 -0.0876
  142OSM    O1115534   6.258   0.485   6.433  0.5748  0.0428 -0.3421
  142OSM    O1215535   6.308   0.345   6.234  0.5287 -0.2767 -0.2722
  142OSM    C1S15536   6.366   0.429   6.499 -0.2155  0.9191  0.2261
  142OSM    H1S15537   6.458   0.487   6.476 -0.0417  0.8177  0.6509
  142OSM    H1T15538   6.377   0.320   6.480 -0.5313  1.0451 -0.7119
  142OSM     NF15539   6.470   0.394   6.717 -0.1593  0.0366  0.2456
  142OSM    HNF15540   6.484   0.302   6.754 -0.7656  0.5570  1.8436
  142OSM    C2S15541   6.347   0.436   6.655 -0.0640  0.1664 -0.3427
  142OSM    H2S15542   6.325   0.541   6.684 -0.7155 -0.1977  0.4991
  142OSM    C3S15543   6.222   0.349   6.696 -0.2461  0.3259  0.2784
  142OSM    H3S15544   6.220   0.247   6.652  3.4022 -0.8485  2.3806
  142OSM     O315545   6.104   0.422   6.655  0.5844  0.1608  0.3022
  142OSM    HO315546   6.135   0.492   6.597 -0.3872  0.5170  0.1961
  142OSM    C4S15547   6.214   0.341   6.844 -1.0029 -0.0703 -0.3684
  142OSM    H4S15548   6.149   0.418   6.888  2.4029  2.3667  0.7773
  142OSM    C5S15549   6.258   0.247   6.928 -0.0673 -0.5130  0.3092
  142OSM    H5S15550   6.305   0.158   6.882  0.8322  0.7927 -1.4391
  142OSM    C6S15551   6.247   0.262   7.076  1.1004 -0.4658  0.1377
  142OSM    H6S15552   6.278   0.166   7.122  3.2493 -1.1400 -2.4479
  142OSM    H6T15553   6.141   0.279   7.104  0.2114 -2.6526 -1.5917
  142OSM    C7S15554   6.319   0.381   7.148 -0.0436  1.0010  0.1672
  142OSM    H7S15555   6.278   0.478   7.111 -1.6024 -0.0236 -0.8855
  142OSM    H7T15556   6.429   0.385   7.132 -0.3102  3.0541 -1.6807
  142OSM    C8S15557   6.293   0.376   7.296  0.0514  0.6048 -0.6496
  142OSM    H8S15558   6.185   0.371   7.323  0.1019  0.5921 -0.4474
  142OSM    H8T15559   6.328   0.471   7.340  2.4371 -0.3816 -0.2856
  142OSM    C9S15560   6.356   0.264   7.380  0.0533  0.1065 -0.4114
  142OSM    H9S15561   6.463   0.261   7.351  0.2320  1.6400  0.0247
  142OSM    H9T15562   6.310   0.167   7.350 -2.2470  0.6518  1.1165
  142OSM   C10S15563   6.336   0.278   7.531  0.8052  0.1965 -0.3896
  142OSM   H10S15564   6.233   0.266   7.570  0.8476  0.5291 -0.1661
  142OSM   H10T15565   6.377   0.377   7.561 -0.2533  0.0592  1.6703
  142OSM   C11S15566   6.419   0.161   7.602 -0.6895 -0.6438 -0.0691
  142OSM   H11S15567   6.519   0.209   7.612 -1.8554  1.8527  0.4950
  142OSM   H11T15568   6.443   0.070   7.544  1.2724 -0.4840  0.4253
  142OSM   C12S15569   6.349   0.113   7.729  1.0731 -0.6527 -0.5363
  142OSM   H12S15570   6.387   0.013   7.761 -1.4929 -1.6717 -0.4314
  142OSM   H12T15571   6.241   0.101   7.705  0.9114  0.5781 -0.4769
  142OSM   C13S15572   6.347   0.216   7.844 -0.5399 -0.6180 -0.2558
  142OSM   H13S15573   6.261   0.210   7.914 -0.1802  2.5689  0.6168
  142OSM   H13T15574   6.331   0.316   7.798 -0.0455 -0.5879 -0.3729
  142OSM   C14S15575   6.483   0.217   7.930  0.6510 -0.1414  0.6103
  142OSM   H14S15576   6.555   0.269   7.864 -0.1124 -0.4525 -0.5043
  142OSM   H14T15577   6.526   0.117   7.949  1.6815  0.2996  0.6495
  142OSM   C15S15578   6.472   0.283   8.067  0.1896 -0.0689 -0.1779
  142OSM   H15S15579   6.414   0.376   8.049 -0.6147 -0.5164  0.0590
  142OSM   H15T15580   6.578   0.304   8.094 -0.1637 -0.6718  1.8731
  142OSM   C16S15581   6.400   0.190   8.165 -0.0097 -0.8041  0.6216
  142OSM   H16S15582   6.342   0.107   8.119  1.8876 -2.3586  0.8571
  142OSM   H16T15583   6.338   0.251   8.233 -0.9657 -2.2346  1.0899
  142OSM   C17S15584   6.509   0.128   8.251  0.0198  0.4049  0.0091
  142OSM   H17S15585   6.554   0.193   8.329  0.4862  1.6576 -1.2518
  142OSM   H17T15586   6.597   0.097   8.191  0.3520  3.0625 -1.0451
  142OSM   C18S15587   6.458   0.005   8.327  0.0852  0.1019 -0.0510
  142OSM   H18S15588   6.537  -0.012   8.403  0.0284 -0.4031 -0.1047
  142OSM   H18T15589   6.461  -0.081   8.256  1.1032  0.0738  0.0162
  142OSM   H18U15590   6.358   0.019   8.373  0.3093 -1.8394  1.1654
  142OSM    C1F15591   6.582   0.477   6.718 -0.1087 -0.0598  0.8188
  142OSM     OF15592   6.581   0.597   6.680  0.2660 -0.3163  0.0375
  142OSM    C2F15593   6.705   0.413   6.774  0.3616  0.1680 -0.3475
  142OSM    H2F15594   6.792   0.439   6.710  1.0167  0.9111  0.8025
  142OSM    H2G15595   6.700   0.303   6.786  0.0213  0.1800 -0.3782
  142OSM    C3F15596   6.760   0.474   6.910 -0.5651  1.0788  0.1741
  142OSM    H3F15597   6.677   0.476   6.984 -1.7208 -1.1706 -0.9336
  142OSM    H3G15598   6.785   0.581   6.896  0.3769  0.8160 -0.2290
  142OSM    C4F15599   6.874   0.389   6.960 -0.2079 -0.5457 -0.7428
  142OSM    H4F15600   6.966   0.414   6.903 -0.6027  0.2433 -1.0464
  142OSM    H4G15601   6.843   0.283   6.956  0.4554 -1.0976  3.5873
  142OSM    C5F15602   6.915   0.411   7.106  0.1138 -0.0970  0.1700
  142OSM    H5F15603   6.824   0.404   7.168 -0.2549  1.6980 -0.1160
  142OSM    H5G15604   6.950   0.516   7.114  0.2199 -0.1169 -0.0235
  142OSM    C6F15605   7.021   0.312   7.146 -0.9247 -0.0431  0.2987
  142OSM    H6F15606   7.107   0.303   7.077  0.4888  0.8659  1.8553
  142OSM    H6G15607   6.987   0.207   7.149  3.6370 -1.7101  2.6170
  142OSM    C7F15608   7.085   0.339   7.277 -0.0538 -0.2228 -0.5784
  142OSM    H7F15609   7.137   0.436   7.264  1.2451 -0.9580 -1.0407
  142OSM    H7G15610   7.172   0.272   7.293  0.9356  0.9499 -0.9091
  142OSM    C8F15611   6.984   0.329   7.397 -0.1186 -0.3006 -1.0617
  142OSM    H8F15612   6.927   0.234   7.392 -0.0245 -0.4406  0.3544
  142OSM    H8G15613   6.913   0.414   7.383 -0.8615  0.3651  4.4936
  142OSM    C9F15614   7.057   0.333   7.531 -0.1349 -0.0243  0.7838
  142OSM    H9F15615   7.150   0.391   7.529 -0.4749  0.5383  0.9868
  142OSM   C10F15616   7.021   0.272   7.641  0.2150 -0.5743 -0.0743
  142OSM   H10F15617   7.084   0.284   7.730 -2.2822 -0.8327  1.8077
  142OSM   C11F15618   6.890   0.191   7.653 -0.6616 -0.3924  0.3341
  142OSM   H11F15619   6.910   0.084   7.633 -0.9270 -0.0826 -1.7663
  142OSM   H11G15620   6.819   0.219   7.573  0.6209  0.6161 -0.4955
  142OSM   C12F15621   6.825   0.198   7.788  0.3655 -0.2492 -0.0681
  142OSM   H12F15622   6.733   0.135   7.792 -0.2939  0.6972  0.2847
  142OSM   H12G15623   6.782   0.297   7.815  1.0558  0.1288 -0.3548
  142OSM   C13F15624   6.916   0.133   7.893 -0.6206 -0.2303  0.1326
  142OSM   H13F15625   6.998   0.204   7.916 -2.3610  1.9323 -0.0005
  142OSM   H13G15626   6.967   0.040   7.862 -1.1244 -0.4502 -0.0564
  142OSM   C14F15627   6.852   0.100   8.029  0.8400 -0.4378  0.7819
  142OSM   H14F15628   6.768   0.030   8.008 -0.2496  0.8846  0.5617
  142OSM   H14G15629   6.810   0.193   8.073 -0.0441 -0.4456 -0.0053
  142OSM   C15F15630   6.951   0.040   8.120  0.4438 -0.2077  0.3354
  142OSM   H15F15631   7.046   0.094   8.140  1.0418 -0.3937 -1.7667
  142OSM   H15G15632   6.978  -0.057   8.074 -0.7393  0.5834 -2.2271
  142OSM   C16F15633   6.870   0.019   8.256 -0.2398  0.4867 -0.0805
  142OSM   H16F15634   6.784  -0.044   8.225 -1.0536  2.7681 -2.9401
  142OSM   H16G15635   6.828   0.119   8.279 -0.2415  1.0746 -2.3625
  142OSM   C17F15636   6.960  -0.040   8.369  0.1132 -0.5370 -0.2807
  142OSM   H17F15637   7.033   0.035   8.406 -1.9012  0.8307  1.1571
  142OSM   H17G15638   7.013  -0.127   8.327  1.1665  0.4840 -1.1309
  142OSM   C18F15639   6.872  -0.086   8.485  0.4778  0.1047  0.6274
  142OSM   H18F15640   6.839   0.002   8.545  0.4254  1.6036 -1.4863
  142OSM   H18G15641   6.917  -0.168   8.545 -1.6282 -2.2981 -0.9009
  142OSM   H18H15642   6.777  -0.117   8.438  0.6644 -0.5194  0.6548
  143OSM      N15643   4.444   5.001   6.138  0.0926 -0.2462  0.3942
  143OSM    C1515644   4.576   5.047   6.198  0.7546  0.5461 -0.2891
  143OSM   H15A15645   4.651   5.054   6.121  0.1262 -0.8043 -1.0703
  143OSM   H15B15646   4.613   4.981   6.275 -0.7577  0.6030  0.5149
  143OSM   H15C15647   4.572   5.145   6.242 -0.3117 -0.7019  2.6204
  143OSM    C1415648   4.421   5.075   6.007  0.4930  0.5412 -0.0182
  143OSM   H14A15649   4.333   5.040   5.955  0.7696 -0.0699 -0.0767
  143OSM   H14B15650   4.507   5.059   5.944 -0.0329  0.1105 -0.6368
  143OSM   H14C15651   4.402   5.181   6.018  0.8016  0.5780  0.1793
  143OSM    C1315652   4.460   4.858   6.099  0.5387  0.3146 -0.1957
  143OSM   H13A15653   4.366   4.828   6.055  0.3791 -1.7184  1.3990
  143OSM   H13B15654   4.483   4.801   6.188  3.3359  1.1280 -0.2898
  143OSM   H13C15655   4.524   4.834   6.016 -1.8939 -0.7698 -1.8821
  143OSM    C1215656   4.335   5.004   6.241 -0.5318 -0.8915 -0.2136
  143OSM   H12A15657   4.372   4.952   6.329  3.2808  1.4825 -0.1535
  143OSM   H12B15658   4.247   4.958   6.199 -0.9723  0.4357 -0.8131
  143OSM    C1115659   4.295   5.143   6.295  0.0963  0.2364  0.1949
  143OSM   H11A15660   4.382   5.189   6.345 -0.8892  0.1763  2.0641
  143OSM   H11B15661   4.214   5.121   6.368 -1.6262  2.0964 -1.0527
  143OSM      P15662   4.103   5.244   6.139  0.3621 -0.3210  0.0639
  143OSM    O1315663   4.098   5.368   6.058  0.0333  0.0045 -0.0840
  143OSM    O1415664   4.055   5.120   6.073 -0.5332  0.7117  0.1018
  143OSM    O1115665   4.010   5.269   6.265 -1.2732  0.0480  0.0829
  143OSM    O1215666   4.242   5.225   6.199  0.0970  0.0539 -0.4339
  143OSM    C1S15667   4.039   5.372   6.361  0.3242 -0.9550  0.3981
  143OSM    H1S15668   4.018   5.468   6.310  2.1278 -1.4610 -1.4388
  143OSM    H1T15669   4.143   5.369   6.401  1.0515  1.6639 -1.0691
  143OSM     NF15670   3.971   5.471   6.588 -0.2647 -0.2346 -0.6498
  143OSM    HNF15671   4.011   5.450   6.677  1.1106  3.2453 -0.2996
  143OSM    C2S15672   3.949   5.366   6.490 -0.4110 -0.0731  0.0963
  143OSM    H2S15673   3.843   5.378   6.458 -0.1732  0.9174 -0.3458
  143OSM    C3S15674   3.967   5.225   6.558 -0.0853  0.5147 -0.3640
  143OSM    H3S15675   4.061   5.232   6.617 -0.0096 -2.7306  0.0824
  143OSM     O315676   3.989   5.108   6.476  0.5221  0.3662 -0.0515
  143OSM    HO315677   3.996   5.143   6.387  2.8913 -0.8786 -0.4321
  143OSM    C4S15678   3.864   5.209   6.665  0.1270  0.0567 -0.4313
  143OSM    H4S15679   3.894   5.260   6.757  0.1546  1.0196 -0.9539
  143OSM    C5S15680   3.740   5.145   6.656  0.2325  0.2970 -0.6253
  143OSM    H5S15681   3.706   5.095   6.565 -0.2006  0.7876 -0.7408
  143OSM    C6S15682   3.642   5.127   6.769 -0.2118  0.4466 -0.3866
  143OSM    H6S15683   3.654   5.023   6.808  1.4629  0.7730  0.0300
  143OSM    H6T15684   3.537   5.140   6.734 -0.6015  0.8569  0.8755
  143OSM    C7S15685   3.649   5.230   6.889 -0.1865 -0.3345  0.6413
  143OSM    H7S15686   3.551   5.221   6.939  0.2756  1.5065  1.9604
  143OSM    H7T15687   3.678   5.327   6.842  1.7611 -0.7066  0.9837
  143OSM    C8S15688   3.759   5.202   6.988  0.4268 -0.0835 -0.0551
  143OSM    H8S15689   3.854   5.258   6.973 -0.4182  1.9467  1.6039
  143OSM    H8T15690   3.793   5.097   6.975 -0.3644 -0.1073 -2.5462
  143OSM    C9S15691   3.720   5.218   7.139 -0.4683  0.4218  0.1343
  143OSM    H9S15692   3.808   5.181   7.196 -0.9280 -3.6318 -1.4355
  143OSM    H9T15693   3.638   5.150   7.170  1.2863 -2.5126 -1.2646
  143OSM   C10S15694   3.683   5.364   7.178 -0.3155  0.4288 -0.0993
  143OSM   H10S15695   3.579   5.370   7.139  0.2143  0.3921 -1.5760
  143OSM   H10T15696   3.739   5.441   7.121 -0.1452  1.1751  1.0507
  143OSM   C11S15697   3.686   5.394   7.332  0.3418  0.2380  0.4817
  143OSM   H11S15698   3.647   5.496   7.353  2.3409  1.4835 -1.3818
  143OSM   H11T15699   3.794   5.399   7.360  0.2760  1.8485  0.5277
  143OSM   C12S15700   3.611   5.299   7.428 -0.0687 -0.2059  0.8351
  143OSM   H12S15701   3.655   5.197   7.429  2.5239  0.7206 -2.3631
  143OSM   H12T15702   3.510   5.297   7.383  0.2653 -2.1554  0.0911
  143OSM   C13S15703   3.602   5.332   7.579 -0.5574 -0.6169  0.3200
  143OSM   H13S15704   3.552   5.249   7.633 -2.9093  0.4288 -0.1349
  143OSM   H13T15705   3.544   5.425   7.599 -1.3155 -1.7298  3.8933
  143OSM   C14S15706   3.742   5.351   7.634  0.2222 -0.4300  0.5197
  143OSM   H14S15707   3.780   5.454   7.613 -0.0244  0.6498  4.5501
  143OSM   H14T15708   3.816   5.285   7.585 -1.4041 -0.3751 -2.2163
  143OSM   C15S15709   3.748   5.353   7.789  0.1825 -0.6036 -0.6808
  143OSM   H15S15710   3.717   5.253   7.826  1.0357 -1.2785 -1.7151
  143OSM   H15T15711   3.675   5.427   7.828 -1.1945 -2.3905  0.3275
  143OSM   C16S15712   3.889   5.380   7.844  0.5688 -0.2179 -0.1502
  143OSM   H16S15713   3.924   5.481   7.813 -1.0968  1.6949  3.4541
  143OSM   H16T15714   3.950   5.300   7.797 -0.5182 -1.1247 -0.0691
  143OSM   C17S15715   3.912   5.387   7.995 -0.0245  0.0733 -0.0597
  143OSM   H17S15716   4.016   5.417   8.018  0.4867 -0.9484 -0.9381
  143OSM   H17T15717   3.895   5.284   8.033 -1.9557  0.9064  1.4954
  143OSM   C18S15718   3.813   5.475   8.073 -0.3653 -0.2934  0.5306
  143OSM   H18S15719   3.841   5.580   8.049 -0.5772 -0.5248 -0.7638
  143OSM   H18T15720   3.838   5.470   8.182 -0.1317  0.3279  0.5098
  143OSM   H18U15721   3.707   5.454   8.049 -0.4722  1.8094 -1.1113
  143OSM    C1F15722   3.955   5.595   6.570 -0.0782  0.0481  0.3345
  143OSM     OF15723   3.911   5.637   6.466 -0.6044  0.1445 -0.1968
  143OSM    C2F15724   3.999   5.683   6.682  0.9329 -0.0580  0.5349
  143OSM    H2F15725   4.014   5.788   6.652  1.7885 -0.4856 -0.5765
  143OSM    H2G15726   4.100   5.647   6.708  0.1034 -0.6507  3.2494
  143OSM    C3F15727   3.886   5.674   6.793 -0.3367  0.6889  0.3952
  143OSM    H3F15728   3.869   5.570   6.828  2.1277  0.8145  2.2859
  143OSM    H3G15729   3.787   5.717   6.768 -1.8835 -2.8464 -0.1317
  143OSM    C4F15730   3.927   5.758   6.920  0.4152 -0.0203 -0.9080
  143OSM    H4F15731   3.948   5.859   6.878  2.2956  0.0552  0.0825
  143OSM    H4G15732   4.022   5.716   6.958 -0.5440  0.2406  2.0904
  143OSM    C5F15733   3.830   5.758   7.035  0.8357 -0.9694 -0.3922
  143OSM    H5F15734   3.819   5.661   7.087 -1.8578  0.2234  1.5300
  143OSM    H5G15735   3.723   5.767   7.005  1.2515 -0.6991 -1.8484
  143OSM    C6F15736   3.866   5.866   7.143  0.6263  0.0999  0.3712
  143OSM    H6F15737   3.838   5.963   7.097 -0.8387  0.3010  1.5971
  143OSM    H6G15738   3.976   5.871   7.162  0.7174  0.3061 -0.1854
  143OSM    C7F15739   3.797   5.836   7.277 -0.6754 -0.2218 -0.6143
  143OSM    H7F15740   3.814   5.727   7.293  0.4257  0.0365  0.1409
  143OSM    H7G15741   3.687   5.849   7.275 -0.8532 -1.0326  1.5160
  143OSM    C8F15742   3.854   5.927   7.390  0.8193  1.5513 -0.1572
  143OSM    H8F15743   3.828   6.034   7.379  0.4901  1.8691  2.7353
  143OSM    H8G15744   3.965   5.928   7.383  0.8558 -0.2700 -0.2649
  143OSM    C9F15745   3.809   5.876   7.521  0.2421 -0.5870  0.7499
  143OSM    H9F15746   3.727   5.930   7.571 -0.4992 -1.3256  0.3571
  143OSM   C10F15747   3.884   5.792   7.593 -0.3327  0.2758  0.1080
  143OSM   H10F15748   3.853   5.760   7.694 -0.6751 -0.1234 -0.1205
  143OSM   C11F15749   4.011   5.724   7.548 -0.7274 -0.2126 -0.2999
  143OSM   H11F15750   4.032   5.742   7.441 -0.3029 -0.8541 -0.3314
  143OSM   H11G15751   3.993   5.614   7.554 -0.0437 -0.5039 -2.5094
  143OSM   C12F15752   4.141   5.770   7.632 -0.5964 -0.1688 -0.2609
  143OSM   H12F15753   4.139   5.881   7.636  0.9692 -0.1239  0.1655
  143OSM   H12G15754   4.233   5.745   7.575  0.3876  1.1097  0.6887
  143OSM   C13F15755   4.165   5.714   7.770  0.3914  0.5250 -1.3736
  143OSM   H13F15756   4.270   5.727   7.802  0.0070 -0.6599  0.6040
  143OSM   H13G15757   4.118   5.614   7.780  1.8800 -0.1339 -0.6824
  143OSM   C14F15758   4.089   5.802   7.876  0.0819 -0.2595 -0.1060
  143OSM   H14F15759   3.979   5.796   7.860  0.4004 -1.6774 -2.2798
  143OSM   H14G15760   4.124   5.907   7.867 -4.2826  1.3172 -1.4042
  143OSM   C15F15761   4.125   5.763   8.016 -0.0883 -0.0478  0.1918
  143OSM   H15F15762   4.233   5.784   8.031  0.2349 -0.2730 -1.6380
  143OSM   H15G15763   4.101   5.655   8.022 -1.0259  0.1408 -0.0092
  143OSM   C16F15764   4.052   5.844   8.119 -0.4043  0.8944 -1.0050
  143OSM   H16F15765   3.942   5.839   8.104 -0.4631  0.0869 -0.3750
  143OSM   H16G15766   4.078   5.952   8.111  1.4038  0.5258 -0.5118
  143OSM   C17F15767   4.087   5.782   8.258 -0.4446  0.1162 -0.4090
  143OSM   H17F15768   4.193   5.794   8.289  0.2721 -0.3029 -2.5182
  143OSM   H17G15769   4.072   5.672   8.255  3.3228 -0.5159 -1.1417
  143OSM   C18F15770   4.005   5.854   8.367  0.5356 -0.6298 -0.0481
  143OSM   H18F15771   3.897   5.844   8.344  0.1789 -1.6427  1.8423
  143OSM   H18G15772   4.016   5.964   8.373 -1.8759 -0.3767  0.8296
  143OSM   H18H15773   4.025   5.797   8.460 -1.1560 -2.4285 -0.6933
  144OSM      N15774   3.885   4.511   5.865 -0.3924  0.6591 -0.4975
  144OSM    C1515775   3.742   4.520   5.825 -0.3824 -0.2030 -0.2223
  144OSM   H15A15776   3.682   4.540   5.913 -1.2918  0.3764 -0.9577
  144OSM   H15B15777   3.693   4.431   5.788 -0.6077 -0.1562 -0.0378
  144OSM   H15C15778   3.724   4.613   5.774 -0.6339  0.5983  1.2534
  144OSM    C1415779   3.969   4.477   5.739  1.2555 -0.4822  0.6775
  144OSM   H14A15780   3.960   4.563   5.675 -1.7271 -0.2543  1.2213
  144OSM   H14B15781   3.928   4.389   5.692 -1.5973  0.0945  1.8116
  144OSM   H14C15782   4.073   4.464   5.766  2.0606  3.5513  0.0568
  144OSM    C1315783   3.937   4.639   5.915  0.4656 -0.4298 -0.3998
  144OSM   H13A15784   3.883   4.658   6.007  0.5116  2.1883 -0.8277
  144OSM   H13B15785   3.906   4.717   5.847  1.5343  0.1497 -0.2521
  144OSM   H13C15786   4.042   4.648   5.941 -0.3578  1.0013  2.9974
  144OSM    C1215787   3.927   4.399   5.972 -0.3363 -0.3950 -0.1969
  144OSM   H12A15788   4.034   4.407   5.976 -0.3177 -0.4272 -0.6216
  144OSM   H12B15789   3.906   4.301   5.934 -3.1661 -0.3281  0.9311
  144OSM    C1115790   3.852   4.387   6.113 -0.9180  0.4703  0.2357
  144OSM   H11A15791   3.859   4.488   6.159  2.4803 -1.0049  3.5566
  144OSM   H11B15792   3.890   4.320   6.194 -0.2679  0.0374 -0.4169
  144OSM      P15793   3.582   4.427   6.116 -0.1992 -0.1871  0.1986
  144OSM    O1315794   3.609   4.574   6.102  0.1517  0.6100 -0.1524
  144OSM    O1415795   3.461   4.384   6.038 -0.0486 -0.4498  0.2199
  144OSM    O1115796   3.563   4.384   6.267 -0.1665  0.1718  0.6957
  144OSM    O1215797   3.712   4.345   6.088  0.0842  0.2023  0.1259
  144OSM    C1S15798   3.639   4.451   6.367  0.0554  0.7142 -0.0028
  144OSM    H1S15799   3.578   4.534   6.406  0.5331  0.9462  0.2607
  144OSM    H1T15800   3.738   4.482   6.326  0.3732 -1.3871 -0.9709
  144OSM     NF15801   3.734   4.416   6.595  0.4211 -0.4151  0.5272
  144OSM    HNF15802   3.830   4.389   6.600  0.8271 -0.1110 -3.2279
  144OSM    C2S15803   3.659   4.356   6.486  0.4268  0.0382 -1.0449
  144OSM    H2S15804   3.561   4.324   6.526  2.4035 -4.1272  1.1523
  144OSM    C3S15805   3.727   4.224   6.441  0.2784 -0.0086  0.3823
  144OSM    H3S15806   3.818   4.254   6.383  0.1017  0.7671  0.4930
  144OSM     O315807   3.646   4.154   6.348  0.1722  0.1810  0.1974
  144OSM    HO315808   3.576   4.219   6.344  2.2719  2.5856 -0.3352
  144OSM    C4S15809   3.763   4.127   6.551 -0.1377  0.2440 -0.8364
  144OSM    H4S15810   3.682   4.066   6.595  0.7564 -0.5444 -0.2334
  144OSM    C5S15811   3.885   4.093   6.587 -0.4673 -0.1318  0.3487
  144OSM    H5S15812   3.971   4.151   6.550 -0.2334 -0.0162  1.0505
  144OSM    C6S15813   3.922   3.988   6.688  0.0492  0.3213 -0.0187
  144OSM    H6S15814   3.982   3.911   6.635  1.7366  1.8088 -0.3637
  144OSM    H6T15815   3.827   3.945   6.727  1.2016 -1.2674  1.1688
  144OSM    C7S15816   4.005   4.035   6.802 -0.5576  0.0723  0.1414
  144OSM    H7S15817   4.105   4.070   6.767  0.1028 -3.0834 -1.4949
  144OSM    H7T15818   4.018   3.947   6.869 -2.4309 -0.1032  0.3213
  144OSM    C8S15819   3.934   4.141   6.878 -0.9482  0.4914  0.1339
  144OSM    H8S15820   3.825   4.143   6.858 -1.4071 -1.1595  2.1064
  144OSM    H8T15821   3.965   4.243   6.847  1.4320 -0.2563 -0.1525
  144OSM    C9S15822   3.963   4.133   7.033  0.2022 -0.3658 -0.0678
  144OSM    H9S15823   4.073   4.135   7.045  0.1440 -1.9306  1.1444
  144OSM    H9T15824   3.924   4.038   7.075  1.4955 -1.2304 -0.7717
  144OSM   C10S15825   3.897   4.248   7.113 -0.2935 -0.1794  0.2113
  144OSM   H10S15826   3.786   4.237   7.108 -0.9181  3.5875  1.9635
  144OSM   H10T15827   3.925   4.343   7.063 -1.0334  1.3970  2.6207
  144OSM   C11S15828   3.933   4.249   7.264  0.2128  0.1508 -0.2511
  144OSM   H11S15829   4.044   4.250   7.262  0.2203  1.4350 -1.5408
  144OSM   H11T15830   3.896   4.160   7.319 -0.2626  0.3281 -0.2782
  144OSM   C12S15831   3.884   4.373   7.338  0.3882  0.1075  0.0370
  144OSM   H12S15832   3.778   4.375   7.307  1.2613 -0.8547 -3.4628
  144OSM   H12T15833   3.938   4.465   7.304  1.3447 -1.1705 -2.0901
  144OSM   C13S15834   3.903   4.351   7.491 -0.1920 -0.1343  0.0142
  144OSM   H13S15835   4.010   4.319   7.491 -0.3173 -0.6603 -2.2556
  144OSM   H13T15836   3.846   4.271   7.542  0.0694  1.6990  3.5100
  144OSM   C14S15837   3.877   4.482   7.573  0.2839  0.0544 -0.6794
  144OSM   H14S15838   3.766   4.485   7.581  0.2726 -1.3060 -0.0134
  144OSM   H14T15839   3.901   4.578   7.523  0.0722  2.0414  2.6910
  144OSM   C15S15840   3.949   4.478   7.709 -0.1128 -0.3549  0.4387
  144OSM   H15S15841   3.931   4.584   7.736 -2.5293 -0.3313 -0.9574
  144OSM   H15T15842   4.059   4.467   7.701 -0.1130  0.0820 -0.3621
  144OSM   C16S15843   3.906   4.379   7.811  0.8305  0.1014 -0.8256
  144OSM   H16S15844   3.952   4.280   7.792 -1.2513 -0.7342 -1.8081
  144OSM   H16T15845   3.795   4.377   7.800  0.8369 -1.1522 -0.8246
  144OSM   C17S15846   3.926   4.421   7.956  0.8845  0.1450  0.9443
  144OSM   H17S15847   3.875   4.344   8.020  2.0725 -0.4214  1.2333
  144OSM   H17T15848   3.869   4.515   7.975 -1.1005 -1.0024  1.0224
  144OSM   C18S15849   4.069   4.429   7.996 -0.2035 -0.4316 -0.2625
  144OSM   H18S15850   4.081   4.424   8.106  1.1166  0.8730 -0.3190
  144OSM   H18T15851   4.130   4.517   7.965  2.6831 -1.4927  1.9940
  144OSM   H18U15852   4.125   4.342   7.957 -0.9400 -0.5448 -1.1007
  144OSM    C1F15853   3.678   4.523   6.654 -0.1004 -0.2311  0.4310
  144OSM     OF15854   3.562   4.555   6.640 -0.0417 -0.2230 -0.2169
  144OSM    C2F15855   3.777   4.604   6.731 -0.3937 -0.5547  0.0758
  144OSM    H2F15856   3.850   4.656   6.666  1.0270 -2.4404  0.0643
  144OSM    H2G15857   3.830   4.533   6.798  0.1411  0.0352  0.2934
  144OSM    C3F15858   3.702   4.726   6.808 -0.5830  0.6224  0.8409
  144OSM    H3F15859   3.613   4.693   6.867 -0.4211  1.1538  1.3932
  144OSM    H3G15860   3.671   4.793   6.725  2.4548 -1.2177 -2.0112
  144OSM    C4F15861   3.801   4.802   6.892  0.0335 -0.0423 -0.0441
  144OSM    H4F15862   3.753   4.897   6.923  1.4622  0.6167  0.2357
  144OSM    H4G15863   3.895   4.819   6.835  0.6205  0.0946  0.9267
  144OSM    C5F15864   3.847   4.723   7.018 -0.1814 -0.9608  0.2180
  144OSM    H5F15865   3.931   4.653   6.998  1.0374  0.2503  0.8927
  144OSM    H5G15866   3.759   4.683   7.073  0.6615 -2.1796  0.7279
  144OSM    C6F15867   3.898   4.824   7.129 -0.1395  0.9987  0.9398
  144OSM    H6F15868   3.823   4.891   7.177 -1.0325  0.8839 -0.2461
  144OSM    H6G15869   3.975   4.885   7.078 -0.2234  1.4289  1.3184
  144OSM    C7F15870   3.960   4.757   7.251 -0.3766 -0.1657  0.3231
  144OSM    H7F15871   4.024   4.674   7.215 -1.1945 -0.1880 -1.1765
  144OSM    H7G15872   3.878   4.706   7.307 -2.2326  1.4735 -0.7687
  144OSM    C8F15873   4.021   4.857   7.352  0.2855  0.0697 -0.4049
  144OSM    H8F15874   3.935   4.914   7.393  0.4173 -0.5836  0.8126
  144OSM    H8G15875   4.094   4.923   7.300 -0.5180  0.6042 -0.8719
  144OSM    C9F15876   4.099   4.784   7.463  0.3082 -0.3743 -0.3084
  144OSM    H9F15877   4.149   4.693   7.425 -0.7497 -0.2832 -2.0377
  144OSM   C10F15878   4.120   4.815   7.588 -0.5088  0.6953  0.0923
  144OSM   H10F15879   4.180   4.749   7.651 -2.5593 -0.2497  1.1504
  144OSM   C11F15880   4.054   4.933   7.658 -1.1722 -0.3073  0.4578
  144OSM   H11F15881   3.961   4.969   7.608  0.6828  2.8324 -1.0901
  144OSM   H11G15882   4.123   5.019   7.646 -0.1582 -1.4099 -2.5481
  144OSM   C12F15883   4.032   4.914   7.808 -0.3038  0.0220 -0.2360
  144OSM   H12F15884   3.969   4.825   7.828 -1.2260 -0.1696 -3.3820
  144OSM   H12G15885   3.981   5.006   7.841  2.4193  1.1519  1.1482
  144OSM   C13F15886   4.164   4.908   7.884 -0.1692 -1.0720  0.0086
  144OSM   H13F15887   4.229   4.989   7.844 -3.1275  1.6593  0.3287
  144OSM   H13G15888   4.224   4.816   7.866  0.4697 -0.6325 -0.1590
  144OSM   C14F15889   4.151   4.946   8.029  0.2913  0.0399  0.5621
  144OSM   H14F15890   4.095   5.042   8.031  1.4988  0.7656  0.5591
  144OSM   H14G15891   4.249   4.966   8.078 -0.0791  1.2722  0.8565
  144OSM   C15F15892   4.078   4.839   8.107 -0.7246  0.3778  0.6380
  144OSM   H15F15893   4.142   4.748   8.116  3.1035  2.7733 -0.2427
  144OSM   H15G15894   3.982   4.801   8.067 -0.8347 -0.1484  1.3729
  144OSM   C16F15895   4.041   4.874   8.250 -0.2024 -0.3656  0.1377
  144OSM   H16F15896   4.001   4.978   8.257  1.7376  0.3783  0.7085
  144OSM   H16G15897   4.132   4.890   8.312 -1.6148  0.1287  2.2025
  144OSM   C17F15898   3.963   4.770   8.314  0.0200 -0.6449 -0.3403
  144OSM   H17F15899   3.879   4.758   8.243 -0.8053  0.3367  0.4366
  144OSM   H17G15900   3.926   4.810   8.411  1.2864  2.2740 -0.9544
  144OSM   C18F15901   4.032   4.642   8.325  0.1711  0.5969  0.1871
  144OSM   H18F15902   3.979   4.573   8.394  1.6821 -1.5016 -0.6635
  144OSM   H18G15903   4.133   4.649   8.370  0.4026 -0.6525 -0.1211
  144OSM   H18H15904   4.035   4.581   8.232 -3.2678  1.5166 -0.6902
  145SAPE     N15905   5.794   1.773  10.571 -0.6577  0.2740 -0.2956
  145SAPE   HN115906   5.835   1.838  10.641  1.3366 -0.6169 -0.5824
  145SAPE   HN215907   5.735   1.703  10.620  1.7381 -2.2344 -0.7427
  145SAPE   HN315908   5.878   1.723  10.535  2.5302  1.7827  4.1318
  145SAPE   C1215909   5.709   1.854  10.483 -0.3955 -0.0170  0.2357
  145SAPE  H12A15910   5.604   1.853  10.518 -0.6040 -0.4424 -0.3866
  145SAPE  H12B15911   5.704   1.810  10.381  1.1386  0.3441 -0.0124
  145SAPE   C1115912   5.752   2.002  10.472 -0.1412 -0.3798 -0.6433
  145SAPE  H11A15913   5.692   2.063  10.401  0.7243 -1.1393 -2.0519
  145SAPE  H11B15914   5.855   2.023  10.438  0.7016 -2.3858  0.5080
  145SAPE     P15915   5.850   2.103  10.691 -0.4436  0.4662 -0.3137
  145SAPE   O1315916   5.809   2.188  10.806 -0.2044 -0.3343 -0.6803
  145SAPE   O1415917   5.914   1.972  10.713 -0.2988  0.3406 -0.3866
  145SAPE   O1215918   5.725   2.075  10.592  0.7764 -0.8025  0.2581
  145SAPE   O1115919   5.955   2.179  10.605  0.3608 -0.4714  0.7635
  145SAPE    C115920   5.915   2.315  10.563 -0.2169 -0.3821 -0.1035
  145SAPE    HA15921   5.808   2.346  10.569 -0.4460 -1.2950  0.7138
  145SAPE    HB15922   5.970   2.383  10.632  1.6753 -1.6552 -0.3065
  145SAPE    C215923   5.980   2.362  10.430 -0.5404 -0.1374  0.3333
  145SAPE    HS15924   5.980   2.473  10.428  1.5636 -0.1002 -1.5831
  145SAPE   O2115925   5.902   2.311  10.318  0.3129 -0.5729  0.1670
  145SAPE   C2115926   5.784   2.376  10.303  0.7463 -0.2719 -0.6796
  145SAPE   O2215927   5.766   2.487  10.341  0.0666 -0.3105  0.3999
  145SAPE   C2215928   5.694   2.285  10.217  0.9497  0.1706  0.0258
  145SAPE   H2R15929   5.744   2.186  10.214 -0.0958 -0.3663 -0.5825
  145SAPE   H2S15930   5.602   2.268  10.277  2.2432  0.3038  2.1647
  145SAPE    C315931   6.127   2.327  10.413 -0.4626  0.0648 -0.2622
  145SAPE    HX15932   6.127   2.216  10.403 -1.9536  0.0906 -0.8719
  145SAPE    HY15933   6.173   2.363  10.507 -2.8788  2.1687  0.2220
  145SAPE   O3115934   6.183   2.394  10.298  0.5516 -0.1061 -0.2178
  145SAPE   C3115935   6.225   2.511  10.306  0.5101  0.4601 -0.2285
  145SAPE   O3215936   6.233   2.581  10.406  0.1470 -0.1746 -0.5649
  145SAPE   C3215937   6.256   2.562  10.163 -0.2469 -0.8052 -0.6312
  145SAPE   H2X15938   6.236   2.483  10.087 -1.4141 -1.4342  0.2784
  145SAPE   H2Y15939   6.363   2.590  10.156  0.3373 -2.1041  1.7928
  145SAPE   C2315940   5.669   2.337  10.075 -0.2600 -0.1670  0.2209
  145SAPE   H3R15941   5.636   2.443  10.076 -3.1904 -0.9662 -0.4517
  145SAPE   H3S15942   5.585   2.276  10.035 -0.1953 -2.1083  2.7902
  145SAPE   C2415943   5.790   2.333   9.980 -0.1024 -0.1673 -0.1419
  145SAPE   H4R15944   5.820   2.227   9.966  0.4257  0.0255 -0.5150
  145SAPE   H4S15945   5.876   2.386  10.027 -1.5011  1.9398  0.1677
  145SAPE   C2515946   5.747   2.387   9.848 -0.5571 -0.0535 -0.0032
  145SAPE   H5R15947   5.669   2.329   9.796 -2.0357  0.6945  1.3116
  145SAPE   C2615948   5.775   2.500   9.788 -0.2398  0.2685 -0.2328
  145SAPE   H6R15949   5.754   2.515   9.681 -0.8670  2.2275  0.1223
  145SAPE   C2715950   5.870   2.609   9.832 -0.2626 -0.3206 -0.2148
  145SAPE   H7R15951   5.966   2.584   9.781  1.0232  1.8629  0.9889
  145SAPE   H7S15952   5.885   2.609   9.942 -0.1895  1.9132 -0.1811
  145SAPE   C2815953   5.844   2.758   9.808 -0.6868  0.4468 -0.1067
  145SAPE   H8R15954   5.824   2.815   9.900 -1.0585 -0.9139  0.6828
  145SAPE   C2915955   5.858   2.818   9.690 -0.5925  0.1684  0.5031
  145SAPE   H9R15956   5.829   2.923   9.676  1.2554  0.6679  0.0717
  145SAPE  C21015957   5.917   2.754   9.565  0.5435  0.2716  0.2649
  145SAPE  H10R15958   5.889   2.648   9.550  0.5749  0.3467 -0.3235
  145SAPE  H10S15959   6.027   2.746   9.562  0.5088 -2.2392  2.1301
  145SAPE  C21115960   5.875   2.829   9.446  0.0027 -0.3479 -0.1716
  145SAPE  H11R15961   5.778   2.796   9.406 -0.6858  0.0121  1.1305
  145SAPE  C21215962   5.943   2.935   9.382  0.0573  0.3745 -0.1090
  145SAPE  H12R15963   5.885   2.987   9.304  0.6899  0.8478 -0.2799
  145SAPE  C21315964   6.072   3.005   9.424  0.2895 -1.0779  0.2120
  145SAPE  H13R15965   6.158   2.990   9.355 -0.6443  0.0857 -1.2456
  145SAPE  H13S15966   6.109   2.954   9.516  1.1366 -1.0509 -0.0976
  145SAPE  C21415967   6.046   3.156   9.441  0.0854  0.2885 -0.4226
  145SAPE  H14R15968   5.981   3.180   9.527 -0.5484 -0.2412 -0.7403
  145SAPE  C21515969   6.096   3.257   9.361 -0.0975  0.0049  1.3627
  145SAPE  H15R15970   6.071   3.359   9.391 -0.4641  0.1549  0.5720
  145SAPE  C21615971   6.180   3.237   9.236  0.1556 -0.1127 -0.2775
  145SAPE  H16R15972   6.265   3.166   9.246 -0.3663 -0.8864 -1.1451
  145SAPE  H16S15973   6.228   3.337   9.222 -1.2479  1.5406  4.6132
  145SAPE  C21715974   6.105   3.201   9.103  0.9886 -0.1158  0.0219
  145SAPE  H17R15975   6.013   3.262   9.114  1.3497  0.3815  0.3597
  145SAPE  H17S15976   6.075   3.095   9.090  2.0755 -0.2004 -2.3112
  145SAPE  C21815977   6.177   3.247   8.972 -0.4654  0.4236  0.9756
  145SAPE  H18R15978   6.266   3.182   8.959 -1.5807 -0.8978 -0.4383
  145SAPE  H18S15979   6.227   3.346   8.975  4.2511 -1.5256 -1.5149
  145SAPE  C21915980   6.091   3.240   8.844 -0.4193 -0.1741  0.2508
  145SAPE  H19R15981   6.008   3.313   8.860  0.5318  1.0855 -0.3129
  145SAPE  H19S15982   6.047   3.139   8.843  2.9740 -1.8149  0.9877
  145SAPE  C22015983   6.168   3.265   8.716  0.1956 -0.2235 -0.3766
  145SAPE  H20R15984   6.259   3.202   8.705 -1.1892 -2.5349  0.7540
  145SAPE  H20S15985   6.217   3.365   8.713  0.2028 -0.2196 -0.1407
  145SAPE  H20T15986   6.116   3.252   8.619 -0.9611  0.7609  0.0798
  145SAPE   C3315987   6.166   2.685  10.134 -0.2674  0.1383 -0.4916
  145SAPE   H3X15988   6.191   2.770  10.200  0.0456 -1.8746  2.1429
  145SAPE   H3Y15989   6.056   2.670  10.145 -0.7106  2.2675 -1.5671
  145SAPE   C3415990   6.181   2.729   9.987 -0.2711  0.4972 -0.1802
  145SAPE   H4X15991   6.089   2.785   9.963 -1.3381 -1.2356 -0.3057
  145SAPE   H4Y15992   6.181   2.646   9.914 -1.3402  1.1790 -0.9766
  145SAPE   C3515993   6.304   2.816   9.964 -0.4025  0.5969 -0.4504
  145SAPE   H5X15994   6.387   2.745   9.987 -0.2023  0.8156 -0.5002
  145SAPE   H5Y15995   6.295   2.903  10.031  0.6357  1.7130 -1.6892
  145SAPE   C3615996   6.319   2.863   9.820 -0.3318  0.0230  0.4250
  145SAPE   H6X15997   6.230   2.924   9.793  1.0110  2.3938  1.0572
  145SAPE   H6Y15998   6.339   2.776   9.754 -0.2483  0.4126 -0.0739
  145SAPE   C3715999   6.440   2.950   9.792 -0.2260 -0.0477  0.4775
  145SAPE   H7X16000   6.531   2.896   9.826  0.5869  1.9724  1.6597
  145SAPE   H7Y16001   6.442   3.047   9.845 -0.4901  0.9264 -1.2155
  145SAPE   C3816002   6.446   2.976   9.646  0.2975  0.3512  0.0998
  145SAPE   H8X16003   6.365   3.051   9.633  1.2013  1.2141 -0.7523
  145SAPE   H8Y16004   6.425   2.885   9.586 -0.8190  1.3933 -1.1733
  145SAPE   C3916005   6.577   3.046   9.613 -0.5035 -0.2776 -0.2584
  145SAPE   H9X16006   6.660   2.975   9.635 -1.4518 -0.9050  1.4919
  145SAPE   H9Y16007   6.605   3.124   9.687 -0.8219  0.4139 -0.8491
  145SAPE  C31016008   6.576   3.096   9.476 -0.3945  0.3856  0.0346
  145SAPE  H10X16009   6.521   3.027   9.408 -0.3240  0.6535 -0.2977
  145SAPE  H10Y16010   6.681   3.097   9.438  0.1808 -0.1642  1.5483
  145SAPE  C31116011   6.522   3.240   9.451 -0.1867 -0.0047  0.8266
  145SAPE  H11X16012   6.559   3.315   9.523 -0.9130  2.1390 -0.9020
  145SAPE  H11Y16013   6.411   3.231   9.453 -0.1159 -1.2517  0.1737
  145SAPE  C31216014   6.569   3.303   9.323  0.4132  0.0940  0.3391
  145SAPE  H12X16015   6.572   3.223   9.246 -0.2773  0.5200 -0.1329
  145SAPE  H12Y16016   6.676   3.330   9.337  1.4409 -2.1226 -2.2044
  145SAPE  C31316017   6.489   3.430   9.270 -0.1120  0.5956 -0.1894
  145SAPE  H13X16018   6.446   3.466   9.366 -1.7035 -3.5314  0.8274
  145SAPE  H13Y16019   6.406   3.388   9.210 -1.4961  0.7856  1.5101
  145SAPE  C31416020   6.571   3.535   9.197 -0.6496 -0.3325  0.5292
  145SAPE  H14X16021   6.623   3.475   9.119 -0.1154  0.0995  0.5483
  145SAPE  H14Y16022   6.652   3.562   9.268 -0.1676  0.3458 -0.2571
  145SAPE  C31516023   6.500   3.651   9.126 -0.6059 -0.1483  0.3016
  145SAPE  H15X16024   6.431   3.706   9.194 -1.4557 -1.3993  0.4751
  145SAPE  H15Y16025   6.438   3.608   9.045  2.3695 -2.5268 -0.9199
  145SAPE  C31616026   6.606   3.748   9.067  0.6244 -0.7599 -0.5348
  145SAPE  H16X16027   6.680   3.697   9.002  2.5350  0.3548  0.6946
  145SAPE  H16Y16028   6.664   3.803   9.144  0.9246  0.5516 -1.6528
  145SAPE  C31716029   6.542   3.856   8.987 -0.4912 -0.2783  0.2047
  145SAPE  H17X16030   6.466   3.909   9.048 -0.8514  1.2242 -1.4485
  145SAPE  H17Y16031   6.489   3.812   8.899 -0.6166  1.5233 -0.6828
  145SAPE  C31816032   6.642   3.952   8.932  0.5638  0.1402  0.0315
  145SAPE  H18X16033   6.584   4.032   8.881 -1.8169 -1.2620  0.3957
  145SAPE  H18Y16034   6.717   3.916   8.859  0.9336  3.1329 -1.2350
  145SAPE  H18Z16035   6.692   4.016   9.007  1.2934  0.5075 -0.7496
  146SAPE     N16036   5.186   4.626  10.862 -0.1152 -0.1426  0.1324
  146SAPE   HN116037   5.218   4.552  10.927  1.6515 -1.1757 -1.7877
  146SAPE   HN216038   5.128   4.694  10.915 -1.1819  0.4594 -1.6983
  146SAPE   HN316039   5.127   4.587  10.786 -1.4284  1.8874  0.0195
  146SAPE   C1216040   5.313   4.686  10.818  0.4012  0.0206 -0.1211
  146SAPE  H12A16041   5.387   4.693  10.900  0.7438 -1.3536 -0.2865
  146SAPE  H12B16042   5.291   4.783  10.768  1.1784 -1.1065 -2.8624
  146SAPE   C1116043   5.379   4.587  10.722  0.3913 -0.2908  0.5920
  146SAPE  H11A16044   5.459   4.641  10.666  1.5847 -2.2114  0.3658
  146SAPE  H11B16045   5.311   4.562  10.638  2.9005 -0.9939 -1.3389
  146SAPE     P16046   5.476   4.344  10.692  0.1091 -0.5000 -0.5840
  146SAPE   O1316047   5.620   4.336  10.720  0.6619 -0.0998  0.0426
  146SAPE   O1416048   5.408   4.220  10.715  0.3995  0.7224  0.0782
  146SAPE   O1216049   5.420   4.467  10.786 -0.3055  0.1325  0.0579
  146SAPE   O1116050   5.448   4.394  10.537  0.5504 -0.0209 -0.4843
  146SAPE    C116051   5.556   4.452  10.460 -0.1405 -0.0637 -0.5596
  146SAPE    HA16052   5.590   4.546  10.508  2.2619 -1.5389  0.8478
  146SAPE    HB16053   5.638   4.380  10.438  1.0667  1.0245  0.2493
  146SAPE    C216054   5.499   4.503  10.322  0.2089  1.0594 -0.1823
  146SAPE    HS16055   5.411   4.564  10.352 -1.2868 -0.4851 -1.2608
  146SAPE   O2116056   5.470   4.383  10.243 -0.1067 -0.3709 -0.4984
  146SAPE   C2116057   5.393   4.394  10.134 -0.0703  0.3994 -0.7185
  146SAPE   O2216058   5.349   4.495  10.085  0.1637 -0.3066 -0.5838
  146SAPE   C2216059   5.375   4.251  10.076 -0.9677  0.7700  0.0375
  146SAPE   H2R16060   5.415   4.185  10.156 -1.7568  0.9111  0.5658
  146SAPE   H2S16061   5.264   4.239  10.080 -1.1160  2.1180  3.4224
  146SAPE    C316062   5.609   4.591  10.251  0.3007 -0.0117 -0.6560
  146SAPE    HX16063   5.678   4.505  10.235 -2.7276 -2.6730 -0.5392
  146SAPE    HY16064   5.634   4.664  10.331 -0.1592  0.0222 -0.5404
  146SAPE   O3116065   5.584   4.637  10.123 -0.2288  0.0471  0.4778
  146SAPE   C3116066   5.511   4.751  10.121  0.0482  0.7890  0.0279
  146SAPE   O3216067   5.497   4.823  10.217 -0.1942  0.0326  0.0043
  146SAPE   C3216068   5.460   4.773   9.974 -0.6966  0.7252  0.7495
  146SAPE   H2X16069   5.426   4.878   9.965  2.0646  1.8132  1.8442
  146SAPE   H2Y16070   5.370   4.710   9.961 -0.1858 -0.1707  1.3720
  146SAPE   C2316071   5.435   4.245   9.937 -0.7590  0.1360 -0.2160
  146SAPE   H3R16072   5.356   4.293   9.874 -2.9383  1.2739  3.0938
  146SAPE   H3S16073   5.458   4.139   9.914 -0.7133  0.3798 -1.3185
  146SAPE   C2416074   5.563   4.341   9.924  0.0142 -0.3668 -0.5180
  146SAPE   H4R16075   5.622   4.320  10.016 -0.1902  1.8570  0.1783
  146SAPE   H4S16076   5.535   4.448   9.924 -0.7160 -0.5270 -2.0429
  146SAPE   C2516077   5.656   4.303   9.811  0.7334 -0.6731  0.3676
  146SAPE   H5R16078   5.751   4.266   9.853 -0.7960 -4.2940  1.0229
  146SAPE   C2616079   5.654   4.325   9.680 -0.1583  0.1106 -0.4049
  146SAPE   H6R16080   5.732   4.286   9.613  0.5351  3.0844 -1.4331
  146SAPE   C2716081   5.539   4.375   9.606  0.5516  0.3853  0.7527
  146SAPE   H7R16082   5.554   4.479   9.570 -0.2023 -0.6476 -2.9245
  146SAPE   H7S16083   5.449   4.372   9.671  1.0068 -1.2291  1.3731
  146SAPE   C2816084   5.523   4.281   9.489  0.3532 -0.5406  0.3603
  146SAPE   H8R16085   5.515   4.174   9.514  1.6562 -0.5834  0.7063
  146SAPE   C2916086   5.495   4.319   9.359  0.7491  0.0696 -0.0469
  146SAPE   H9R16087   5.504   4.241   9.282  0.5986 -2.2371  2.1352
  146SAPE  C21016088   5.478   4.451   9.296  0.6992 -0.2302  0.8889
  146SAPE  H10R16089   5.570   4.497   9.253  1.1309 -1.7945  0.0312
  146SAPE  H10S16090   5.433   4.522   9.368 -3.0972 -1.2878 -0.2080
  146SAPE  C21116091   5.380   4.436   9.179 -0.3061 -0.8868  0.9651
  146SAPE  H11R16092   5.278   4.417   9.214 -0.8611  1.1066  0.5572
  146SAPE  C21216093   5.403   4.438   9.044  0.0053 -0.2725 -0.5349
  146SAPE  H12R16094   5.321   4.413   8.974 -0.1060 -1.4662 -0.0049
  146SAPE  C21316095   5.541   4.453   8.973 -0.1749 -0.2652 -1.6144
  146SAPE  H13R16096   5.600   4.362   8.997 -1.1519 -0.5025  0.0385
  146SAPE  H13S16097   5.585   4.542   9.023 -0.5258  0.7026 -2.9395
  146SAPE  C21416098   5.529   4.479   8.830  0.5266  0.0478  0.4482
  146SAPE  H14R16099   5.534   4.585   8.799  0.1699 -0.5523 -1.8176
  146SAPE  C21516100   5.515   4.394   8.730  0.7010 -0.8531 -0.3584
  146SAPE  H15R16101   5.524   4.442   8.631 -0.9485 -0.5215 -0.3757
  146SAPE  C21616102   5.510   4.240   8.738 -0.3217  0.0287  0.1708
  146SAPE  H16R16103   5.406   4.205   8.721 -0.5452  0.0528  1.4103
  146SAPE  H16S16104   5.543   4.207   8.838 -1.3618  0.1225  0.5607
  146SAPE  C21716105   5.627   4.175   8.648  1.0886  0.4058  0.1786
  146SAPE  H17R16106   5.728   4.198   8.689  0.6892 -1.8720  2.6560
  146SAPE  H17S16107   5.609   4.213   8.545 -0.2280  0.3661  0.3802
  146SAPE  C21816108   5.620   4.019   8.634 -0.2209 -0.2711 -0.1144
  146SAPE  H18R16109   5.707   3.978   8.579  0.5535 -1.6203  1.9722
  146SAPE  H18S16110   5.525   3.984   8.588 -0.1601 -0.4870 -0.0717
  146SAPE  C21916111   5.640   3.967   8.781  0.2631 -0.0721  0.2985
  146SAPE  H19R16112   5.565   4.006   8.852  0.4168 -1.2676  1.1479
  146SAPE  H19S16113   5.734   4.006   8.826 -1.1304  0.8846  2.5359
  146SAPE  C22016114   5.648   3.812   8.805 -0.4520 -0.5010  0.7725
  146SAPE  H20R16115   5.751   3.782   8.834 -0.5906 -0.0994  1.7033
  146SAPE  H20S16116   5.605   3.755   8.719  1.5134  0.5811 -1.0376
  146SAPE  H20T16117   5.582   3.785   8.889 -1.3803  1.2336  0.6394
  146SAPE   C3316118   5.567   4.758   9.865  0.0538 -0.0521  0.2763
  146SAPE   H3X16119   5.604   4.654   9.876 -0.5798 -0.6126 -2.3186
  146SAPE   H3Y16120   5.648   4.833   9.881  0.6411 -0.1003 -2.1064
  146SAPE   C3416121   5.502   4.777   9.727 -0.0761 -0.7362 -0.0065
  146SAPE   H4X16122   5.453   4.876   9.718  0.4626 -0.4370  0.2747
  146SAPE   H4Y16123   5.421   4.705   9.706 -2.6877  2.5749 -2.3267
  146SAPE   C3516124   5.601   4.775   9.606 -0.3870 -0.0397  0.1241
  146SAPE   H5X16125   5.639   4.671   9.600 -0.4184  0.0121 -1.1641
  146SAPE   H5Y16126   5.679   4.853   9.621 -1.5812  1.1299  0.4910
  146SAPE   C3616127   5.524   4.794   9.475  0.4661  0.3301 -0.5262
  146SAPE   H6X16128   5.441   4.867   9.482  1.3704  1.5844 -2.1504
  146SAPE   H6Y16129   5.475   4.696   9.462  1.2910 -0.5918  2.4697
  146SAPE   C3716130   5.620   4.833   9.359  1.4013 -0.1943  0.4261
  146SAPE   H7X16131   5.698   4.754   9.356  0.7631 -0.8257 -2.2958
  146SAPE   H7Y16132   5.671   4.930   9.371  0.6353  0.3225 -0.3462
  146SAPE   C3816133   5.551   4.840   9.218 -0.2097 -0.2219 -0.1124
  146SAPE   H8X16134   5.538   4.735   9.185  2.3064 -0.1637 -1.6145
  146SAPE   H8Y16135   5.633   4.887   9.159  0.1904 -0.2374  0.4218
  146SAPE   C3916136   5.416   4.922   9.209 -0.3035 -0.5279  0.3497
  146SAPE   H9X16137   5.442   5.029   9.197 -1.9544 -0.1334  0.0374
  146SAPE   H9Y16138   5.369   4.908   9.309 -1.8865  0.8976 -0.1508
  146SAPE  C31016139   5.312   4.861   9.110 -0.0742  0.0709  0.6459
  146SAPE  H10X16140   5.216   4.914   9.133  0.2491  0.6382  0.7116
  146SAPE  H10Y16141   5.308   4.753   9.133 -2.3148  0.1152  0.6910
  146SAPE  C31116142   5.367   4.875   8.965 -0.9375 -0.4219  0.5442
  146SAPE  H11X16143   5.470   4.834   8.968  0.1211  2.1299  3.3134
  146SAPE  H11Y16144   5.387   4.982   8.948  1.4722 -0.6099  1.8812
  146SAPE  C31216145   5.281   4.810   8.867  0.2743 -0.4446  0.5418
  146SAPE  H12X16146   5.184   4.861   8.853  0.5634 -0.3752 -1.6167
  146SAPE  H12Y16147   5.254   4.708   8.901 -1.6171 -0.3025 -0.4402
  146SAPE  C31316148   5.349   4.818   8.728 -0.1191 -0.4818  0.0270
  146SAPE  H13X16149   5.436   4.749   8.726 -1.0624 -1.7319 -2.4629
  146SAPE  H13Y16150   5.382   4.923   8.713  0.8117 -0.4508  1.9490
  146SAPE  C31416151   5.255   4.778   8.618  0.1360 -0.0236 -1.3044
  146SAPE  H14X16152   5.161   4.831   8.645  0.0588  0.0786 -1.7621
  146SAPE  H14Y16153   5.228   4.671   8.632  0.3018 -0.1470 -1.8890
  146SAPE  C31516154   5.288   4.810   8.474  0.8928 -0.2492  0.0464
  146SAPE  H15X16155   5.379   4.755   8.441  0.2199 -0.5860 -1.3284
  146SAPE  H15Y16156   5.309   4.918   8.489 -1.7450 -0.0397  3.4697
  146SAPE  C31616157   5.182   4.784   8.370  0.3631  0.4379 -0.1883
  146SAPE  H16X16158   5.178   4.675   8.351 -1.6500  0.6167 -1.1076
  146SAPE  H16Y16159   5.216   4.819   8.271 -2.1071  0.8112 -0.9784
  146SAPE  C31716160   5.050   4.844   8.405  0.9263 -0.3743  0.2363
  146SAPE  H17X16161   5.069   4.951   8.429 -0.4835 -0.1969  0.6840
  146SAPE  H17Y16162   5.015   4.803   8.502  1.3340  0.6260  0.8198
  146SAPE  C31816163   4.939   4.830   8.300  0.9181 -0.2261  0.6907
  146SAPE  H18X16164   4.853   4.885   8.345  0.4334 -0.3316 -0.0988
  146SAPE  H18Y16165   4.907   4.725   8.282 -0.8895 -0.2684  3.4260
  146SAPE  H18Z16166   4.956   4.889   8.208  2.1741 -1.5277  0.0446
  147SAPE     N16167   5.202   0.867  10.635  0.2160  0.6350  0.0893
  147SAPE   HN116168   5.219   0.930  10.716  2.2958 -0.7383  0.7778
  147SAPE   HN216169   5.161   0.775  10.659 -0.4856  0.4381 -1.7001
  147SAPE   HN316170   5.294   0.843  10.593  1.8454  0.7194  3.3754
  147SAPE   C1216171   5.102   0.934  10.544 -0.3713  0.8296  0.0079
  147SAPE  H12A16172   5.102   0.866  10.456 -1.4178 -0.5304  1.0079
  147SAPE  H12B16173   5.145   1.031  10.512  3.5364 -1.2235 -1.7279
  147SAPE   C1116174   4.969   0.930  10.612 -0.6681 -0.2276 -0.0818
  147SAPE  H11A16175   4.899   0.995  10.555 -0.2243 -0.5947 -1.0663
  147SAPE  H11B16176   4.968   0.972  10.715 -1.1603 -0.4519  0.0064
  147SAPE     P16177   4.796   0.753  10.702 -0.2235 -0.2694 -0.1395
  147SAPE   O1316178   4.824   0.637  10.789  0.4045  0.0355  0.2331
  147SAPE   O1416179   4.752   0.879  10.768  0.3645 -0.1725  0.0621
  147SAPE   O1216180   4.931   0.789  10.627  0.0200  0.1766  0.0187
  147SAPE   O1116181   4.699   0.709  10.587 -0.3895  0.0408 -0.8675
  147SAPE    C116182   4.743   0.628  10.480 -0.4466  0.3367 -0.1619
  147SAPE    HA16183   4.809   0.546  10.517 -0.7112 -0.4886 -1.4372
  147SAPE    HB16184   4.657   0.567  10.443 -0.9793 -0.7727  2.6254
  147SAPE    C216185   4.817   0.693  10.355  0.3006 -0.2611  0.0678
  147SAPE    HS16186   4.912   0.740  10.388  0.5565 -1.5942  1.3370
  147SAPE   O2116187   4.734   0.789  10.288  0.2633 -0.7752  0.5833
  147SAPE   C2116188   4.778   0.914  10.263 -0.1461 -0.0604 -0.1070
  147SAPE   O2216189   4.895   0.949  10.276 -0.7417  0.4665 -0.4196
  147SAPE   C2216190   4.662   1.001  10.204 -0.5371  0.4560 -0.4918
  147SAPE   H2R16191   4.605   1.040  10.291 -0.0687 -0.7042  0.3580
  147SAPE   H2S16192   4.714   1.084  10.152  0.6602  0.5346  0.7803
  147SAPE    C316193   4.864   0.578  10.258 -0.4369 -0.0721  0.4930
  147SAPE    HX16194   4.776   0.510  10.248  0.7094 -1.4751 -0.4510
  147SAPE    HY16195   4.946   0.524  10.309  0.8264 -0.4927 -1.8684
  147SAPE   O3116196   4.911   0.631  10.127 -0.7353 -0.7848  0.3924
  147SAPE   C3116197   4.921   0.536  10.030  1.1659  0.3763 -0.3484
  147SAPE   O3216198   4.909   0.414  10.055  0.1719 -0.1740  0.3167
  147SAPE   C3216199   4.945   0.603   9.903 -0.6001  0.3591  0.8663
  147SAPE   H2X16200   5.042   0.656   9.900 -1.2974  1.6007 -0.8307
  147SAPE   H2Y16201   4.870   0.680   9.878 -0.4105 -0.3584 -2.4125
  147SAPE   C2316202   4.579   0.919  10.102  0.2243  0.1144  0.5401
  147SAPE   H3R16203   4.492   0.878  10.159 -0.5685  1.2539  0.1840
  147SAPE   H3S16204   4.633   0.835  10.055  0.1532  0.5040 -0.2491
  147SAPE   C2416205   4.526   1.014   9.984  0.3543 -0.5235  0.2564
  147SAPE   H4R16206   4.476   1.099  10.035 -0.4598 -1.9056  1.8649
  147SAPE   H4S16207   4.437   0.960   9.946 -0.8118  0.4922  1.4241
  147SAPE   C2516208   4.641   1.066   9.896  0.1337  0.7859 -0.6834
  147SAPE   H5R16209   4.682   1.165   9.922  0.2637  0.0620  2.2039
  147SAPE   C2616210   4.676   1.009   9.782 -0.6604  0.1462  0.3978
  147SAPE   H6R16211   4.745   1.056   9.710 -0.8511  0.2691  0.2931
  147SAPE   C2716212   4.618   0.879   9.733  0.4970 -0.1981 -0.1814
  147SAPE   H7R16213   4.558   0.827   9.811  0.1965 -1.6259 -1.3230
  147SAPE   H7S16214   4.700   0.805   9.720  1.4715  0.9980 -1.1204
  147SAPE   C2816215   4.528   0.900   9.619 -0.0912  0.7115 -0.4017
  147SAPE   H8R16216   4.419   0.900   9.637  0.3104 -0.8133  2.7512
  147SAPE   C2916217   4.566   0.896   9.488  0.4746 -0.5594  0.8960
  147SAPE   H9R16218   4.500   0.908   9.401 -0.8132 -2.0771  1.5930
  147SAPE  C21016219   4.713   0.876   9.445  0.0119  1.3023 -0.1125
  147SAPE  H10R16220   4.753   0.808   9.523 -1.6747 -1.4747 -1.4755
  147SAPE  H10S16221   4.753   0.979   9.447  3.5566  0.0983 -1.4905
  147SAPE  C21116222   4.745   0.805   9.312  0.2474 -0.2337 -0.2616
  147SAPE  H11R16223   4.784   0.703   9.325 -1.3992 -0.8364  0.1325
  147SAPE  C21216224   4.726   0.859   9.191 -0.5825 -0.4304 -0.4192
  147SAPE  H12R16225   4.742   0.783   9.113 -1.5755 -1.8805  0.7369
  147SAPE  C21316226   4.686   1.003   9.154 -0.8997  0.2456  0.4671
  147SAPE  H13R16227   4.615   1.034   9.234 -1.9053  1.6730 -0.9143
  147SAPE  H13S16228   4.633   1.010   9.057 -0.8466 -0.7180  0.3575
  147SAPE  C21416229   4.804   1.101   9.154 -0.5234 -0.0561  0.1027
  147SAPE  H14R16230   4.824   1.160   9.245 -0.4460  0.1903 -0.0749
  147SAPE  C21516231   4.898   1.115   9.058  0.6555  0.1793  0.4621
  147SAPE  H15R16232   4.980   1.188   9.061  0.1158  0.7675  2.1505
  147SAPE  C21616233   4.894   1.039   8.926  0.2858  0.0755 -0.4555
  147SAPE  H16R16234   4.790   1.005   8.909 -0.8544  2.9377  0.3229
  147SAPE  H16S16235   4.967   0.955   8.927  0.2211 -0.0229  1.9790
  147SAPE  C21716236   4.918   1.143   8.819 -0.7300 -0.1545  0.3162
  147SAPE  H17R16237   4.921   1.088   8.723 -0.3297  0.7845 -0.2174
  147SAPE  H17S16238   5.015   1.194   8.834 -0.1867 -0.4879 -1.7383
  147SAPE  C21816239   4.816   1.263   8.817 -0.0119  0.1350  0.6410
  147SAPE  H18R16240   4.811   1.314   8.915 -1.7519  2.0843 -0.3934
  147SAPE  H18S16241   4.715   1.223   8.792 -0.3595  2.5420 -2.4927
  147SAPE  C21916242   4.839   1.363   8.701 -0.6058 -0.2072 -0.5309
  147SAPE  H19R16243   4.937   1.328   8.661 -0.2978 -1.3134  1.0952
  147SAPE  H19S16244   4.863   1.464   8.741  0.6512 -0.7923  0.2583
  147SAPE  C22016245   4.735   1.363   8.598  0.1117  0.0567  0.4834
  147SAPE  H20R16246   4.788   1.406   8.510 -0.6451  1.3747  0.6362
  147SAPE  H20S16247   4.646   1.429   8.612  1.0094  1.2307  0.8052
  147SAPE  H20T16248   4.716   1.260   8.560 -2.4871  1.0096 -1.0647
  147SAPE   C3316249   4.947   0.498   9.783  0.2907  0.3124 -1.1213
  147SAPE   H3X16250   4.840   0.469   9.775 -0.3005  1.1061  2.2892
  147SAPE   H3Y16251   4.997   0.405   9.818 -2.5428 -0.6394  0.7268
  147SAPE   C3416252   4.986   0.545   9.644 -0.2460 -0.1894 -0.3427
  147SAPE   H4X16253   5.079   0.605   9.651 -0.6033  0.2427  1.1597
  147SAPE   H4Y16254   4.916   0.628   9.619  3.7835  3.1710 -1.7191
  147SAPE   C3516255   4.993   0.435   9.539 -0.7278 -0.5659 -0.5599
  147SAPE   H5X16256   4.966   0.340   9.591  2.9283 -0.9514  0.9522
  147SAPE   H5Y16257   5.097   0.430   9.500 -0.5646  0.6271 -0.2919
  147SAPE   C3616258   4.895   0.464   9.428 -0.2290  0.7165 -0.4817
  147SAPE   H6X16259   4.918   0.549   9.361 -2.6547  2.2550  0.5065
  147SAPE   H6Y16260   4.794   0.493   9.464  0.5539  1.0071  1.5667
  147SAPE   C3716261   4.873   0.334   9.350  0.1491  0.2378  0.2573
  147SAPE   H7X16262   4.852   0.248   9.417  0.8753 -0.3378 -0.2377
  147SAPE   H7Y16263   4.971   0.302   9.308 -1.1053 -1.0894 -1.8604
  147SAPE   C3816264   4.773   0.333   9.230  0.5346 -0.4533  0.6591
  147SAPE   H8X16265   4.811   0.411   9.161  0.3845 -1.7385 -0.9241
  147SAPE   H8Y16266   4.673   0.370   9.263 -0.4775 -0.2981 -2.3213
  147SAPE   C3916267   4.735   0.197   9.179  0.1964 -0.6291  0.4926
  147SAPE   H9X16268   4.639   0.210   9.126  0.8630  1.2096 -0.3545
  147SAPE   H9Y16269   4.715   0.139   9.272  0.2413  0.8055  1.4405
  147SAPE  C31016270   4.837   0.121   9.098 -0.0160  0.8654 -0.0240
  147SAPE  H10X16271   4.803   0.016   9.089 -2.0339  1.1927  2.5238
  147SAPE  H10Y16272   4.926   0.118   9.164  0.8797  2.2163 -1.0909
  147SAPE  C31116273   4.867   0.180   8.965  0.1159  0.3110 -0.6223
  147SAPE  H11X16274   4.926   0.274   8.964 -2.1747  1.8357 -0.2215
  147SAPE  H11Y16275   4.770   0.221   8.930  0.8144  1.4541 -1.2951
  147SAPE  C31216276   4.920   0.090   8.859 -0.7389  0.3067  0.3486
  147SAPE  H12X16277   4.996   0.021   8.903  0.2008  0.2727 -1.2479
  147SAPE  H12Y16278   4.975   0.142   8.777  1.0921 -1.2391  0.5182
  147SAPE  C31316279   4.818   0.002   8.786  0.0487 -0.2934 -0.5311
  147SAPE  H13X16280   4.734   0.067   8.756 -1.9745 -1.8358  1.4139
  147SAPE  H13Y16281   4.785  -0.070   8.865 -0.9565 -0.0891 -0.7543
  147SAPE  C31416282   4.881  -0.074   8.663 -0.1469 -0.8485  0.5174
  147SAPE  H14X16283   4.808  -0.146   8.619 -1.4651  1.8319 -1.9923
  147SAPE  H14Y16284   4.966  -0.129   8.708  1.7392  1.0002 -0.6277
  147SAPE  C31516285   4.944   0.008   8.548  0.3516 -0.8221  0.6143
  147SAPE  H15X16286   4.989  -0.057   8.470  1.0792  1.1816 -0.7545
  147SAPE  H15Y16287   5.033   0.055   8.595  0.4677 -0.8034  0.3815
  147SAPE  C31616288   4.854   0.113   8.479  0.2011 -0.1544 -0.4332
  147SAPE  H16X16289   4.808   0.183   8.551  3.0416 -0.4624  1.8416
  147SAPE  H16Y16290   4.779   0.048   8.428  0.8888 -2.4317  1.2859
  147SAPE  C31716291   4.922   0.200   8.371  0.0286  0.7870  0.3069
  147SAPE  H17X16292   4.838   0.247   8.315  0.3735  0.9139 -0.1104
  147SAPE  H17Y16293   4.964   0.129   8.297 -0.5867  3.1251 -2.5171
  147SAPE  C31816294   5.010   0.305   8.415 -0.1810 -0.0736 -0.4904
  147SAPE  H18X16295   5.066   0.347   8.329 -1.7122 -0.0921 -1.5347
  147SAPE  H18Y16296   5.060   0.277   8.510 -3.6756 -0.6420  1.3319
  147SAPE  H18Z16297   4.948   0.383   8.466  0.5557  0.7391 -0.8028
  148SAPE     N16298   1.286   1.706  10.533  0.0076  0.2709  0.0701
  148SAPE   HN116299   1.317   1.750  10.622 -1.9093  1.3971  0.2380
  148SAPE   HN216300   1.182   1.710  10.532 -0.0268 -0.5318  0.2218
  148SAPE   HN316301   1.309   1.606  10.521  1.6942  0.1700  3.0395
  148SAPE   C1216302   1.315   1.785  10.410  0.0751  0.3484 -0.1648
  148SAPE  H12A16303   1.424   1.777  10.387  0.2645 -2.9123  1.2435
  148SAPE  H12B16304   1.292   1.891  10.432  0.9402  0.3549  0.7775
  148SAPE   C1116305   1.209   1.738  10.307 -0.0930  0.9624 -0.1823
  148SAPE  H11A16306   1.226   1.632  10.279  0.1172  0.6279  1.1660
  148SAPE  H11B16307   1.225   1.800  10.216 -0.8237  1.8257  0.2575
  148SAPE     P16308   0.961   1.652  10.370 -0.2966 -0.5135 -0.2404
  148SAPE   O1316309   1.027   1.548  10.451 -0.3734 -0.5785  0.3077
  148SAPE   O1416310   0.844   1.726  10.419  0.0311 -0.3239  0.2673
  148SAPE   O1216311   1.080   1.761  10.365 -0.5948  0.0643  0.2909
  148SAPE   O1116312   0.942   1.613  10.209  0.1650  0.0519 -0.6676
  148SAPE    C116313   0.934   1.706  10.108  0.1221  0.1250 -0.0567
  148SAPE    HA16314   0.892   1.804  10.138 -1.1197 -1.0891  2.5569
  148SAPE    HB16315   1.033   1.739  10.070  0.0141 -0.8679 -1.2530
  148SAPE    C216316   0.852   1.658   9.987  0.1637  0.3824  0.0521
  148SAPE    HS16317   0.750   1.641  10.029 -1.3610  3.0011 -2.2499
  148SAPE   O2116318   0.907   1.533   9.933 -0.2504  0.1285  0.4087
  148SAPE   C2116319   0.818   1.450   9.888  0.0552 -0.3656 -0.5018
  148SAPE   O2216320   0.697   1.464   9.887 -0.2408 -0.1004 -0.4099
  148SAPE   C2216321   0.871   1.316   9.844 -0.5889  0.5037  0.2764
  148SAPE   H2R16322   0.933   1.275   9.927 -1.1747  0.7172  0.8234
  148SAPE   H2S16323   0.780   1.257   9.821 -0.5568  0.7386 -0.4914
  148SAPE    C316324   0.844   1.771   9.884 -0.6828  0.2748 -0.1223
  148SAPE    HX16325   0.948   1.785   9.849 -0.0394  0.6858  1.8222
  148SAPE    HY16326   0.807   1.870   9.918 -1.7201 -0.2167  0.2228
  148SAPE   O3116327   0.764   1.730   9.772  0.3940 -0.1261 -0.6425
  148SAPE   C3116328   0.635   1.743   9.782  0.1829  0.0736  0.1678
  148SAPE   O3216329   0.576   1.803   9.872  0.2752  0.5853  0.1341
  148SAPE   C3216330   0.565   1.663   9.664 -0.0787  0.4997  0.6485
  148SAPE   H2X16331   0.612   1.564   9.645  0.7735  1.3693 -2.2139
  148SAPE   H2Y16332   0.578   1.723   9.572  0.3887  1.1746  1.1419
  148SAPE   C2316333   0.969   1.348   9.725  0.0130 -1.1677  0.0247
  148SAPE   H3R16334   1.035   1.264   9.695  1.7526  0.3717 -0.6476
  148SAPE   H3S16335   1.040   1.425   9.762  1.2555 -2.5480  0.5929
  148SAPE   C2416336   0.906   1.399   9.593 -0.1546  0.1719 -0.4439
  148SAPE   H4R16337   0.988   1.417   9.520  0.2161 -1.2998 -0.4252
  148SAPE   H4S16338   0.859   1.499   9.606 -0.7998 -0.1979  0.1007
  148SAPE   C2516339   0.801   1.298   9.548 -0.3207  0.5295  0.8980
  148SAPE   H5R16340   0.783   1.212   9.614 -2.6582  1.3731  1.4868
  148SAPE   C2616341   0.732   1.309   9.435  0.2853 -0.2678 -0.4483
  148SAPE   H6R16342   0.644   1.242   9.428 -0.8955  0.8098  2.6531
  148SAPE   C2716343   0.745   1.416   9.326  0.5691  0.2559 -0.4800
  148SAPE   H7R16344   0.756   1.356   9.234  2.0904 -3.0646  1.6816
  148SAPE   H7S16345   0.844   1.467   9.331  1.0328 -0.6590 -0.0736
  148SAPE   C2816346   0.621   1.503   9.311 -0.4453 -0.2083  0.3386
  148SAPE   H8R16347   0.555   1.512   9.398 -0.4187  1.4329  0.2347
  148SAPE   C2916348   0.588   1.567   9.197  0.3290  0.4248 -0.2645
  148SAPE   H9R16349   0.499   1.631   9.200  0.4541  0.8691 -3.2418
  148SAPE  C21016350   0.665   1.550   9.066 -0.5236 -0.2351 -0.0994
  148SAPE  H10R16351   0.774   1.559   9.085 -0.7746 -0.7865  1.8382
  148SAPE  H10S16352   0.660   1.643   9.005  1.0430 -1.8701 -2.9814
  148SAPE  C21116353   0.636   1.432   8.977 -0.1540 -0.4126  0.3447
  148SAPE  H11R16354   0.715   1.356   8.980 -0.8881 -1.1827  0.4364
  148SAPE  C21216355   0.531   1.413   8.897  0.1933 -0.2061  0.2137
  148SAPE  H12R16356   0.544   1.331   8.825  0.4928 -0.9041  1.0375
  148SAPE  C21316357   0.402   1.495   8.895 -0.2610  0.2603 -0.4012
  148SAPE  H13R16358   0.398   1.573   8.974  0.4718 -1.9620  1.9514
  148SAPE  H13S16359   0.314   1.434   8.927 -0.5135 -0.4005 -2.2428
  148SAPE  C21416360   0.378   1.558   8.758 -0.6340  0.5318 -0.2017
  148SAPE  H14R16361   0.433   1.651   8.739  0.2653 -0.1525 -1.0726
  148SAPE  C21516362   0.290   1.517   8.668 -0.6404 -1.2924 -0.2111
  148SAPE  H15R16363   0.285   1.575   8.575  2.0773  1.7137  1.3143
  148SAPE  C21616364   0.196   1.402   8.674 -0.9796  0.8554  0.9599
  148SAPE  H16R16365   0.234   1.342   8.759  0.0270  0.3663  0.1817
  148SAPE  H16S16366   0.213   1.345   8.581  2.9116  0.3158  1.8213
  148SAPE  C21716367   0.057   1.457   8.697 -0.4416 -0.1110  0.1119
  148SAPE  H17R16368   0.033   1.539   8.626  0.9875  0.6490  0.4749
  148SAPE  H17S16369   0.061   1.498   8.800  1.1161  1.4645 -0.5189
  148SAPE  C21816370  -0.042   1.356   8.688 -0.4388  0.0525  0.3456
  148SAPE  H18R16371  -0.016   1.267   8.748 -0.5533  0.2824  0.7439
  148SAPE  H18S16372  -0.056   1.314   8.587 -3.5158 -2.1245  1.5253
  148SAPE  C21916373  -0.175   1.408   8.749  0.2992  0.0010 -0.0913
  148SAPE  H19R16374  -0.198   1.510   8.710 -3.3745 -1.6605 -2.8879
  148SAPE  H19S16375  -0.150   1.417   8.857 -0.4439  3.1980 -0.0719
  148SAPE  C22016376  -0.299   1.326   8.732  0.4296  0.7369  0.3840
  148SAPE  H20R16377  -0.283   1.232   8.790  0.1451  1.5467  1.8116
  148SAPE  H20S16378  -0.325   1.295   8.629  2.4152 -1.0239  0.3216
  148SAPE  H20T16379  -0.381   1.385   8.779  0.6373  0.1308  1.5648
  148SAPE   C3316380   0.412   1.622   9.689  0.6868  0.1615  0.1024
  148SAPE   H3X16381   0.356   1.715   9.715  1.7377  0.4456  1.5337
  148SAPE   H3Y16382   0.430   1.555   9.776  1.1914  1.0780  0.7187
  148SAPE   C3416383   0.335   1.559   9.585  0.0138  0.1012 -0.2610
  148SAPE   H4X16384   0.235   1.531   9.625 -0.4617  0.3269 -1.2651
  148SAPE   H4Y16385   0.388   1.467   9.550  0.0843 -0.5758  1.5209
  148SAPE   C3516386   0.319   1.641   9.456 -0.6214 -0.6737 -0.4620
  148SAPE   H5X16387   0.412   1.661   9.398 -1.0993  0.3961 -0.8897
  148SAPE   H5Y16388   0.294   1.747   9.477 -0.2674 -0.7731  0.5000
  148SAPE   C3616389   0.213   1.595   9.354 -0.4476 -0.6794  0.2817
  148SAPE   H6X16390   0.126   1.564   9.416 -1.9603  1.5691 -0.6119
  148SAPE   H6Y16391   0.248   1.503   9.303 -1.8206 -0.7227 -0.6359
  148SAPE   C3716392   0.183   1.694   9.242  0.3079  0.2622  0.2824
  148SAPE   H7X16393   0.272   1.702   9.176  0.5481 -0.3642  0.5169
  148SAPE   H7Y16394   0.159   1.792   9.288 -1.2413  0.9471 -1.8296
  148SAPE   C3816395   0.063   1.651   9.160  0.3277  0.0653  0.3656
  148SAPE   H8X16396  -0.028   1.687   9.212 -0.3390 -1.5041  0.3357
  148SAPE   H8Y16397   0.044   1.541   9.164  0.5202  0.0282  0.2959
  148SAPE   C3916398   0.056   1.700   9.011 -0.2132 -1.1112  0.0436
  148SAPE   H9X16399  -0.037   1.648   8.980 -1.1887  0.6568 -0.1307
  148SAPE   H9Y16400   0.147   1.667   8.955  1.9745 -0.7057  3.1186
  148SAPE  C31016401   0.040   1.853   8.995  0.0644 -0.7754 -0.4139
  148SAPE  H10X16402   0.126   1.921   9.011 -0.5300  0.1249 -0.9469
  148SAPE  H10Y16403  -0.029   1.890   9.074  1.1004  0.4585 -0.0575
  148SAPE  C31116404  -0.034   1.904   8.859  0.4814 -0.2972 -0.2015
  148SAPE  H11X16405  -0.047   2.014   8.863  2.9614  0.0174  0.7413
  148SAPE  H11Y16406  -0.135   1.858   8.850  0.5965 -0.6529  0.3221
  148SAPE  C31216407   0.051   1.855   8.737  0.2556  0.0337 -0.5796
  148SAPE  H12X16408   0.076   1.748   8.752  1.2331  0.5984  2.7257
  148SAPE  H12Y16409   0.152   1.901   8.743 -0.0537  0.5639  1.3041
  148SAPE  C31316410  -0.030   1.870   8.606  0.6260 -0.7659 -0.2619
  148SAPE  H13X16411  -0.124   1.810   8.608 -0.2800  0.6019 -0.4685
  148SAPE  H13Y16412   0.022   1.822   8.520  2.1292  0.6404 -0.1733
  148SAPE  C31416413  -0.058   2.012   8.567  0.3776  0.1964 -0.5651
  148SAPE  H14X16414   0.034   2.073   8.557 -0.4668  1.7543  0.8156
  148SAPE  H14Y16415  -0.131   2.052   8.640 -1.7011 -1.3052 -1.6992
  148SAPE  C31516416  -0.130   2.012   8.428  0.1600  0.1057  0.5419
  148SAPE  H15X16417  -0.222   2.075   8.428 -0.7237 -1.1408 -0.1078
  148SAPE  H15Y16418  -0.166   1.913   8.394 -1.2412  1.2829 -1.6863
  148SAPE  C31616419  -0.046   2.081   8.315 -0.4463  0.3998  0.2981
  148SAPE  H16X16420   0.031   2.007   8.283  0.9571 -0.3163  4.5936
  148SAPE  H16Y16421   0.015   2.157   8.367  1.6962 -2.1464  1.8037
  148SAPE  C31716422  -0.141   2.142   8.223  0.5439  0.4131 -0.3534
  148SAPE  H17X16423  -0.219   2.201   8.275  1.6468  1.8332 -0.2571
  148SAPE  H17Y16424  -0.204   2.064   8.174 -0.9490 -0.3402  2.5261
  148SAPE  C31816425  -0.087   2.240   8.132 -0.0852 -0.0599  0.8342
  148SAPE  H18X16426  -0.170   2.304   8.094 -1.1038 -0.2688  2.6181
  148SAPE  H18Y16427  -0.046   2.188   8.043  1.2368  0.5699  1.0584
  148SAPE  H18Z16428  -0.006   2.305   8.172 -0.6494  1.0845  0.1676
  149SAPE     N16429   1.941   6.758  10.636  0.2255 -0.2642 -0.7102
  149SAPE   HN116430   2.032   6.773  10.588  1.8941 -0.5044  2.1763
  149SAPE   HN216431   1.920   6.657  10.620  1.1024 -0.4333 -0.8737
  149SAPE   HN316432   1.874   6.815  10.581  3.0037  1.4316 -2.5943
  149SAPE   C1216433   1.948   6.813  10.777 -0.6589 -0.8620  0.4463
  149SAPE  H12A16434   1.967   6.922  10.783 -1.9523 -0.6934  2.7966
  149SAPE  H12B16435   2.037   6.760  10.819  0.8569  0.2328 -1.2482
  149SAPE   C1116436   1.821   6.785  10.856 -0.7062 -0.3336 -0.2425
  149SAPE  H11A16437   1.837   6.821  10.960 -0.5890  3.5937 -1.4451
  149SAPE  H11B16438   1.804   6.676  10.850  1.9865 -0.9512  1.3574
  149SAPE     P16439   1.564   6.857  10.827  0.1716 -0.1836 -0.0977
  149SAPE   O1316440   1.502   6.734  10.771  0.7041 -0.4687  0.1098
  149SAPE   O1416441   1.551   6.879  10.974 -0.2441  0.0925 -0.0868
  149SAPE   O1216442   1.720   6.861  10.794 -0.4265  0.6837 -0.3429
  149SAPE   O1116443   1.507   6.976  10.751 -0.0449  0.5177  0.2505
  149SAPE    C116444   1.569   7.026  10.634 -0.1211 -0.2423  0.5069
  149SAPE    HA16445   1.531   7.127  10.608 -1.8414 -1.0385 -0.2038
  149SAPE    HB16446   1.680   7.031  10.645 -0.0042 -2.3703  0.7645
  149SAPE    C216447   1.534   6.942  10.509 -0.7550 -0.5817  0.0208
  149SAPE    HS16448   1.562   6.838  10.536  0.0654 -1.4196 -3.5187
  149SAPE   O2116449   1.611   6.990  10.390 -0.2574 -0.2939 -0.1194
  149SAPE   C2116450   1.737   6.952  10.379  0.6908  0.5258 -0.3957
  149SAPE   O2216451   1.796   6.884  10.465  0.4742 -0.6230 -0.5828
  149SAPE   C2216452   1.781   6.994  10.241  0.2024  0.0767  0.4516
  149SAPE   H2R16453   1.707   6.968  10.162  0.5260 -0.6307  0.3739
  149SAPE   H2S16454   1.785   7.105  10.245  0.0098  0.1702 -1.2655
  149SAPE    C316455   1.372   6.940  10.487  0.3429 -0.1482 -0.0392
  149SAPE    HX16456   1.334   7.045  10.481  1.9531  0.4192 -0.9131
  149SAPE    HY16457   1.325   6.903  10.580  1.8147 -2.0684  0.0004
  149SAPE   O3116458   1.330   6.860  10.374  0.7824  0.6588  0.0160
  149SAPE   C3116459   1.314   6.724  10.389  0.2845 -0.0590 -0.4204
  149SAPE   O3216460   1.329   6.670  10.495  0.4729 -0.2562 -0.0356
  149SAPE   C3216461   1.279   6.660  10.251 -0.1360 -0.1716 -0.4650
  149SAPE   H2X16462   1.168   6.664  10.243 -0.1754  0.8853  0.4653
  149SAPE   H2Y16463   1.314   6.555  10.252  3.0829  0.7886 -1.2128
  149SAPE   C2316464   1.929   6.944  10.224  0.2320 -0.0949  0.3507
  149SAPE   H3R16465   1.980   6.961  10.322  1.1304  1.4346 -0.3596
  149SAPE   H3S16466   1.975   7.004  10.143 -1.7453 -2.3045 -2.6364
  149SAPE   C2416467   1.926   6.803  10.168 -0.1481  0.0626 -0.2895
  149SAPE   H4R16468   1.856   6.780  10.085 -0.5978  1.6104 -0.3536
  149SAPE   H4S16469   1.887   6.738  10.249  0.1545 -0.7372 -0.7697
  149SAPE   C2516470   2.067   6.759  10.138  0.2147 -0.2863 -0.2290
  149SAPE   H5R16471   2.149   6.764  10.211  1.9115 -0.3052 -2.0487
  149SAPE   C2616472   2.111   6.708  10.024  0.5052  0.9252 -0.6040
  149SAPE   H6R16473   2.219   6.695  10.010  0.8522  2.1062  0.7684
  149SAPE   C2716474   2.040   6.676   9.898 -0.0476 -0.0657 -0.3553
  149SAPE   H7R16475   2.088   6.726   9.812  0.2084 -0.8866 -0.6937
  149SAPE   H7S16476   1.942   6.728   9.897  0.4606  0.9446  0.5093
  149SAPE   C2816477   2.017   6.536   9.860  0.0990  0.6033 -0.6241
  149SAPE   H8R16478   2.054   6.458   9.928 -0.4653  0.4598 -0.4767
  149SAPE   C2916479   1.957   6.501   9.741 -0.2150  0.7290 -0.0762
  149SAPE   H9R16480   1.943   6.394   9.718  0.0931  0.8330 -0.7562
  149SAPE  C21016481   1.888   6.574   9.632  0.2985 -0.5975 -0.1180
  149SAPE  H10R16482   1.907   6.680   9.661  0.1165 -0.3737 -0.7966
  149SAPE  H10S16483   1.781   6.546   9.638  0.6268 -1.7443  0.6463
  149SAPE  C21116484   1.944   6.557   9.494 -0.0711  0.3576 -0.3172
  149SAPE  H11R16485   2.054   6.551   9.490  0.0384  0.9824  1.2012
  149SAPE  C21216486   1.866   6.551   9.381  0.1167 -1.0522  0.0680
  149SAPE  H12R16487   1.900   6.532   9.278  2.0707  2.1553 -0.0323
  149SAPE  C21316488   1.717   6.578   9.387 -0.3149  0.1813  0.1565
  149SAPE  H13R16489   1.719   6.681   9.430  0.7192 -0.5339  1.9782
  149SAPE  H13S16490   1.667   6.519   9.466  0.1381  0.0262  0.3345
  149SAPE  C21416491   1.642   6.564   9.255  0.7785  0.3416 -0.3737
  149SAPE  H14R16492   1.601   6.463   9.237 -2.6794  1.6569 -0.5378
  149SAPE  C21516493   1.626   6.655   9.161  0.6371 -0.7103  0.1424
  149SAPE  H15R16494   1.567   6.640   9.069  2.6335 -0.6483 -1.2115
  149SAPE  C21616495   1.686   6.794   9.172 -0.3494  0.7942  0.6247
  149SAPE  H16R16496   1.795   6.773   9.172 -0.2944  0.9772  1.8886
  149SAPE  H16S16497   1.661   6.850   9.265  1.1596  0.6353  1.1550
  149SAPE  C21716498   1.659   6.900   9.065 -0.9858 -0.0624 -0.1812
  149SAPE  H17R16499   1.551   6.924   9.053 -1.0782  0.0214  0.7523
  149SAPE  H17S16500   1.703   6.860   8.971 -0.2205  0.5138 -0.0727
  149SAPE  C21816501   1.750   7.028   9.094  0.1207  0.0323 -0.6797
  149SAPE  H18R16502   1.824   7.041   9.012  0.9986 -0.1496  0.0724
  149SAPE  H18S16503   1.800   7.003   9.189  0.3368 -4.1209 -1.6885
  149SAPE  C21916504   1.665   7.154   9.120  0.0195 -0.6694  0.0662
  149SAPE  H19R16505   1.717   7.248   9.149 -0.1499 -0.4230 -0.4235
  149SAPE  H19S16506   1.607   7.125   9.211  1.0702  0.3857  1.1129
  149SAPE  C22016507   1.561   7.197   9.004 -0.3152  0.0731  0.3957
  149SAPE  H20R16508   1.617   7.211   8.909 -0.2578 -0.0753  0.4064
  149SAPE  H20S16509   1.516   7.297   9.021 -3.1628 -1.1239  0.3945
  149SAPE  H20T16510   1.485   7.120   8.980  1.5805 -1.0674 -2.5588
  149SAPE   C3316511   1.342   6.740  10.130 -0.3316  0.3654 -0.1682
  149SAPE   H3X16512   1.341   6.851  10.142 -1.7129  0.5903 -1.9394
  149SAPE   H3Y16513   1.269   6.717  10.050 -2.3015  0.4447  1.5153
  149SAPE   C3416514   1.484   6.693  10.103 -0.7387  0.0826 -0.3695
  149SAPE   H4X16515   1.490   6.582  10.109 -0.9765 -0.0195 -1.6804
  149SAPE   H4Y16516   1.546   6.740  10.182  0.9101 -0.1939 -1.4416
  149SAPE   C3516517   1.554   6.739   9.976 -0.0683 -0.3691  0.8805
  149SAPE   H5X16518   1.656   6.699   9.955  1.0204  2.3069  0.7201
  149SAPE   H5Y16519   1.557   6.849   9.983 -0.5197 -0.0475 -2.3265
  149SAPE   C3616520   1.474   6.716   9.847 -0.4605 -0.3855 -0.1648
  149SAPE   H6X16521   1.369   6.753   9.842  0.5036  2.4439 -2.0544
  149SAPE   H6Y16522   1.481   6.607   9.826  0.6074 -0.1768 -1.0322
  149SAPE   C3716523   1.536   6.785   9.722  0.3027  0.1415  0.5306
  149SAPE   H7X16524   1.493   6.731   9.636 -0.6674  2.9205 -0.8337
  149SAPE   H7Y16525   1.646   6.771   9.731  0.3504  0.9895  1.4520
  149SAPE   C3816526   1.493   6.930   9.717  0.4827 -0.4068  0.3199
  149SAPE   H8X16527   1.521   6.984   9.811 -0.6578  0.4497  0.1853
  149SAPE   H8Y16528   1.382   6.938   9.714  0.4762 -0.8303 -0.9277
  149SAPE   C3916529   1.560   6.999   9.600  1.0989 -0.0725  0.0244
  149SAPE   H9X16530   1.584   6.924   9.522  1.1800 -1.1459  1.0554
  149SAPE   H9Y16531   1.660   7.037   9.631  1.0384  0.8607 -0.8609
  149SAPE  C31016532   1.485   7.124   9.538 -1.0223  0.3041  0.6402
  149SAPE  H10X16533   1.378   7.098   9.527 -0.7683  0.1480 -2.1570
  149SAPE  H10Y16534   1.529   7.145   9.438  1.3968  0.5673  1.6811
  149SAPE  C31116535   1.497   7.251   9.620  1.3076 -0.1553  0.0164
  149SAPE  H11X16536   1.604   7.278   9.633  1.9312 -2.9142  1.1735
  149SAPE  H11Y16537   1.455   7.235   9.722 -1.6416 -0.6257 -1.1830
  149SAPE  C31216538   1.411   7.363   9.556  0.5732 -0.0839 -0.0346
  149SAPE  H12X16539   1.408   7.456   9.617 -1.4710  0.3460 -0.7004
  149SAPE  H12Y16540   1.302   7.345   9.545  0.5912 -0.6556  0.6692
  149SAPE  C31316541   1.462   7.402   9.415 -0.0496  0.4241  0.4055
  149SAPE  H13X16542   1.391   7.353   9.346 -1.3344  1.2637  1.0819
  149SAPE  H13Y16543   1.563   7.367   9.387 -0.9831 -2.2657  0.0741
  149SAPE  C31416544   1.445   7.551   9.385  0.5947  0.5183 -0.4498
  149SAPE  H14X16545   1.520   7.618   9.433  0.1812  1.4503 -1.0636
  149SAPE  H14Y16546   1.352   7.588   9.432  0.9494  0.0054  0.6821
  149SAPE  C31516547   1.443   7.586   9.229 -0.7849 -0.8434  0.1349
  149SAPE  H15X16548   1.423   7.689   9.194  1.1873 -0.9447 -1.4965
  149SAPE  H15Y16549   1.371   7.516   9.181  0.9091 -0.8988 -2.5367
  149SAPE  C31616550   1.587   7.560   9.183  0.2025  0.0703  0.0310
  149SAPE  H16X16551   1.618   7.455   9.202 -2.0877 -0.2791  2.5264
  149SAPE  H16Y16552   1.640   7.629   9.252  1.0783 -0.8228  0.2878
  149SAPE  C31716553   1.598   7.589   9.035 -0.3546 -0.1786 -0.4676
  149SAPE  H17X16554   1.565   7.695   9.022 -0.3812 -0.3774 -2.3051
  149SAPE  H17Y16555   1.532   7.521   8.977 -0.1953 -0.6448 -0.1038
  149SAPE  C31816556   1.732   7.571   8.972  0.6690  0.3137 -0.3706
  149SAPE  H18X16557   1.741   7.611   8.869 -0.2043  0.8676 -0.2408
  149SAPE  H18Y16558   1.769   7.467   8.960 -0.1285 -0.2622  1.7710
  149SAPE  H18Z16559   1.803   7.639   9.024  0.5200  0.1929 -0.0091
  150SAPE     N16560   3.144   4.710  10.883  0.0075  0.1481 -0.1541
  150SAPE   HN116561   3.099   4.669  10.799  1.0875 -0.3830 -0.4849
  150SAPE   HN216562   3.117   4.810  10.890  0.0434  0.1404  0.1287
  150SAPE   HN316563   3.245   4.703  10.858  0.5560  1.5486  1.4273
  150SAPE   C1216564   3.136   4.617  11.002  0.2855  0.0211 -0.5069
  150SAPE  H12A16565   3.028   4.603  11.027  0.3833 -2.8867 -1.3670
  150SAPE  H12B16566   3.200   4.658  11.083 -1.5468  2.4728 -0.1662
  150SAPE   C1116567   3.193   4.481  10.954 -0.1570  0.1878  0.0410
  150SAPE  H11A16568   3.210   4.407  11.035  2.2518 -0.4534 -0.9370
  150SAPE  H11B16569   3.294   4.499  10.909 -0.6450  0.0316 -1.1686
  150SAPE     P16570   3.163   4.303  10.766  0.0538 -0.0663  0.1351
  150SAPE   O1316571   3.220   4.194  10.844 -0.3329  0.0719 -0.3497
  150SAPE   O1416572   3.052   4.259  10.686  0.1145  0.2593  0.7365
  150SAPE   O1216573   3.105   4.420  10.861 -0.0224 -0.1875  0.9191
  150SAPE   O1116574   3.277   4.364  10.685  0.0333 -0.5552 -0.9459
  150SAPE    C116575   3.257   4.482  10.608  0.5301  0.4209  0.0459
  150SAPE    HA16576   3.151   4.515  10.609  1.0105  2.0718  1.3214
  150SAPE    HB16577   3.326   4.563  10.640  0.0259  0.0673  2.1760
  150SAPE    C216578   3.289   4.463  10.459  0.1001  0.3356  0.0677
  150SAPE    HS16579   3.236   4.370  10.432 -0.7669  0.7937  0.1399
  150SAPE   O2116580   3.435   4.463  10.430 -0.0592  0.1142 -0.1426
  150SAPE   C2116581   3.484   4.341  10.410  0.2223 -1.0822  0.7521
  150SAPE   O2216582   3.422   4.237  10.410 -0.4517  0.5958 -0.0686
  150SAPE   C2216583   3.627   4.356  10.379 -0.1244  0.4422  0.1865
  150SAPE   H2R16584   3.650   4.465  10.368  2.7526 -0.2040 -1.0628
  150SAPE   H2S16585   3.689   4.341  10.470 -1.0797  1.3178  1.0199
  150SAPE    C316586   3.216   4.580  10.382 -1.2649  0.2933 -0.1317
  150SAPE    HX16587   3.250   4.676  10.426 -0.4664  0.4489 -1.0572
  150SAPE    HY16588   3.105   4.572  10.389 -1.2446 -0.3156 -0.4598
  150SAPE   O3116589   3.261   4.583  10.246  0.3380 -0.0258 -0.4719
  150SAPE   C3116590   3.201   4.481  10.173 -0.1035 -0.7082 -0.6322
  150SAPE   O3216591   3.122   4.399  10.214  0.1148 -0.1690 -0.8449
  150SAPE   C3216592   3.249   4.490  10.027 -0.1294  0.1473  0.5966
  150SAPE   H2X16593   3.346   4.435  10.023  0.3260  0.8686  1.3746
  150SAPE   H2Y16594   3.268   4.594   9.995  3.0421 -0.4936  0.0117
  150SAPE   C2316595   3.684   4.279  10.258 -1.0639 -0.4282  0.5072
  150SAPE   H3R16596   3.657   4.172  10.259 -0.3750 -0.6093  0.1253
  150SAPE   H3S16597   3.794   4.289  10.273 -0.8981 -0.1520 -0.8267
  150SAPE   C2416598   3.643   4.341  10.125  0.7759  0.4478  0.7962
  150SAPE   H4R16599   3.710   4.426  10.099 -2.5828  3.3752  1.0855
  150SAPE   H4S16600   3.539   4.378  10.130  0.5432 -0.3307  2.2447
  150SAPE   C2516601   3.649   4.240  10.018 -0.0220  0.6225  1.0474
  150SAPE   H5R16602   3.664   4.143  10.068  0.7962 -1.3520 -2.6732
  150SAPE   C2616603   3.649   4.241   9.885 -0.2421 -0.4966  0.1398
  150SAPE   H6R16604   3.674   4.148   9.831  2.2725  0.6069 -0.7817
  150SAPE   C2716605   3.630   4.367   9.804 -0.1624 -0.2784 -0.1932
  150SAPE   H7R16606   3.635   4.461   9.862  2.2988  0.1037 -0.9113
  150SAPE   H7S16607   3.528   4.350   9.763 -0.1740 -3.9425  1.0017
  150SAPE   C2816608   3.739   4.358   9.699 -0.1557  0.2325 -0.1027
  150SAPE   H8R16609   3.843   4.349   9.735  1.0320 -1.9384 -3.6318
  150SAPE   C2916610   3.724   4.357   9.567  0.1396  0.9681 -0.4523
  150SAPE   H9R16611   3.811   4.326   9.506  1.1857  2.3787  0.2931
  150SAPE  C21016612   3.599   4.366   9.482  0.0743 -0.1976 -0.4902
  150SAPE  H10R16613   3.620   4.443   9.404  3.3735  0.4767  0.9175
  150SAPE  H10S16614   3.512   4.413   9.532  0.8495 -0.8359  1.5218
  150SAPE  C21116615   3.564   4.238   9.407 -0.4177 -0.9232 -0.4021
  150SAPE  H11R16616   3.559   4.147   9.469  1.3616 -0.1099  1.0299
  150SAPE  C21216617   3.560   4.222   9.278 -0.0368 -0.0248  0.3075
  150SAPE  H12R16618   3.531   4.125   9.236  0.9531 -0.2311  0.0655
  150SAPE  C21316619   3.566   4.337   9.180  0.3418  0.2867  0.3509
  150SAPE  H13R16620   3.653   4.404   9.197  0.6597 -0.3809  1.4628
  150SAPE  H13S16621   3.477   4.403   9.196  0.2130  0.4348 -0.8884
  150SAPE  C21416622   3.564   4.299   9.033  0.4115 -1.3181  0.2554
  150SAPE  H14R16623   3.648   4.234   9.001  1.3793  0.4529 -0.9485
  150SAPE  C21516624   3.477   4.348   8.937  0.3705 -0.3036 -0.3127
  150SAPE  H15R16625   3.489   4.322   8.830 -0.4803  1.0622 -0.7612
  150SAPE  C21616626   3.364   4.442   8.970  0.4593 -0.0584  0.1037
  150SAPE  H16R16627   3.343   4.518   8.892  0.1107  0.8936  1.1048
  150SAPE  H16S16628   3.382   4.494   9.067 -2.6656 -0.5462  1.0419
  150SAPE  C21716629   3.234   4.364   8.994 -0.0410 -0.5631  0.1779
  150SAPE  H17R16630   3.150   4.434   9.015  0.3957 -0.4893  1.8763
  150SAPE  H17S16631   3.255   4.293   9.077  3.7089  0.0188 -0.0693
  150SAPE  C21816632   3.187   4.276   8.876 -0.3279 -0.3421  0.0439
  150SAPE  H18R16633   3.276   4.229   8.830  0.4544 -1.6865  2.7217
  150SAPE  H18S16634   3.150   4.348   8.799 -0.3106 -0.2112  0.1581
  150SAPE  C21916635   3.067   4.188   8.914  0.2932  0.1258 -0.9936
  150SAPE  H19R16636   3.026   4.220   9.012 -0.5414  0.1018 -1.3338
  150SAPE  H19S16637   3.105   4.083   8.917 -1.1261 -0.3889 -0.0965
  150SAPE  C22016638   2.957   4.176   8.811  0.0576  0.1179  0.2778
  150SAPE  H20R16639   2.995   4.148   8.711  1.8905  2.8811  0.0797
  150SAPE  H20S16640   2.909   4.276   8.811  1.2111  0.6901 -0.4863
  150SAPE  H20T16641   2.887   4.101   8.854  0.8014 -1.0217 -0.4408
  150SAPE   C3316642   3.158   4.421   9.929 -0.7732  0.4535 -0.2631
  150SAPE   H3X16643   3.056   4.466   9.927 -0.5375  0.9741 -0.6103
  150SAPE   H3Y16644   3.162   4.313   9.956  4.4923  0.7857  1.4938
  150SAPE   C3416645   3.217   4.419   9.788  0.4375 -0.4482 -0.1105
  150SAPE   H4X16646   3.306   4.354   9.784  0.6966 -0.7062  4.3954
  150SAPE   H4Y16647   3.257   4.520   9.765  2.0609 -1.0508 -0.0229
  150SAPE   C3516648   3.109   4.390   9.683 -0.3032 -0.3705  0.0981
  150SAPE   H5X16649   3.037   4.473   9.671 -0.2673 -0.2194  0.8494
  150SAPE   H5Y16650   3.059   4.306   9.737  1.6501 -0.6178  1.6650
  150SAPE   C3616651   3.172   4.364   9.547  0.1111  0.0358 -0.1430
  150SAPE   H6X16652   3.231   4.270   9.554 -1.0611 -0.6759  0.5503
  150SAPE   H6Y16653   3.237   4.453   9.531  2.5226 -1.2081  2.0025
  150SAPE   C3716654   3.075   4.355   9.440  0.7795  0.1838 -0.4330
  150SAPE   H7X16655   3.114   4.327   9.340 -3.1269 -2.5518 -1.4048
  150SAPE   H7Y16656   3.034   4.458   9.438 -0.8499 -0.4369 -0.3381
  150SAPE   C3816657   2.948   4.267   9.458 -0.4528 -0.4348 -0.5198
  150SAPE   H8X16658   2.891   4.309   9.544 -1.0702 -0.1535 -1.0612
  150SAPE   H8Y16659   2.974   4.162   9.483 -0.4560 -0.5607 -1.0420
  150SAPE   C3916660   2.858   4.279   9.336  0.4003 -0.0664  0.4691
  150SAPE   H9X16661   2.759   4.243   9.370  1.1425 -0.0850  2.7915
  150SAPE   H9Y16662   2.894   4.204   9.261 -2.3258  0.1959 -1.2191
  150SAPE  C31016663   2.853   4.418   9.270  0.0921 -0.0360  0.0851
  150SAPE  H10X16664   2.948   4.436   9.216 -0.7965  0.9261 -1.2393
  150SAPE  H10Y16665   2.835   4.494   9.348 -0.6357  0.3024 -0.4004
  150SAPE  C31116666   2.735   4.436   9.173 -0.1446  0.0341 -0.2826
  150SAPE  H11X16667   2.720   4.538   9.132 -0.7589 -0.4744 -1.3564
  150SAPE  H11Y16668   2.639   4.424   9.227  0.2139  0.5552  0.4765
  150SAPE  C31216669   2.737   4.337   9.058 -0.2323  0.3389  0.2550
  150SAPE  H12X16670   2.725   4.236   9.102 -2.5594  0.0884 -0.7772
  150SAPE  H12Y16671   2.835   4.356   9.010  0.1877  1.3297  1.4786
  150SAPE  C31316672   2.617   4.362   8.966  0.6752  0.5578 -0.4253
  150SAPE  H13X16673   2.630   4.455   8.907 -2.0008  0.8593 -0.6687
  150SAPE  H13Y16674   2.524   4.384   9.024  1.0680  0.3157  0.3145
  150SAPE  C31416675   2.587   4.238   8.878  0.4981  0.2795 -0.2812
  150SAPE  H14X16676   2.569   4.151   8.945  1.2731  0.2442 -0.1077
  150SAPE  H14Y16677   2.667   4.221   8.803  0.9855 -0.4545  0.3841
  150SAPE  C31516678   2.450   4.259   8.801 -0.4113 -1.1953 -0.3865
  150SAPE  H15X16679   2.451   4.367   8.778  1.9686 -1.3689 -1.4388
  150SAPE  H15Y16680   2.359   4.224   8.854  0.0294  1.6157  2.5463
  150SAPE  C31616681   2.452   4.178   8.665  0.0627  0.2382  0.2927
  150SAPE  H16X16682   2.500   4.082   8.694  0.0137 -0.4344 -1.7134
  150SAPE  H16Y16683   2.511   4.218   8.580  0.5704 -0.7484  0.1746
  150SAPE  C31716684   2.308   4.152   8.616  0.0279  0.1926  0.2194
  150SAPE  H17X16685   2.260   4.242   8.572 -1.2145 -0.7588 -0.4300
  150SAPE  H17Y16686   2.241   4.114   8.696 -0.1310 -1.3038 -0.6055
  150SAPE  C31816687   2.303   4.048   8.505 -0.0164 -0.0445  0.1677
  150SAPE  H18X16688   2.355   3.952   8.525 -0.1816 -0.3702 -0.9189
  150SAPE  H18Y16689   2.341   4.106   8.419 -1.8968  0.1146 -0.6080
  150SAPE  H18Z16690   2.197   4.026   8.479 -1.3613  4.6215  0.8338
  151SAPE     N16691   2.001   0.864  10.683  0.2908  0.1333 -0.5963
  151SAPE   HN116692   2.005   0.960  10.724 -1.4612  0.0960 -0.2422
  151SAPE   HN216693   1.932   0.809  10.739  0.6882 -1.9981 -2.1166
  151SAPE   HN316694   2.096   0.824  10.695 -0.2962 -1.8728 -2.2006
  151SAPE   C1216695   1.963   0.869  10.539  0.0475 -0.2467 -0.2246
  151SAPE  H12A16696   1.860   0.910  10.540 -0.5147 -1.6127  0.3428
  151SAPE  H12B16697   1.953   0.764  10.502  1.2753 -0.1680 -0.8202
  151SAPE   C1116698   2.048   0.954  10.449  0.0155  0.0787  0.3637
  151SAPE  H11A16699   2.023   0.935  10.342  0.1592  1.8607 -0.0174
  151SAPE  H11B16700   2.155   0.922  10.451 -0.0167 -0.5011 -2.5201
  151SAPE     P16701   1.983   1.195  10.399  0.3618 -0.6302  0.3269
  151SAPE   O1316702   1.852   1.155  10.338 -0.5937  1.0034  0.0027
  151SAPE   O1416703   1.984   1.322  10.472 -0.3479  0.0614 -0.4504
  151SAPE   O1216704   2.041   1.082  10.493 -0.3921 -0.3417  0.7282
  151SAPE   O1116705   2.094   1.202  10.293  0.6597  0.1442  0.2021
  151SAPE    C116706   2.093   1.278  10.178  0.1528  0.2590  0.1437
  151SAPE    HA16707   2.004   1.343  10.163 -1.5653 -1.2233  2.8604
  151SAPE    HB16708   2.174   1.353  10.186 -1.1206  1.8644 -1.2683
  151SAPE    C216709   2.106   1.188  10.046 -0.9723 -0.0246 -0.3734
  151SAPE    HS16710   2.147   1.252   9.965  0.6297 -0.3773  0.1405
  151SAPE   O2116711   1.975   1.133  10.010 -0.6642  0.4260 -0.0095
  151SAPE   C2116712   1.891   1.215   9.957  0.1541 -0.2633 -0.1405
  151SAPE   O2216713   1.907   1.331   9.925  0.4986  0.3048  0.3644
  151SAPE   C2216714   1.763   1.136   9.935 -0.1183  0.6984 -0.8274
  151SAPE   H2R16715   1.786   1.039   9.885 -3.3196 -0.5686 -0.0988
  151SAPE   H2S16716   1.718   1.101  10.031 -1.3584 -1.5348 -2.1337
  151SAPE    C316717   2.196   1.063  10.077 -0.0972  0.1885 -0.5221
  151SAPE    HX16718   2.153   1.003  10.160 -0.7861  2.9504  1.2289
  151SAPE    HY16719   2.294   1.096  10.117 -0.3412  0.8188 -0.4397
  151SAPE   O3116720   2.226   0.992   9.951  0.2053 -0.5715 -0.4729
  151SAPE   C3116721   2.260   0.867   9.961  0.4480  0.3296  0.6100
  151SAPE   O3216722   2.265   0.811  10.070  0.5507  0.8060  0.0494
  151SAPE   C3216723   2.269   0.806   9.826  0.1052 -0.0885  0.0264
  151SAPE   H2X16724   2.296   0.891   9.760 -1.6734  0.4566 -0.0589
  151SAPE   H2Y16725   2.164   0.780   9.799  0.1004  0.2417 -0.2968
  151SAPE   C2316726   1.662   1.209   9.854  0.0953 -0.7205  0.0691
  151SAPE   H3R16727   1.642   1.310   9.896 -3.6454 -0.4578 -1.9185
  151SAPE   H3S16728   1.560   1.167   9.865 -0.7309  1.2420  0.3757
  151SAPE   C2416729   1.701   1.208   9.705 -0.0536  0.4703  0.1288
  151SAPE   H4R16730   1.803   1.253   9.696  0.2297 -0.2315 -0.2461
  151SAPE   H4S16731   1.635   1.282   9.654 -0.5979  1.1720  1.7979
  151SAPE   C2516732   1.706   1.070   9.634 -0.2464 -1.0021 -0.1040
  151SAPE   H5R16733   1.609   1.030   9.599  0.2877 -0.3420 -2.4952
  151SAPE   C2616734   1.812   0.995   9.603  0.3639 -0.4522  0.0706
  151SAPE   H6R16735   1.800   0.905   9.540  2.0282 -0.2168 -0.6214
  151SAPE   C2716736   1.960   1.028   9.632 -0.3345 -0.6482 -0.0785
  151SAPE   H7R16737   1.998   0.944   9.693 -1.8102  0.0281  1.8653
  151SAPE   H7S16738   1.962   1.118   9.696  2.2604 -1.0359  0.4871
  151SAPE   C2816739   2.051   1.053   9.506  0.2153 -0.8505 -0.3090
  151SAPE   H8R16740   2.083   1.157   9.491  1.8012 -0.8987  2.1810
  151SAPE   C2916741   2.117   0.945   9.444  0.2147 -0.4845  0.2887
  151SAPE   H9R16742   2.183   0.962   9.358  2.2360 -2.0627  1.4142
  151SAPE  C21016743   2.091   0.800   9.474  0.4315 -0.0662 -0.1362
  151SAPE  H10R16744   2.067   0.795   9.583 -1.4621  0.3814 -0.5050
  151SAPE  H10S16745   2.176   0.729   9.465 -0.3925 -1.1573  0.4705
  151SAPE  C21116746   1.978   0.749   9.383 -0.2176 -0.8250 -0.3295
  151SAPE  H11R16747   1.880   0.792   9.412  0.4494 -0.3109  1.3212
  151SAPE  C21216748   1.979   0.647   9.295  0.0715  0.2721  0.5176
  151SAPE  H12R16749   1.889   0.631   9.233  1.5903 -0.8106 -1.5166
  151SAPE  C21316750   2.113   0.576   9.256  1.1595  0.2130  0.4923
  151SAPE  H13R16751   2.151   0.527   9.348 -0.8199  0.1970  1.3675
  151SAPE  H13S16752   2.186   0.655   9.229  0.7585  0.3063 -0.3580
  151SAPE  C21416753   2.097   0.458   9.162 -0.4557 -0.3132 -0.7472
  151SAPE  H14R16754   2.007   0.396   9.171  0.5075 -1.5996  0.5501
  151SAPE  C21516755   2.182   0.433   9.059 -0.1620 -0.7570 -0.0679
  151SAPE  H15R16756   2.156   0.343   9.002  2.2811 -1.9360  0.5913
  151SAPE  C21616757   2.309   0.501   9.019 -1.1080  1.0213  0.9717
  151SAPE  H16R16758   2.396   0.431   9.023 -0.7825  1.3479 -0.1091
  151SAPE  H16S16759   2.327   0.595   9.076  0.3113  3.2395 -2.7572
  151SAPE  C21716760   2.299   0.541   8.866 -0.0907  0.1147  0.2095
  151SAPE  H17R16761   2.257   0.462   8.800 -0.0417  2.0252 -2.2573
  151SAPE  H17S16762   2.401   0.564   8.826  0.5033 -3.6830 -0.8231
  151SAPE  C21816763   2.199   0.663   8.842  0.0378  0.5797  0.3377
  151SAPE  H18R16764   2.222   0.733   8.926 -1.7301  0.4237  0.9887
  151SAPE  H18S16765   2.095   0.624   8.848 -0.0817  0.8758  0.2379
  151SAPE  C21916766   2.215   0.734   8.710 -0.2038 -0.1563  0.5933
  151SAPE  H19R16767   2.205   0.671   8.620 -1.1893  1.0043 -0.1357
  151SAPE  H19S16768   2.320   0.769   8.711  0.5568 -2.2521 -0.3521
  151SAPE  C22016769   2.124   0.857   8.679  0.0802  0.2732 -0.1832
  151SAPE  H20R16770   2.156   0.920   8.594 -0.5407  0.8848  0.0290
  151SAPE  H20S16771   2.133   0.917   8.773  1.4198  0.1979 -0.2421
  151SAPE  H20T16772   2.020   0.820   8.666 -0.2894  0.6170  1.4551
  151SAPE   C3316773   2.358   0.685   9.810 -0.2456  0.7064 -0.6666
  151SAPE   H3X16774   2.321   0.600   9.872 -0.8260  2.0647  0.9143
  151SAPE   H3Y16775   2.459   0.708   9.851 -1.2632  1.5746  1.5100
  151SAPE   C3416776   2.382   0.633   9.669 -0.5082  0.8623  0.1395
  151SAPE   H4X16777   2.396   0.719   9.599  1.4051  1.1423  0.8031
  151SAPE   H4Y16778   2.293   0.582   9.628  0.0711  0.9879 -1.3344
  151SAPE   C3516779   2.502   0.535   9.652  0.0989 -0.6636  0.3004
  151SAPE   H5X16780   2.484   0.440   9.707  0.5946 -0.9564 -0.0327
  151SAPE   H5Y16781   2.585   0.580   9.709  0.4251 -1.2841  0.3212
  151SAPE   C3616782   2.546   0.508   9.510 -0.5584  0.1991 -0.5261
  151SAPE   H6X16783   2.558   0.604   9.456  2.0269 -0.2237 -0.8286
  151SAPE   H6Y16784   2.464   0.451   9.462  0.3948 -1.2210 -0.5340
  151SAPE   C3716785   2.681   0.426   9.511 -0.4461 -0.5011 -0.1374
  151SAPE   H7X16786   2.669   0.353   9.593  1.5665  0.2686  0.9317
  151SAPE   H7Y16787   2.765   0.494   9.540 -0.0896 -1.4884  1.1953
  151SAPE   C3816788   2.708   0.357   9.383 -0.3228 -0.5297  0.0156
  151SAPE   H8X16789   2.643   0.268   9.375 -1.3955  0.0020  2.0736
  151SAPE   H8Y16790   2.814   0.325   9.388  0.1172  1.0220  1.5851
  151SAPE   C3916791   2.678   0.465   9.270 -0.1982  0.3128 -0.0353
  151SAPE   H9X16792   2.721   0.559   9.311 -1.1102  1.0245 -0.6878
  151SAPE   H9Y16793   2.571   0.473   9.244 -0.6051  1.0475  1.7883
  151SAPE  C31016794   2.755   0.435   9.135 -0.0496 -0.3983  0.2543
  151SAPE  H10X16795   2.714   0.339   9.098 -3.1974  0.5432  0.9262
  151SAPE  H10Y16796   2.864   0.420   9.148  0.6224  2.7161 -0.8034
  151SAPE  C31116797   2.717   0.543   9.029  0.2593  0.7407  0.3781
  151SAPE  H11X16798   2.750   0.640   9.072  0.4989  0.9143 -0.1851
  151SAPE  H11Y16799   2.607   0.551   9.023  0.1337  0.0964  1.5393
  151SAPE  C31216800   2.789   0.522   8.900  0.7250  0.2186  0.3960
  151SAPE  H12X16801   2.774   0.415   8.875 -2.3219  0.0565  2.3720
  151SAPE  H12Y16802   2.898   0.540   8.912  0.7186 -0.4819  1.7538
  151SAPE  C31316803   2.748   0.618   8.795  0.0826  0.1444 -0.0241
  151SAPE  H13X16804   2.772   0.717   8.839 -2.5260 -0.6967  3.7415
  151SAPE  H13Y16805   2.638   0.614   8.782 -0.0989 -0.1341  1.4561
  151SAPE  C31416806   2.816   0.579   8.662  0.0303 -0.0611 -0.0749
  151SAPE  H14X16807   2.925   0.593   8.678  0.2252 -2.3189  0.9671
  151SAPE  H14Y16808   2.776   0.661   8.598  1.4706  0.9258  0.2311
  151SAPE  C31516809   2.797   0.438   8.605 -0.0618 -0.0392  0.3708
  151SAPE  H15X16810   2.691   0.433   8.571  0.3548  1.5335 -1.2947
  151SAPE  H15Y16811   2.808   0.359   8.683  0.8910  0.6570  0.9584
  151SAPE  C31616812   2.893   0.404   8.484  0.4768 -0.5879 -0.2143
  151SAPE  H16X16813   3.000   0.426   8.501  0.1393  0.2934  0.9012
  151SAPE  H16Y16814   2.867   0.481   8.409 -0.1541  0.8667  1.4384
  151SAPE  C31716815   2.877   0.258   8.434  0.2742 -0.0490 -0.9363
  151SAPE  H17X16816   2.945   0.193   8.494  0.6505  0.9772 -0.2175
  151SAPE  H17Y16817   2.922   0.262   8.333 -2.0832 -1.2872 -2.1266
  151SAPE  C31816818   2.738   0.199   8.432 -0.1607 -0.1425 -0.5243
  151SAPE  H18X16819   2.740   0.090   8.409 -0.1731 -0.1935 -0.2857
  151SAPE  H18Y16820   2.673   0.260   8.366  1.4749 -0.1637 -2.2512
  151SAPE  H18Z16821   2.694   0.212   8.533  0.2670 -1.0923 -0.1965
  152SAPE     N16822   5.066   2.690  10.626  0.3064  0.0174  0.3252
  152SAPE   HN116823   4.962   2.693  10.636  0.1380 -0.3020 -1.1390
  152SAPE   HN216824   5.103   2.787  10.638  0.8816 -0.1684  0.0648
  152SAPE   HN316825   5.086   2.668  10.527 -2.2920 -3.1860  0.3406
  152SAPE   C1216826   5.125   2.582  10.723 -0.3348 -0.3410  0.1016
  152SAPE  H12A16827   5.096   2.622  10.822  4.6808  2.1198  0.9348
  152SAPE  H12B16828   5.236   2.594  10.731 -0.0552 -2.4581  0.0661
  152SAPE   C1116829   5.072   2.446  10.685 -0.2747  0.0322 -0.2050
  152SAPE  H11A16830   5.142   2.383  10.744  0.4926  0.6358 -0.4352
  152SAPE  H11B16831   5.081   2.427  10.576 -1.6937 -0.5883 -0.2246
  152SAPE     P16832   4.868   2.290  10.716  0.0860  0.2460 -0.3921
  152SAPE   O1316833   4.948   2.180  10.775  0.3259 -0.4934 -0.8779
  152SAPE   O1416834   4.731   2.311  10.762 -0.4314  0.4586  0.1875
  152SAPE   O1216835   4.939   2.424  10.738 -0.6810 -0.8287  0.1085
  152SAPE   O1116836   4.879   2.273  10.560  0.0781 -0.7160  0.1954
  152SAPE    C116837   4.851   2.150  10.489  0.7666  0.0259  0.8452
  152SAPE    HA16838   4.830   2.060  10.550  2.4591 -0.8278  0.2279
  152SAPE    HB16839   4.779   2.184  10.411  0.2788 -0.6032  1.0117
  152SAPE    C216840   4.976   2.127  10.412 -0.3267  0.1592 -0.4198
  152SAPE    HS16841   5.056   2.102  10.484 -0.3198  0.0084 -0.4782
  152SAPE   O2116842   5.014   2.244  10.351 -0.3776 -0.0496  0.4245
  152SAPE   C2116843   5.132   2.247  10.299  0.4152 -0.3872 -0.7911
  152SAPE   O2216844   5.225   2.177  10.325 -0.5779  0.1121  0.9644
  152SAPE   C2216845   5.141   2.370  10.204  0.5053 -0.3263 -0.6997
  152SAPE   H2R16846   5.051   2.358  10.140  0.9892 -3.3700 -0.9836
  152SAPE   H2S16847   5.135   2.463  10.264 -0.8089  0.6209 -2.2064
  152SAPE    C316848   4.959   2.007  10.309  0.2088 -0.0888 -0.4998
  152SAPE    HX16849   4.967   1.918  10.375  4.0508 -0.9976 -1.8798
  152SAPE    HY16850   5.043   1.986  10.238  1.5325 -2.0569  1.5127
  152SAPE   O3116851   4.830   2.014  10.245  1.1995 -0.3769 -0.2829
  152SAPE   C3116852   4.831   2.078  10.126  0.2852  0.1148 -0.2884
  152SAPE   O3216853   4.934   2.098  10.060 -0.1380 -0.1336 -0.1710
  152SAPE   C3216854   4.690   2.094  10.073  0.2280  0.6423  0.1388
  152SAPE   H2X16855   4.683   2.198  10.033 -0.0216 -0.2639 -2.3375
  152SAPE   H2Y16856   4.624   2.077  10.161  0.9938 -0.6469  0.4905
  152SAPE   C2316857   5.270   2.366  10.117  0.2793 -0.4583 -0.2611
  152SAPE   H3R16858   5.282   2.287  10.040 -0.2681 -0.7560 -0.0423
  152SAPE   H3S16859   5.359   2.358  10.183  0.4820 -1.7195 -0.6702
  152SAPE   C2416860   5.278   2.507  10.048  0.0606  0.5430  0.0825
  152SAPE   H4R16861   5.384   2.512  10.017  0.0966 -0.4099  0.0215
  152SAPE   H4S16862   5.275   2.593  10.119  4.3278  0.4571  0.6093
  152SAPE   C2516863   5.178   2.512   9.930 -0.2047  0.0322  0.0314
  152SAPE   H5R16864   5.075   2.538   9.959 -0.1491 -0.7626  1.0089
  152SAPE   C2616865   5.214   2.502   9.797 -0.5263 -0.6953 -0.5569
  152SAPE   H6R16866   5.138   2.505   9.717 -1.6343  1.4552  0.4955
  152SAPE   C2716867   5.356   2.495   9.739  0.5375  0.4764 -0.0349
  152SAPE   H7R16868   5.346   2.447   9.640  1.8828  1.4955 -0.6938
  152SAPE   H7S16869   5.410   2.419   9.800 -2.9178 -3.0859 -1.0120
  152SAPE   C2816870   5.432   2.619   9.724 -0.1187 -0.5886 -0.4543
  152SAPE   H8R16871   5.442   2.673   9.819  1.6126  0.4337 -1.1579
  152SAPE   C2916872   5.485   2.680   9.611 -0.0012  0.5963 -0.2649
  152SAPE   H9R16873   5.548   2.770   9.623 -0.2505  0.4729  2.4464
  152SAPE  C21016874   5.472   2.622   9.475 -0.1720  0.3350 -0.0530
  152SAPE  H10R16875   5.373   2.572   9.471  0.4069 -0.8590  0.1827
  152SAPE  H10S16876   5.550   2.543   9.468  1.9847  2.3326  0.2825
  152SAPE  C21116877   5.490   2.718   9.362 -0.0010  0.6366 -0.1656
  152SAPE  H11R16878   5.413   2.796   9.368 -0.2581  0.3062  1.2076
  152SAPE  C21216879   5.552   2.700   9.245 -0.2858  0.1967 -0.4056
  152SAPE  H12R16880   5.557   2.791   9.184  2.0123 -0.1327 -0.8184
  152SAPE  C21316881   5.656   2.595   9.219 -0.5011  0.8883  0.3094
  152SAPE  H13R16882   5.595   2.521   9.162 -0.6893  1.6974 -0.5586
  152SAPE  H13S16883   5.694   2.542   9.309 -3.8695 -2.0092  0.2364
  152SAPE  C21416884   5.773   2.643   9.137  0.4128 -0.3405 -0.2786
  152SAPE  H14R16885   5.859   2.662   9.204 -0.5949 -0.1858  1.0190
  152SAPE  C21516886   5.787   2.651   9.004 -0.1271 -0.5909  0.1509
  152SAPE  H15R16887   5.875   2.703   8.965 -0.3659  1.2191  1.8674
  152SAPE  C21616888   5.688   2.606   8.902 -0.3950 -0.3830 -0.3048
  152SAPE  H16R16889   5.585   2.602   8.945 -1.1349  1.7001 -1.6946
  152SAPE  H16S16890   5.720   2.506   8.868  2.1298  0.3796 -0.3589
  152SAPE  C21716891   5.681   2.694   8.774  0.0865 -0.1611 -0.1529
  152SAPE  H17R16892   5.612   2.646   8.701  0.1234  1.3315 -1.2287
  152SAPE  H17S16893   5.786   2.696   8.737  0.5607  3.7666  0.9488
  152SAPE  C21816894   5.628   2.835   8.801 -0.0104  0.0283 -0.5480
  152SAPE  H18R16895   5.710   2.883   8.858 -0.5728  0.0552  0.2618
  152SAPE  H18S16896   5.541   2.837   8.870 -0.4272 -0.4953 -1.0514
  152SAPE  C21916897   5.614   2.912   8.669 -0.2038  0.3014  0.0686
  152SAPE  H19R16898   5.587   3.018   8.690  0.9480  0.5223  0.4961
  152SAPE  H19S16899   5.527   2.864   8.618  0.8708 -2.4633  0.6901
  152SAPE  C22016900   5.729   2.901   8.567  0.9995 -0.0855  0.5525
  152SAPE  H20R16901   5.694   2.852   8.474 -0.2586  1.1836  0.3183
  152SAPE  H20S16902   5.813   2.848   8.615  1.2511  0.2971  0.5388
  152SAPE  H20T16903   5.756   3.004   8.533  0.5733 -0.2693 -0.3754
  152SAPE   C3316904   4.648   2.004   9.964  0.2203  0.5517  0.1068
  152SAPE   H3X16905   4.538   1.994   9.961  0.3142 -1.2887  1.0777
  152SAPE   H3Y16906   4.670   1.898   9.990 -0.6693  0.3590  0.1149
  152SAPE   C3416907   4.704   2.039   9.822  0.0680 -0.3852 -0.0553
  152SAPE   H4X16908   4.814   2.022   9.820  0.6769  2.8764 -0.1133
  152SAPE   H4Y16909   4.692   2.146   9.795 -1.0121 -0.7009 -0.9279
  152SAPE   C3516910   4.639   1.964   9.705  0.1964 -0.3786 -1.1016
  152SAPE   H5X16911   4.531   1.990   9.704  0.5671  1.5587  0.9781
  152SAPE   H5Y16912   4.650   1.857   9.732 -1.3084 -0.4493 -0.6552
  152SAPE   C3616913   4.705   1.991   9.571 -0.3074 -0.0872  0.4828
  152SAPE   H6X16914   4.814   1.992   9.593 -0.6976 -0.8345  2.6650
  152SAPE   H6Y16915   4.685   2.099   9.551 -3.3200 -0.8951 -1.4263
  152SAPE   C3716916   4.668   1.900   9.459 -0.2267  0.4626 -0.3947
  152SAPE   H7X16917   4.559   1.909   9.440 -0.5365 -2.3880 -0.3663
  152SAPE   H7Y16918   4.695   1.798   9.493  1.3548  1.3683  1.2745
  152SAPE   C3816919   4.737   1.929   9.326 -0.0594  0.5700  0.4380
  152SAPE   H8X16920   4.845   1.904   9.326 -0.4810 -1.5563 -1.1711
  152SAPE   H8Y16921   4.726   2.037   9.303 -1.9204  0.3170 -0.0047
  152SAPE   C3916922   4.675   1.854   9.205 -0.4190 -0.1139 -0.4016
  152SAPE   H9X16923   4.565   1.863   9.219 -0.0358  3.4010  1.3890
  152SAPE   H9Y16924   4.702   1.747   9.216 -0.4912 -0.0349  0.7085
  152SAPE  C31016925   4.726   1.904   9.069 -0.3601 -0.3419  0.6318
  152SAPE  H10X16926   4.836   1.896   9.064 -0.0179  2.5204  1.9555
  152SAPE  H10Y16927   4.699   2.010   9.052  0.5270  0.0632  1.6484
  152SAPE  C31116928   4.666   1.832   8.953 -0.0373  0.5793  0.2655
  152SAPE  H11X16929   4.563   1.864   8.925  0.7866  2.2964 -1.0625
  152SAPE  H11Y16930   4.674   1.726   8.984  0.2233  0.1553 -1.1781
  152SAPE  C31216931   4.735   1.842   8.814 -0.6103 -0.6140  0.2117
  152SAPE  H12X16932   4.743   1.951   8.795  0.8018 -0.9161 -1.1401
  152SAPE  H12Y16933   4.654   1.807   8.746 -1.0722  0.8985 -0.0504
  152SAPE  C31316934   4.863   1.776   8.781 -0.2953  0.1068  0.2027
  152SAPE  H13X16935   4.880   1.693   8.853  2.3862  0.5115  0.1401
  152SAPE  H13Y16936   4.933   1.860   8.802 -1.6299  1.3857 -0.3646
  152SAPE  C31416937   4.886   1.721   8.643 -0.4302 -0.3579 -0.9436
  152SAPE  H14X16938   4.811   1.640   8.631 -0.3410 -0.3626 -1.5032
  152SAPE  H14Y16939   4.984   1.672   8.629 -0.3995 -0.8619  0.7957
  152SAPE  C31516940   4.885   1.822   8.524 -0.2308 -0.1608 -0.4322
  152SAPE  H15X16941   4.954   1.909   8.533 -1.0718  0.2848  3.3610
  152SAPE  H15Y16942   4.782   1.863   8.517  0.0700  0.5904 -0.6788
  152SAPE  C31616943   4.916   1.758   8.387  0.1653 -0.2915 -0.9905
  152SAPE  H16X16944   4.998   1.683   8.388  0.7861  0.3537  0.5072
  152SAPE  H16Y16945   4.949   1.841   8.321 -1.2180  1.0049 -0.1211
  152SAPE  C31716946   4.792   1.694   8.316 -0.4849 -0.3073  0.6007
  152SAPE  H17X16947   4.783   1.591   8.358  1.3913 -0.4419  0.7878
  152SAPE  H17Y16948   4.831   1.689   8.212  0.7524  0.8688  0.9826
  152SAPE  C31816949   4.655   1.775   8.313 -0.1851  0.0050 -0.2333
  152SAPE  H18X16950   4.663   1.886   8.311 -0.1494  0.0455  0.9889
  152SAPE  H18Y16951   4.597   1.746   8.404  0.4996  1.6361  0.7785
  152SAPE  H18Z16952   4.588   1.739   8.233  0.2447  0.2304 -0.7010
  153SAPE     N16953   2.227   5.853  10.787 -0.7275 -0.0251  0.4758
  153SAPE   HN116954   2.186   5.923  10.853  0.0432  0.6732  0.2342
  153SAPE   HN216955   2.220   5.758  10.828  0.1746 -1.5095 -2.5596
  153SAPE   HN316956   2.329   5.871  10.778 -0.6087 -0.0343  1.5961
  153SAPE   C1216957   2.158   5.856  10.654 -0.2560  0.6901 -0.4979
  153SAPE  H12A16958   2.226   5.796  10.590  1.2703  1.8325  0.0148
  153SAPE  H12B16959   2.147   5.959  10.614 -0.0496  1.1859  0.6683
  153SAPE   C1116960   2.015   5.789  10.660 -0.3608 -0.0312 -0.0329
  153SAPE  H11A16961   1.955   5.791  10.567  0.6773 -0.3558 -0.7328
  153SAPE  H11B16962   1.952   5.844  10.732  2.3603  2.0370  0.9537
  153SAPE     P16963   2.016   5.528  10.613  0.0080  0.1065 -0.1734
  153SAPE   O1316964   2.047   5.411  10.695  0.5985  0.8461  0.1882
  153SAPE   O1416965   1.883   5.534  10.553 -0.2547  0.1305 -0.0566
  153SAPE   O1216966   2.032   5.658  10.705  0.0511 -0.0043  0.4555
  153SAPE   O1116967   2.130   5.548  10.508 -0.2848 -0.0519 -0.1589
  153SAPE    C116968   2.142   5.512  10.375 -0.2428 -0.1206 -0.3002
  153SAPE    HA16969   2.064   5.434  10.361  0.8947 -1.1485 -1.0172
  153SAPE    HB16970   2.125   5.607  10.318  1.1935  1.2258  1.4072
  153SAPE    C216971   2.284   5.451  10.348 -0.0665 -0.5111 -0.1510
  153SAPE    HS16972   2.358   5.535  10.352  0.2890 -0.8175 -0.2228
  153SAPE   O2116973   2.300   5.394  10.216  0.3322  1.3664 -0.1779
  153SAPE   C2116974   2.283   5.470  10.115 -0.3622  0.7047  0.1230
  153SAPE   O2216975   2.285   5.592  10.111  0.0554  0.0552  0.0361
  153SAPE   C2216976   2.258   5.383   9.993  0.2429 -0.1190 -0.1766
  153SAPE   H2R16977   2.300   5.280  10.006 -0.7141 -0.3507  1.2112
  153SAPE   H2S16978   2.148   5.382   9.976  0.5465  0.0679 -2.4746
  153SAPE    C316979   2.329   5.346  10.449  0.4936  0.0930  0.0381
  153SAPE    HX16980   2.282   5.248  10.427 -0.9316  0.1593  2.4632
  153SAPE    HY16981   2.285   5.371  10.547  0.6471 -2.6115  0.8942
  153SAPE   O3116982   2.471   5.321  10.464 -0.1597 -0.2005  0.0098
  153SAPE   C3116983   2.527   5.396  10.555  0.1485  0.0018 -0.0226
  153SAPE   O3216984   2.477   5.480  10.624 -0.2154  0.8457  0.1756
  153SAPE   C3216985   2.675   5.365  10.548  0.6591  0.2575  0.1473
  153SAPE   H2X16986   2.689   5.257  10.530 -0.5406  0.0428  0.4555
  153SAPE   H2Y16987   2.718   5.392  10.647  1.0201 -0.6896  0.2588
  153SAPE   C2316988   2.322   5.442   9.861  0.2075 -0.1454  0.6164
  153SAPE   H3R16989   2.426   5.469   9.887 -0.0725  1.0272  0.5829
  153SAPE   H3S16990   2.279   5.540   9.833  0.1697  0.1774  1.7878
  153SAPE   C2416991   2.313   5.342   9.741 -0.3393  0.4995  0.3820
  153SAPE   H4R16992   2.356   5.241   9.755  0.2753  0.0671 -3.3938
  153SAPE   H4S16993   2.383   5.389   9.667 -0.7003  0.3092 -0.0864
  153SAPE   C2516994   2.174   5.324   9.682  0.2454 -0.1522 -1.0162
  153SAPE   H5R16995   2.097   5.309   9.759  1.3524 -3.8945 -0.4654
  153SAPE   C2616996   2.155   5.345   9.553  0.7509 -0.1989 -0.3763
  153SAPE   H6R16997   2.052   5.325   9.519 -0.1065 -2.1571  2.9876
  153SAPE   C2716998   2.252   5.369   9.440 -0.1970  0.1611 -0.7039
  153SAPE   H7R16999   2.357   5.361   9.475 -0.5364 -0.7534  0.1644
  153SAPE   H7S17000   2.242   5.476   9.412  3.5388  1.4072  1.9624
  153SAPE   C2817001   2.233   5.287   9.314 -0.1920 -0.3596  0.4723
  153SAPE   H8R17002   2.319   5.223   9.288 -0.0406  0.0233  0.0000
  153SAPE   C2917003   2.142   5.301   9.215  0.0136  0.2281  0.3388
  153SAPE   H9R17004   2.145   5.230   9.130  1.2672  0.4196  0.2083
  153SAPE  C21017005   2.033   5.402   9.206 -0.5039 -0.2778 -0.6895
  153SAPE  H10R17006   2.061   5.491   9.266 -2.8552 -0.2314  0.4320
  153SAPE  H10S17007   1.945   5.362   9.259  0.1257 -2.5071 -1.2296
  153SAPE  C21117008   2.001   5.446   9.060  0.2879 -0.2498 -0.2243
  153SAPE  H11R17009   2.050   5.539   9.029  2.6735 -1.7812 -1.3035
  153SAPE  C21217010   1.915   5.384   8.977  0.5744  0.0212 -0.1639
  153SAPE  H12R17011   1.922   5.425   8.875 -1.4747 -0.4643 -0.5366
  153SAPE  C21317012   1.830   5.260   8.978 -0.3775 -0.3586 -0.1091
  153SAPE  H13R17013   1.750   5.276   8.903  0.0584 -0.5182 -0.6159
  153SAPE  H13S17014   1.778   5.243   9.075 -0.1609 -0.1209  0.0518
  153SAPE  C21417015   1.896   5.130   8.940  0.4674  0.8585  0.2282
  153SAPE  H14R17016   2.003   5.131   8.966  0.8668 -1.0385 -1.0951
  153SAPE  C21517017   1.836   5.016   8.886 -0.6215 -0.4241  0.5461
  153SAPE  H15R17018   1.905   4.935   8.859  1.0609  0.8383  0.9003
  153SAPE  C21617019   1.693   4.991   8.847  0.5078  0.1780  0.5669
  153SAPE  H16R17020   1.613   5.042   8.905 -0.1917  0.6988 -0.8090
  153SAPE  H16S17021   1.671   4.882   8.840 -0.1964  0.3413  0.1608
  153SAPE  C21717022   1.678   5.048   8.701 -0.1612  0.6065  0.1026
  153SAPE  H17R17023   1.764   5.028   8.635  0.2485  0.4078  0.6944
  153SAPE  H17S17024   1.661   5.158   8.706 -0.0864  0.7326 -1.6280
  153SAPE  C21817025   1.544   5.002   8.638  0.6178  0.5889 -0.0796
  153SAPE  H18R17026   1.470   5.007   8.721  2.6631 -0.0931  1.8888
  153SAPE  H18S17027   1.547   4.898   8.600 -0.2942  0.8433 -0.8941
  153SAPE  C21917028   1.490   5.085   8.525  0.0039  0.1678  0.0575
  153SAPE  H19R17029   1.559   5.089   8.439  2.0876 -2.4283  1.4535
  153SAPE  H19S17030   1.479   5.194   8.543  0.2390  0.5531 -1.9053
  153SAPE  C22017031   1.368   5.022   8.466  0.3750  0.0394  0.2175
  153SAPE  H20R17032   1.299   4.983   8.543  0.8768 -1.4636 -0.0657
  153SAPE  H20S17033   1.375   4.933   8.400 -0.6459  0.4985 -0.5467
  153SAPE  H20T17034   1.307   5.098   8.413 -1.4505 -1.2543  0.3681
  153SAPE   C3317035   2.746   5.456  10.450 -0.2349 -0.2770 -0.0228
  153SAPE   H3X17036   2.854   5.428  10.450 -0.2010 -0.4132 -2.4565
  153SAPE   H3Y17037   2.745   5.564  10.473  2.1984 -0.2334  0.1834
  153SAPE   C3417038   2.707   5.429  10.307  0.2283  0.3251  0.6371
  153SAPE   H4X17039   2.777   5.488  10.243  1.1878 -0.7594  0.6614
  153SAPE   H4Y17040   2.604   5.465  10.285  0.1403 -0.9306 -1.1678
  153SAPE   C3517041   2.728   5.284  10.258 -0.1754  0.1976 -0.0995
  153SAPE   H5X17042   2.675   5.215  10.328 -2.0462  0.7945 -0.8712
  153SAPE   H5Y17043   2.838   5.275  10.270 -0.1169  0.1530 -0.6578
  153SAPE   C3617044   2.684   5.266  10.116 -0.4761  0.5089  0.8154
  153SAPE   H6X17045   2.585   5.312  10.098 -1.3161 -1.2617  0.6888
  153SAPE   H6Y17046   2.668   5.156  10.104  0.7411  0.4058 -0.0366
  153SAPE   C3717047   2.784   5.319  10.014  0.4145 -0.1892 -0.2448
  153SAPE   H7X17048   2.878   5.260  10.020 -0.3932 -1.6175 -1.0824
  153SAPE   H7Y17049   2.807   5.427  10.032 -1.3168  0.3850 -1.2600
  153SAPE   C3817050   2.733   5.310   9.865  0.4713  0.4205 -0.3609
  153SAPE   H8X17051   2.786   5.391   9.809 -0.3464  1.0032 -0.3147
  153SAPE   H8Y17052   2.624   5.333   9.856  0.5802  2.5467  2.3925
  153SAPE   C3917053   2.774   5.174   9.806 -0.3032  0.0163  0.0696
  153SAPE   H9X17054   2.764   5.099   9.887 -2.8765  0.3788  0.1659
  153SAPE   H9Y17055   2.880   5.188   9.776 -0.3490  0.2060 -0.0111
  153SAPE  C31017056   2.692   5.131   9.686  0.3329  0.0680  0.0113
  153SAPE  H10X17057   2.585   5.118   9.712  0.2735  0.1695 -0.1787
  153SAPE  H10Y17058   2.728   5.031   9.652 -0.4158 -0.0889 -0.3533
  153SAPE  C31117059   2.709   5.214   9.560  0.2029 -0.2668  0.1986
  153SAPE  H11X17060   2.818   5.231   9.548  0.2337  2.0656  2.8061
  153SAPE  H11Y17061   2.656   5.311   9.570 -0.8188 -0.4750 -2.4648
  153SAPE  C31217062   2.643   5.163   9.433  0.8846  0.7920  0.2750
  153SAPE  H12X17063   2.537   5.135   9.452  0.1203  1.4227 -2.6476
  153SAPE  H12Y17064   2.695   5.067   9.410  2.2317  1.7583 -0.8544
  153SAPE  C31317065   2.659   5.261   9.316 -0.2004 -0.1747  0.2476
  153SAPE  H13X17066   2.764   5.297   9.317  0.7582 -2.6544 -1.0695
  153SAPE  H13Y17067   2.603   5.356   9.330 -0.5017 -0.0881 -1.4212
  153SAPE  C31417068   2.629   5.186   9.186  0.7131 -0.4406 -1.0173
  153SAPE  H14X17069   2.525   5.145   9.185  1.6816 -3.0761 -0.8246
  153SAPE  H14Y17070   2.685   5.091   9.176 -1.2600 -1.4136 -4.8393
  153SAPE  C31517071   2.673   5.252   9.058 -0.4411 -0.7332 -0.6543
  153SAPE  H15X17072   2.643   5.180   8.978 -1.2739 -0.8517 -0.2410
  153SAPE  H15Y17073   2.779   5.286   9.063 -1.4233  2.7884 -1.4614
  153SAPE  C31617074   2.603   5.383   9.034  0.4243  0.6064 -0.1926
  153SAPE  H16X17075   2.610   5.446   9.125 -1.2168  1.2742 -0.4917
  153SAPE  H16Y17076   2.493   5.371   9.026  0.3954 -0.1858  1.1875
  153SAPE  C31717077   2.650   5.455   8.906 -0.0315  0.2932  0.8426
  153SAPE  H17X17078   2.754   5.487   8.930  0.5529 -1.8755  1.4172
  153SAPE  H17Y17079   2.584   5.542   8.886 -1.7462 -1.0112  0.5991
  153SAPE  C31817080   2.640   5.372   8.778 -0.9217 -0.5448 -0.0565
  153SAPE  H18X17081   2.714   5.290   8.792  0.2818  0.7535  1.6933
  153SAPE  H18Y17082   2.670   5.436   8.691  0.1646 -0.4072  0.3993
  153SAPE  H18Z17083   2.544   5.331   8.742 -1.3688  0.3161  0.1279
  154SAPE     N17084   2.715   4.075  10.733  0.7452  0.1667  0.7700
  154SAPE   HN117085   2.611   4.073  10.739  0.8106 -1.4892  2.0829
  154SAPE   HN217086   2.747   4.174  10.733 -0.0096  0.4178  0.9458
  154SAPE   HN317087   2.731   4.034  10.639 -0.0985 -0.2919  0.8189
  154SAPE   C1217088   2.775   3.993  10.835  0.1805 -0.0988 -0.4152
  154SAPE  H12A17089   2.726   3.988  10.934  2.3750  1.3393  0.8330
  154SAPE  H12B17090   2.868   4.049  10.857 -0.2247  0.9186 -1.2082
  154SAPE   C1117091   2.813   3.853  10.782 -0.4452 -0.4103  0.3493
  154SAPE  H11A17092   2.885   3.807  10.853 -0.5611 -1.5726 -0.2672
  154SAPE  H11B17093   2.883   3.862  10.696  0.8715 -0.5798  1.3624
  154SAPE     P17094   2.715   3.617  10.716 -0.1524  0.4817  0.5547
  154SAPE   O1317095   2.811   3.560  10.817 -0.2952 -0.2904  0.0374
  154SAPE   O1417096   2.577   3.558  10.715  0.4426  0.2542  0.4981
  154SAPE   O1217097   2.694   3.774  10.759 -0.4600  0.7687  0.1612
  154SAPE   O1117098   2.772   3.637  10.570 -0.7449 -0.2056 -0.2599
  154SAPE    C117099   2.732   3.746  10.485 -0.0623  0.3336 -0.0644
  154SAPE    HA17100   2.644   3.805  10.520 -0.9735 -0.0508 -1.5935
  154SAPE    HB17101   2.818   3.815  10.476 -0.2265  0.5557  0.0457
  154SAPE    C217102   2.698   3.685  10.342 -0.3709 -0.2079  0.4141
  154SAPE    HS17103   2.681   3.767  10.269 -1.7304 -1.2994 -0.5260
  154SAPE   O2117104   2.587   3.601  10.343 -0.2195 -0.5121  0.1131
  154SAPE   C2117105   2.472   3.661  10.356  0.2040  0.4963 -0.4001
  154SAPE   O2217106   2.452   3.782  10.363  0.7705 -0.0971  0.3168
  154SAPE   C2217107   2.366   3.558  10.366  0.1171 -0.3368 -0.1800
  154SAPE   H2R17108   2.388   3.497  10.456 -0.5570 -1.5103 -0.7899
  154SAPE   H2S17109   2.267   3.608  10.376  0.3791  0.2881 -0.6554
  154SAPE    C317110   2.820   3.604  10.282  0.0611  0.1816  0.5963
  154SAPE    HX17111   2.849   3.515  10.343  0.6735 -1.6374 -2.1445
  154SAPE    HY17112   2.903   3.676  10.298  1.6937 -1.8972  2.2852
  154SAPE   O3117113   2.804   3.588  10.138 -0.2378  0.4571  0.2007
  154SAPE   C3117114   2.783   3.460  10.105 -0.3149 -0.3448 -0.1122
  154SAPE   O3217115   2.774   3.368  10.179  0.0529  0.7517 -0.6230
  154SAPE   C3217116   2.775   3.447   9.955 -0.5585  0.1991 -0.0773
  154SAPE   H2X17117   2.735   3.346   9.930 -3.2576  0.9986  0.6683
  154SAPE   H2Y17118   2.883   3.451   9.929 -0.4598 -0.1077  0.2714
  154SAPE   C2317119   2.349   3.471  10.232  0.0364  0.0062 -0.0645
  154SAPE   H3R17120   2.303   3.379  10.274 -1.6964  1.1108  0.5902
  154SAPE   H3S17121   2.438   3.437  10.176  1.8307  1.0809  1.9931
  154SAPE   C2417122   2.233   3.526  10.142 -0.0491  0.0901  0.6133
  154SAPE   H4R17123   2.138   3.551  10.194 -0.4291 -0.3603  0.1445
  154SAPE   H4S17124   2.228   3.446  10.064  1.2023  0.8780 -0.3118
  154SAPE   C2517125   2.279   3.652  10.068 -0.7472  1.1077  0.8699
  154SAPE   H5R17126   2.333   3.724  10.131  0.2902  3.1567 -2.1594
  154SAPE   C2617127   2.289   3.669   9.934 -1.0325 -0.3452  0.1880
  154SAPE   H6R17128   2.323   3.771   9.909 -0.0734 -0.2112  1.9326
  154SAPE   C2717129   2.241   3.579   9.821  0.5924  0.3998 -0.4611
  154SAPE   H7R17130   2.295   3.482   9.816  0.0342  0.1022 -0.7176
  154SAPE   H7S17131   2.268   3.624   9.724 -0.1358 -0.8954 -1.2925
  154SAPE   C2817132   2.089   3.554   9.810 -0.0177 -0.1332 -0.6439
  154SAPE   H8R17133   2.040   3.540   9.907  0.0798 -0.1713 -0.5998
  154SAPE   C2917134   2.009   3.546   9.704  1.0253 -0.9458  0.5701
  154SAPE   H9R17135   1.904   3.525   9.727  0.9149  0.5960  1.6378
  154SAPE  C21017136   2.045   3.555   9.557 -0.0498 -0.0002 -0.4435
  154SAPE  H10R17137   2.120   3.636   9.548  0.2073 -0.2894 -0.9035
  154SAPE  H10S17138   1.953   3.589   9.505 -1.6309 -0.0042  2.1682
  154SAPE  C21117139   2.102   3.429   9.501 -0.4570  0.4778  0.5997
  154SAPE  H11R17140   2.171   3.378   9.569  0.0929  1.7141  0.9976
  154SAPE  C21217141   2.084   3.370   9.376  0.1363 -0.5763  0.2880
  154SAPE  H12R17142   2.142   3.277   9.360 -0.3495 -0.8712  0.2325
  154SAPE  C21317143   2.005   3.437   9.267 -0.8282 -0.6897 -0.1740
  154SAPE  H13R17144   2.064   3.509   9.208 -0.7692 -1.6559 -1.3316
  154SAPE  H13S17145   1.928   3.501   9.316  1.9733  0.6620  2.8491
  154SAPE  C21417146   1.944   3.347   9.163 -0.2691  0.2510  0.2278
  154SAPE  H14R17147   1.839   3.318   9.177 -0.0065 -0.7817  0.0883
  154SAPE  C21517148   2.012   3.287   9.057  0.1761  0.7626 -0.2424
  154SAPE  H15R17149   1.955   3.217   8.994  1.3269  0.1522 -0.6191
  154SAPE  C21617150   2.157   3.292   9.011  0.3031 -0.2868 -0.2159
  154SAPE  H16R17151   2.220   3.340   9.088 -1.2290 -0.8929  1.4806
  154SAPE  H16S17152   2.168   3.353   8.918 -0.7439  1.0454  0.4996
  154SAPE  C21717153   2.214   3.154   8.982 -0.3152 -0.2779 -0.0204
  154SAPE  H17R17154   2.150   3.109   8.903  0.0887 -2.1036  0.6313
  154SAPE  H17S17155   2.199   3.091   9.073 -1.6676  1.2417  0.8518
  154SAPE  C21817156   2.365   3.151   8.938 -0.7143  0.4979 -0.5170
  154SAPE  H18R17157   2.441   3.190   9.009  1.2323 -0.7309 -1.8249
  154SAPE  H18S17158   2.375   3.212   8.847 -1.6746 -1.4821 -2.0239
  154SAPE  C21917159   2.404   3.006   8.904  0.5538  0.3579 -0.4527
  154SAPE  H19R17160   2.347   2.960   8.820 -1.6780  1.0802  0.5900
  154SAPE  H19S17161   2.388   2.936   8.988  0.4675  0.2177 -0.5861
  154SAPE  C22017162   2.552   3.009   8.854  0.0109  0.1521 -0.0795
  154SAPE  H20R17163   2.621   3.027   8.939 -0.5747 -2.5513  1.0733
  154SAPE  H20S17164   2.561   3.081   8.770  0.3335 -0.0016 -0.1773
  154SAPE  H20T17165   2.570   2.908   8.812 -1.5761 -0.4308  0.5570
  154SAPE   C3317166   2.702   3.554   9.874  0.2183 -0.2717 -0.3070
  154SAPE   H3X17167   2.770   3.642   9.871  0.4439 -0.4024  0.6011
  154SAPE   H3Y17168   2.602   3.574   9.919 -0.1987 -1.8713 -0.4668
  154SAPE   C3417169   2.671   3.505   9.730 -0.5887 -0.0884  0.3977
  154SAPE   H4X17170   2.617   3.408   9.728  1.6942 -1.5964  3.5087
  154SAPE   H4Y17171   2.758   3.472   9.670 -0.3163  1.8138 -0.3245
  154SAPE   C3517172   2.594   3.599   9.641 -0.3883 -0.4908 -0.2440
  154SAPE   H5X17173   2.659   3.685   9.618 -1.4752  0.3447 -0.2871
  154SAPE   H5Y17174   2.510   3.647   9.696  1.2791  0.5290  1.5543
  154SAPE   C3617175   2.557   3.539   9.506  0.3426  0.3167  0.3881
  154SAPE   H6X17176   2.481   3.460   9.525  0.3718  0.5062  1.3095
  154SAPE   H6Y17177   2.649   3.499   9.459  1.1198  1.2538  1.0638
  154SAPE   C3717178   2.491   3.641   9.411 -0.0762  0.4359  0.5265
  154SAPE   H7X17179   2.565   3.723   9.402 -0.1396  0.3569 -1.1175
  154SAPE   H7Y17180   2.407   3.686   9.468 -0.5277 -0.1924  0.3636
  154SAPE   C3817181   2.450   3.581   9.275 -0.4362 -0.1553 -0.2723
  154SAPE   H8X17182   2.397   3.484   9.288  0.2448 -0.3112  1.7166
  154SAPE   H8Y17183   2.542   3.558   9.217 -0.1859 -2.7688  1.0166
  154SAPE   C3917184   2.368   3.686   9.188  0.1704 -0.1624  0.8148
  154SAPE   H9X17185   2.428   3.779   9.190 -1.9634  1.2876  0.9795
  154SAPE   H9Y17186   2.275   3.708   9.246 -0.3940 -2.5100  0.9113
  154SAPE  C31017187   2.334   3.638   9.047  0.0934  0.4010  0.1481
  154SAPE  H10X17188   2.254   3.563   9.057  2.0142 -1.6347  1.1373
  154SAPE  H10Y17189   2.427   3.591   9.008 -0.1695  0.7015 -0.8918
  154SAPE  C31117190   2.282   3.753   8.963  0.5022  0.5959  0.4932
  154SAPE  H11X17191   2.372   3.813   8.936  1.1236  0.0443  1.2676
  154SAPE  H11Y17192   2.225   3.821   9.030 -1.7091 -0.7757  0.1008
  154SAPE  C31217193   2.190   3.699   8.840 -0.4495  0.1658 -0.7695
  154SAPE  H12X17194   2.101   3.645   8.880 -0.5829  0.6026 -0.4720
  154SAPE  H12Y17195   2.252   3.635   8.774 -1.3563 -0.0982 -1.3843
  154SAPE  C31317196   2.141   3.813   8.753 -0.0163  0.0780 -0.0690
  154SAPE  H13X17197   2.230   3.866   8.714 -0.0100 -0.5542 -0.9387
  154SAPE  H13Y17198   2.083   3.886   8.814 -1.3293  0.7796 -2.0353
  154SAPE  C31417199   2.053   3.786   8.626  0.0308 -0.1954  0.4691
  154SAPE  H14X17200   2.109   3.729   8.548 -0.1288 -1.1952  1.0584
  154SAPE  H14Y17201   2.027   3.882   8.579  0.2447  0.1406  1.0273
  154SAPE  C31517202   1.932   3.714   8.660  0.6534 -0.1676 -0.5545
  154SAPE  H15X17203   1.869   3.779   8.724 -0.6014  0.0199 -1.9177
  154SAPE  H15Y17204   1.947   3.619   8.716 -1.4114  0.3656  1.0358
  154SAPE  C31617205   1.831   3.682   8.549  0.2903  0.0110  0.8707
  154SAPE  H16X17206   1.875   3.610   8.476 -0.6782  0.2203  0.0532
  154SAPE  H16Y17207   1.822   3.778   8.494  1.2991 -0.4207 -0.1053
  154SAPE  C31717208   1.695   3.643   8.586 -0.1744  0.1598  0.5400
  154SAPE  H17X17209   1.649   3.724   8.646 -0.5648  0.4585 -0.1601
  154SAPE  H17Y17210   1.701   3.563   8.663 -0.9521  0.6958  1.1749
  154SAPE  C31817211   1.608   3.593   8.473  0.0376  0.2699  0.4304
  154SAPE  H18X17212   1.539   3.515   8.513  0.8730 -1.5945 -1.5818
  154SAPE  H18Y17213   1.671   3.543   8.397 -1.8118 -0.6857 -0.5298
  154SAPE  H18Z17214   1.563   3.675   8.413  1.5652 -0.2700 -1.5454
  155SAPE     N17215   4.303   2.755  10.750  0.7366  0.5336  0.1641
  155SAPE   HN117216   4.268   2.851  10.734  1.8456  1.1438  1.1617
  155SAPE   HN217217   4.240   2.704  10.815  0.3806  0.1328 -0.4825
  155SAPE   HN317218   4.397   2.770  10.793  0.8131  0.4060  0.0401
  155SAPE   C1217219   4.310   2.681  10.619  0.5193 -0.2350 -1.1034
  155SAPE  H12A17220   4.220   2.705  10.559 -0.5507 -3.0300 -0.7666
  155SAPE  H12B17221   4.311   2.574  10.650 -0.7461  0.8141  3.1509
  155SAPE   C1117222   4.423   2.738  10.541 -0.2241  1.1548  0.3943
  155SAPE  H11A17223   4.382   2.835  10.506 -2.3116  0.7911  1.6790
  155SAPE  H11B17224   4.429   2.671  10.453 -1.0765  0.6003  0.7509
  155SAPE     P17225   4.672   2.807  10.542  0.4713  0.0002  0.5119
  155SAPE   O1317226   4.664   2.955  10.507 -0.1673  0.6122  0.4141
  155SAPE   O1417227   4.790   2.763  10.618  0.1998 -0.2446 -0.1453
  155SAPE   O1217228   4.544   2.753  10.620 -0.0479 -0.0940 -0.4380
  155SAPE   O1117229   4.676   2.718  10.408 -0.1119 -0.1494  0.1941
  155SAPE    C117230   4.763   2.606  10.411 -0.3737  0.2027  0.1257
  155SAPE    HA17231   4.869   2.641  10.412 -0.7026  1.2218  1.3556
  155SAPE    HB17232   4.743   2.537  10.495 -1.4269 -0.5065 -0.6876
  155SAPE    C217233   4.744   2.524  10.281  0.0680  0.9708  0.5666
  155SAPE    HS17234   4.816   2.440  10.269 -0.4695  0.7737 -1.9547
  155SAPE   O2117235   4.742   2.592  10.153  0.7165  0.5073  0.1590
  155SAPE   C2117236   4.834   2.684  10.132 -0.0734 -0.4920  0.1835
  155SAPE   O2217237   4.943   2.693  10.188 -0.0245 -0.1594 -0.1400
  155SAPE   C2217238   4.789   2.760  10.015 -0.2272 -0.2503  0.3691
  155SAPE   H2R17239   4.738   2.852  10.052 -2.3667 -1.4768  0.6166
  155SAPE   H2S17240   4.889   2.780   9.971 -1.7639  1.7262 -2.5673
  155SAPE    C317241   4.609   2.447  10.303  0.6747  0.6041  0.7167
  155SAPE    HX17242   4.538   2.515  10.357 -0.0487  0.4521 -0.0270
  155SAPE    HY17243   4.632   2.385  10.392 -0.3379  0.2432  0.7453
  155SAPE   O3117244   4.551   2.369  10.188  0.5987 -0.0075 -1.0606
  155SAPE   C3117245   4.451   2.426  10.118 -0.1083 -0.4290 -0.3507
  155SAPE   O3217246   4.401   2.537  10.141 -0.3641  0.1124 -0.0835
  155SAPE   C3217247   4.407   2.344   9.999 -0.3942 -0.1522 -0.8168
  155SAPE   H2X17248   4.318   2.287  10.034 -0.0520  0.5788  1.4468
  155SAPE   H2Y17249   4.491   2.275   9.981 -0.6658 -0.5571 -0.5563
  155SAPE   C2317250   4.699   2.683   9.913 -0.0548 -0.3485  0.9330
  155SAPE   H3R17251   4.612   2.625   9.951  0.5539 -0.8384  1.6097
  155SAPE   H3S17252   4.762   2.607   9.863 -3.0109 -3.0659  1.0138
  155SAPE   C2417253   4.670   2.776   9.784 -0.7158  0.6211 -0.1841
  155SAPE   H4R17254   4.586   2.727   9.730 -0.1448  2.7057 -3.1566
  155SAPE   H4S17255   4.753   2.774   9.711 -2.5313 -1.0456 -2.3445
  155SAPE   C2517256   4.627   2.914   9.817  0.9929 -0.3787  0.5602
  155SAPE   H5R17257   4.591   2.935   9.919 -0.3346  1.1422 -0.1623
  155SAPE   C2617258   4.637   3.021   9.740 -0.2933 -0.1429  0.0710
  155SAPE   H6R17259   4.601   3.113   9.790 -0.7666 -1.1233  1.6097
  155SAPE   C2717260   4.696   3.026   9.597  0.6456  0.7758 -0.3320
  155SAPE   H7R17261   4.662   2.938   9.538 -0.2698 -0.0260  1.3045
  155SAPE   H7S17262   4.807   3.025   9.600  0.6342  0.1345  0.2279
  155SAPE   C2817263   4.646   3.156   9.535  0.3116 -0.3507 -0.1996
  155SAPE   H8R17264   4.624   3.237   9.606  2.7287  0.9239 -0.7768
  155SAPE   C2917265   4.626   3.174   9.401  0.3668  0.1279 -0.4202
  155SAPE   H9R17266   4.591   3.268   9.357  1.0074  0.6478  0.1527
  155SAPE  C21017267   4.647   3.058   9.306  0.7356  0.1898 -0.6127
  155SAPE  H10R17268   4.585   2.968   9.325  1.1334  0.3008  1.3715
  155SAPE  H10S17269   4.750   3.017   9.319 -0.8086 -4.5731 -1.2677
  155SAPE  C21117270   4.627   3.096   9.158  0.5607 -0.2003  0.3305
  155SAPE  H11R17271   4.554   3.176   9.139  0.5511 -0.3796 -0.3948
  155SAPE  C21217272   4.670   3.032   9.051 -0.4895  0.1841 -0.2896
  155SAPE  H12R17273   4.640   3.063   8.950 -0.2921  0.5195 -0.2481
  155SAPE  C21317274   4.758   2.905   9.058  0.0407 -0.2381 -0.8255
  155SAPE  H13R17275   4.800   2.894   9.161  0.3598 -1.9811 -1.1236
  155SAPE  H13S17276   4.851   2.932   9.003  0.7692 -1.8043 -0.4078
  155SAPE  C21417277   4.690   2.784   8.991 -0.2491  0.2098  0.7053
  155SAPE  H14R17278   4.647   2.807   8.893 -0.8843  1.7140  1.3057
  155SAPE  C21517279   4.660   2.659   9.033 -0.3874  0.0117  0.2764
  155SAPE  H15R17280   4.622   2.591   8.955  0.2564  1.0617 -1.0026
  155SAPE  C21617281   4.692   2.598   9.170 -0.0239 -0.9269 -0.0170
  155SAPE  H16R17282   4.790   2.629   9.212 -0.0513  0.3198 -0.8467
  155SAPE  H16S17283   4.705   2.487   9.174 -0.8691 -1.0039  1.4349
  155SAPE  C21717284   4.587   2.634   9.274 -0.0365 -0.1515  0.2423
  155SAPE  H17R17285   4.507   2.563   9.242  0.1690  0.4261 -1.6938
  155SAPE  H17S17286   4.559   2.742   9.269 -1.9382 -0.4645  2.4008
  155SAPE  C21817287   4.633   2.621   9.415 -0.4577  0.2959 -0.0976
  155SAPE  H18R17288   4.551   2.649   9.485 -0.3779 -0.1436  0.1766
  155SAPE  H18S17289   4.715   2.693   9.437  0.0384  0.0262 -1.0344
  155SAPE  C21917290   4.674   2.479   9.446 -0.1786 -0.6407 -1.2434
  155SAPE  H19R17291   4.781   2.468   9.418 -0.2098  0.5350 -1.8710
  155SAPE  H19S17292   4.607   2.410   9.391  0.1325 -1.2812 -0.8319
  155SAPE  C22017293   4.663   2.456   9.593 -0.0512 -0.2797 -0.1108
  155SAPE  H20R17294   4.563   2.487   9.631 -0.2167 -3.9435  3.1647
  155SAPE  H20S17295   4.754   2.497   9.641 -0.0674 -1.1625  0.7210
  155SAPE  H20T17296   4.668   2.347   9.617  2.0318  0.0915  1.4070
  155SAPE   C3317297   4.360   2.438   9.888  0.0358 -0.5548 -0.4861
  155SAPE   H3X17298   4.438   2.511   9.856  1.1830 -0.4732  2.2155
  155SAPE   H3Y17299   4.273   2.498   9.923 -0.8789 -1.6444 -0.8491
  155SAPE   C3417300   4.294   2.369   9.760 -0.9788  0.5478 -0.5153
  155SAPE   H4X17301   4.297   2.436   9.672  3.4085 -1.2095 -1.9654
  155SAPE   H4Y17302   4.194   2.324   9.779 -2.2156  1.8119 -3.4624
  155SAPE   C3517303   4.385   2.246   9.718 -0.3357  0.3300 -0.2443
  155SAPE   H5X17304   4.378   2.179   9.806 -3.8007  0.5226 -0.2209
  155SAPE   H5Y17305   4.491   2.278   9.713  0.3861 -1.9303 -0.3763
  155SAPE   C3617306   4.328   2.185   9.595 -0.3679 -0.1085  0.6409
  155SAPE   H6X17307   4.221   2.164   9.619 -0.0199 -0.4014  2.0151
  155SAPE   H6Y17308   4.375   2.084   9.585 -1.3750 -0.5181 -0.1853
  155SAPE   C3717309   4.330   2.265   9.453 -0.1646 -0.0016  0.8268
  155SAPE   H7X17310   4.375   2.365   9.471  2.3987 -1.1417  1.2700
  155SAPE   H7Y17311   4.229   2.273   9.407  0.2880 -1.5784 -0.5436
  155SAPE   C3817312   4.408   2.195   9.351 -0.0996  0.0102  1.0744
  155SAPE   H8X17313   4.363   2.093   9.347 -2.1181  0.7992  2.3797
  155SAPE   H8Y17314   4.514   2.184   9.382  0.3042 -0.6265 -0.4147
  155SAPE   C3917315   4.410   2.272   9.219  1.2948  0.5048  0.6787
  155SAPE   H9X17316   4.471   2.365   9.226  0.5625  1.3960 -2.9444
  155SAPE   H9Y17317   4.303   2.299   9.206  0.5252 -0.9537  3.2106
  155SAPE  C31017318   4.452   2.193   9.091  0.3945 -0.4501 -0.5857
  155SAPE  H10X17319   4.385   2.105   9.084  0.1014 -0.6134  2.8037
  155SAPE  H10Y17320   4.554   2.154   9.112  1.2219  0.8678 -1.8772
  155SAPE  C31117321   4.459   2.273   8.960 -0.4711 -0.5188  0.1886
  155SAPE  H11X17322   4.550   2.335   8.973  0.4901 -1.6701 -0.8626
  155SAPE  H11Y17323   4.370   2.340   8.951  0.0206  0.3690  1.6154
  155SAPE  C31217324   4.486   2.180   8.836 -0.5916  0.2475 -0.4622
  155SAPE  H12X17325   4.394   2.121   8.813 -0.7179  0.1008  0.3922
  155SAPE  H12Y17326   4.553   2.098   8.868 -1.3508 -1.4907 -2.9986
  155SAPE  C31317327   4.546   2.251   8.720 -0.2347  0.2309  0.0941
  155SAPE  H13X17328   4.492   2.329   8.664  0.6190 -0.3696 -1.6221
  155SAPE  H13Y17329   4.574   2.163   8.659 -0.1374  1.1217 -1.1671
  155SAPE  C31417330   4.679   2.320   8.750 -0.6956  0.3175 -0.5588
  155SAPE  H14X17331   4.746   2.258   8.814 -1.4030  0.0013 -0.1126
  155SAPE  H14Y17332   4.661   2.413   8.809 -1.7891  1.0520 -2.0100
  155SAPE  C31517333   4.746   2.378   8.624  0.5855  0.2997  1.3759
  155SAPE  H15X17334   4.821   2.450   8.665  1.5333  0.1181  0.0153
  155SAPE  H15Y17335   4.673   2.439   8.568  2.3277  0.7994 -0.4669
  155SAPE  C31617336   4.804   2.275   8.527  0.0774 -0.2536 -0.1993
  155SAPE  H16X17337   4.723   2.220   8.474  1.1296 -0.9598 -1.1317
  155SAPE  H16Y17338   4.870   2.202   8.579 -0.1021 -0.4992 -0.3141
  155SAPE  C31717339   4.886   2.332   8.412  0.1413  0.0215 -0.2334
  155SAPE  H17X17340   4.967   2.394   8.456  0.3438  1.9333 -3.0363
  155SAPE  H17Y17341   4.821   2.403   8.356 -1.8354 -0.7367  1.0299
  155SAPE  C31817342   4.932   2.227   8.311  0.4089 -0.7170 -0.0569
  155SAPE  H18X17343   4.979   2.277   8.224  1.3499 -0.4059  0.6168
  155SAPE  H18Y17344   4.848   2.158   8.287 -0.6162 -0.1213  1.6278
  155SAPE  H18Z17345   5.019   2.174   8.354  0.8218  0.0024  0.0088
  156SAPE     N17346   3.002   1.806  10.379  0.0293  0.1871  0.4546
  156SAPE   HN117347   3.094   1.852  10.369 -0.1683  0.4577 -0.2235
  156SAPE   HN217348   3.007   1.716  10.431 -0.4234 -1.0806 -1.5469
  156SAPE   HN317349   2.981   1.790  10.278  1.5087 -0.2330  0.2016
  156SAPE   C1217350   2.895   1.898  10.429  0.0254 -0.0616 -0.2392
  156SAPE  H12A17351   2.887   1.984  10.359  1.6872 -0.0035 -0.3911
  156SAPE  H12B17352   2.926   1.927  10.532 -1.2843 -3.5016  1.2665
  156SAPE   C1117353   2.768   1.823  10.450  0.3846  0.2266  0.1435
  156SAPE  H11A17354   2.734   1.798  10.348 -0.5564  0.8389  0.2940
  156SAPE  H11B17355   2.685   1.882  10.495 -1.1842 -1.3860 -0.5331
  156SAPE     P17356   2.676   1.604  10.568  0.4548 -0.0673 -0.1073
  156SAPE   O1317357   2.720   1.487  10.490 -0.0991 -0.0238  0.7438
  156SAPE   O1417358   2.667   1.587  10.711 -0.7356 -0.4636  0.2724
  156SAPE   O1217359   2.786   1.714  10.538  0.2843 -0.1119 -0.0884
  156SAPE   O1117360   2.545   1.670  10.510  0.0238  0.6069  0.0277
  156SAPE    C117361   2.460   1.752  10.594  0.9150  0.0674 -0.0866
  156SAPE    HA17362   2.381   1.698  10.651 -1.9151  2.8735 -1.0697
  156SAPE    HB17363   2.523   1.811  10.664 -1.5227  3.5703 -0.6042
  156SAPE    C217364   2.373   1.855  10.520 -0.3783 -0.4578  0.2106
  156SAPE    HS17365   2.302   1.788  10.466 -0.6887 -0.1750  0.2662
  156SAPE   O2117366   2.458   1.945  10.442  0.1587 -0.0967  0.1875
  156SAPE   C2117367   2.421   1.957  10.314 -0.1773  0.7712 -0.5033
  156SAPE   O2217368   2.332   1.897  10.262 -0.3070 -0.1236 -0.7748
  156SAPE   C2217369   2.505   2.059  10.237 -1.2318 -0.3537 -1.1654
  156SAPE   H2R17370   2.549   2.125  10.314 -2.7809 -2.1850  1.4504
  156SAPE   H2S17371   2.568   2.011  10.159  0.6514  1.6872 -0.9869
  156SAPE    C317372   2.280   1.939  10.622  0.0298 -0.0013  0.0580
  156SAPE    HX17373   2.332   1.992  10.704 -1.7160  4.1833 -1.2491
  156SAPE    HY17374   2.205   1.873  10.670  1.6331  0.3621  3.2793
  156SAPE   O3117375   2.217   2.046  10.552  0.5055  0.1286  0.1289
  156SAPE   C3117376   2.113   2.005  10.478  0.1837  0.1290 -0.1395
  156SAPE   O3217377   2.057   1.897  10.483  0.4206  0.1160 -0.1600
  156SAPE   C3217378   2.075   2.120  10.384  0.1681 -0.8636  0.0781
  156SAPE   H2X17379   2.168   2.179  10.369  1.1597 -2.0797  1.1819
  156SAPE   H2Y17380   2.006   2.185  10.443 -0.4808 -1.7194  0.2747
  156SAPE   C2317381   2.404   2.145  10.156 -0.3723  0.1027  0.5406
  156SAPE   H3R17382   2.329   2.193  10.223  0.8575  1.4421  0.9926
  156SAPE   H3S17383   2.346   2.093  10.076 -0.6948 -1.3888  1.6895
  156SAPE   C2417384   2.471   2.264  10.089  0.2815 -0.4316 -0.2420
  156SAPE   H4R17385   2.555   2.228  10.026  3.3574  1.1345  2.5938
  156SAPE   H4S17386   2.527   2.322  10.166  1.0854 -0.9876 -0.3837
  156SAPE   C2517387   2.378   2.352  10.012  0.3122 -0.4070 -0.5629
  156SAPE   H5R17388   2.309   2.408  10.075 -1.0757 -3.0178  0.3916
  156SAPE   C2617389   2.341   2.331   9.884  0.2449  0.6366  0.4719
  156SAPE   H6R17390   2.278   2.406   9.834  0.0360  1.2921  1.6719
  156SAPE   C2717391   2.387   2.213   9.797  0.2843 -0.4991 -0.4121
  156SAPE   H7R17392   2.299   2.180   9.739  0.2797  1.7107 -1.7806
  156SAPE   H7S17393   2.418   2.127   9.860  1.4106 -0.0205 -0.2729
  156SAPE   C2817394   2.502   2.239   9.709 -0.2845 -1.6073  0.1657
  156SAPE   H8R17395   2.595   2.222   9.765 -0.6932 -0.7918  1.1254
  156SAPE   C2917396   2.502   2.267   9.576  0.2881  0.0932 -0.3031
  156SAPE   H9R17397   2.598   2.265   9.523  0.5976  1.4154  0.1468
  156SAPE  C21017398   2.379   2.272   9.494  0.0745  1.1659  0.3436
  156SAPE  H10R17399   2.366   2.373   9.449 -2.9749  1.1142  0.8993
  156SAPE  H10S17400   2.290   2.264   9.560  0.9393  0.1824  1.4547
  156SAPE  C21117401   2.377   2.168   9.382  0.1892  0.4348  0.5470
  156SAPE  H11R17402   2.403   2.063   9.397  1.1674  0.2497 -1.9339
  156SAPE  C21217403   2.334   2.191   9.257  0.3811 -0.8100  0.3999
  156SAPE  H12R17404   2.310   2.109   9.189 -1.7890 -0.5031  0.7324
  156SAPE  C21317405   2.287   2.326   9.196 -0.4746  0.9002 -0.7563
  156SAPE  H13R17406   2.299   2.409   9.269 -1.3469  0.8732 -0.5680
  156SAPE  H13S17407   2.178   2.313   9.180 -0.5438 -0.8445  0.8059
  156SAPE  C21417408   2.358   2.366   9.074 -0.2795 -0.1896 -0.3605
  156SAPE  H14R17409   2.435   2.441   9.096 -0.3015 -0.5723  1.1070
  156SAPE  C21517410   2.340   2.333   8.948  1.4459 -0.5835  0.3676
  156SAPE  H15R17411   2.403   2.365   8.864  0.6594 -2.3982 -0.9914
  156SAPE  C21617412   2.233   2.232   8.905 -0.2435 -0.0913  0.2927
  156SAPE  H16R17413   2.177   2.193   8.992 -3.5768 -2.0286 -2.4851
  156SAPE  H16S17414   2.277   2.139   8.863 -2.0841 -0.4978 -0.8501
  156SAPE  C21717415   2.120   2.284   8.820  0.6906 -0.5486 -0.0981
  156SAPE  H17R17416   2.077   2.371   8.875 -1.6558 -0.7475 -1.4637
  156SAPE  H17S17417   2.040   2.208   8.807  0.4392 -0.5716  1.3735
  156SAPE  C21817418   2.173   2.341   8.681  0.0161 -0.1834 -0.2773
  156SAPE  H18R17419   2.231   2.252   8.648 -0.1171 -0.8739  1.2688
  156SAPE  H18S17420   2.241   2.427   8.699 -0.1808  0.0774 -0.7401
  156SAPE  C21917421   2.066   2.384   8.582 -0.4087  0.2746 -0.1430
  156SAPE  H19R17422   2.037   2.487   8.608 -1.7237 -0.4143  1.2635
  156SAPE  H19S17423   1.982   2.316   8.608 -1.3083  0.8253 -1.5218
  156SAPE  C22017424   2.100   2.386   8.431 -0.2706 -0.0898 -0.3626
  156SAPE  H20R17425   2.131   2.283   8.404 -0.0951 -0.8329  2.3837
  156SAPE  H20S17426   2.184   2.452   8.403  0.5196 -1.4090 -1.2485
  156SAPE  H20T17427   2.012   2.431   8.379 -0.4427  1.4673  1.2053
  156SAPE   C3317428   2.023   2.078  10.244 -0.6742  0.3779  0.0607
  156SAPE   H3X17429   1.974   1.978  10.250 -0.3890  0.2722  0.7201
  156SAPE   H3Y17430   2.104   2.063  10.169  0.3178  4.8306  0.0095
  156SAPE   C3417431   1.906   2.161  10.182 -0.1910 -0.5956  0.2638
  156SAPE   H4X17432   1.954   2.259  10.159  2.4902 -1.7064  0.7817
  156SAPE   H4Y17433   1.828   2.167  10.261 -1.1099  0.2199 -0.6683
  156SAPE   C3517434   1.848   2.093  10.060 -1.1904 -0.1258  0.2807
  156SAPE   H5X17435   1.773   2.157  10.007 -1.7519 -1.6979 -0.9214
  156SAPE   H5Y17436   1.774   2.015  10.089 -1.3324  0.3064  1.1183
  156SAPE   C3617437   1.946   2.049   9.946  0.9078  0.5935  0.0102
  156SAPE   H6X17438   1.995   1.959   9.990 -0.7957 -0.7388 -0.7380
  156SAPE   H6Y17439   2.018   2.132   9.929 -0.4572  1.9777  0.7237
  156SAPE   C3717440   1.872   2.019   9.817  0.5743 -0.2900  0.1581
  156SAPE   H7X17441   1.944   1.983   9.741  0.5533  0.4075 -0.2047
  156SAPE   H7Y17442   1.832   2.115   9.776  1.6344 -0.3507 -1.0782
  156SAPE   C3817443   1.754   1.921   9.831 -0.6932 -0.3283  0.1908
  156SAPE   H8X17444   1.672   1.974   9.884 -0.5425 -0.3651  0.4652
  156SAPE   H8Y17445   1.781   1.831   9.891 -0.1304  0.2394  0.8080
  156SAPE   C3917446   1.700   1.868   9.699  0.0316  0.0178 -0.8950
  156SAPE   H9X17447   1.617   1.800   9.730  0.0026 -0.2064 -1.4550
  156SAPE   H9Y17448   1.790   1.815   9.660  1.6475  1.6068  0.5030
  156SAPE  C31017449   1.670   1.965   9.595  0.2031  0.2822  0.1345
  156SAPE  H10X17450   1.761   2.022   9.565  0.3624  0.2156  0.4836
  156SAPE  H10Y17451   1.609   2.040   9.651 -0.0346  0.2326 -0.0571
  156SAPE  C31117452   1.597   1.912   9.468 -0.5018 -0.1688  0.0872
  156SAPE  H11X17453   1.569   1.995   9.400 -3.0865  0.3580  1.6721
  156SAPE  H11Y17454   1.505   1.862   9.507 -1.1812  1.1766  0.2558
  156SAPE  C31217455   1.693   1.808   9.399 -0.5343  0.0810 -1.5313
  156SAPE  H12X17456   1.745   1.741   9.471  0.9767  3.1133  0.4481
  156SAPE  H12Y17457   1.779   1.867   9.361  1.6154 -2.3905 -0.8051
  156SAPE  C31317458   1.636   1.730   9.283 -0.2638 -0.5529 -0.4063
  156SAPE  H13X17459   1.537   1.696   9.319  0.1737 -1.3673  0.0430
  156SAPE  H13Y17460   1.697   1.640   9.262 -1.6862 -2.2686  2.3267
  156SAPE  C31417461   1.615   1.823   9.164  1.0170  0.2859  0.0297
  156SAPE  H14X17462   1.708   1.862   9.119  1.8373 -1.4157  0.1622
  156SAPE  H14Y17463   1.561   1.918   9.186  0.0740 -0.0791 -0.6200
  156SAPE  C31517464   1.519   1.760   9.060 -0.3556  0.5326  0.6269
  156SAPE  H15X17465   1.422   1.729   9.106 -0.7209 -1.4511 -1.2950
  156SAPE  H15Y17466   1.562   1.661   9.034  1.3004  0.5192  3.0984
  156SAPE  C31617467   1.490   1.844   8.930  0.3061  0.1866 -0.8468
  156SAPE  H16X17468   1.582   1.864   8.871  0.7235 -0.4311 -0.4170
  156SAPE  H16Y17469   1.444   1.940   8.961  0.2120 -0.3537  0.7745
  156SAPE  C31717470   1.376   1.769   8.846  0.3618  0.9048  0.4262
  156SAPE  H17X17471   1.284   1.770   8.909 -0.2103 -0.3181 -0.3549
  156SAPE  H17Y17472   1.399   1.661   8.833 -3.8001 -0.0182 -0.4743
  156SAPE  C31817473   1.349   1.815   8.701  0.3674 -0.2466 -0.1728
  156SAPE  H18X17474   1.264   1.763   8.652  2.0021 -1.0210 -2.3676
  156SAPE  H18Y17475   1.435   1.800   8.632  0.8223 -1.6330  0.6529
  156SAPE  H18Z17476   1.312   1.918   8.718  0.2142 -0.6506  2.3139
  157SAPE     N17477   1.150   0.967  10.442 -0.1013 -0.0375  0.1430
  157SAPE   HN117478   1.244   0.927  10.427  0.7788  1.8646  0.2949
  157SAPE   HN217479   1.085   0.885  10.449 -0.3567  0.1262 -0.2918
  157SAPE   HN317480   1.127   1.012  10.352  0.6349 -1.1403 -0.6149
  157SAPE   C1217481   1.114   1.063  10.543 -0.3777 -0.0020 -0.1987
  157SAPE  H12A17482   1.100   1.023  10.646 -0.2378  1.9886  0.6426
  157SAPE  H12B17483   1.018   1.113  10.517 -1.0036 -0.4936  1.0521
  157SAPE   C1117484   1.216   1.173  10.554 -0.3365  0.1297  0.2614
  157SAPE  H11A17485   1.306   1.128  10.600 -0.9736  0.8990  2.3516
  157SAPE  H11B17486   1.185   1.253  10.624  0.0254  0.9910 -0.5359
  157SAPE     P17487   1.355   1.346  10.426  0.3047  0.2841  0.0154
  157SAPE   O1317488   1.321   1.439  10.536 -0.2027  0.9396 -0.2100
  157SAPE   O1417489   1.502   1.310  10.416 -0.1342  0.1358  0.1314
  157SAPE   O1217490   1.259   1.223  10.428 -0.1014  0.1493  0.7381
  157SAPE   O1117491   1.327   1.421  10.290 -0.0750 -0.6134  0.2085
  157SAPE    C117492   1.214   1.392  10.206  0.1462 -0.1894  0.8948
  157SAPE    HA17493   1.137   1.330  10.257 -0.0347 -1.3432 -0.7215
  157SAPE    HB17494   1.150   1.473  10.163  0.1585 -1.1051 -0.9340
  157SAPE    C217495   1.255   1.327  10.072  0.5784  0.4879  0.1892
  157SAPE    HS17496   1.163   1.291  10.022 -0.6392 -2.0964  3.8078
  157SAPE   O2117497   1.352   1.231  10.081  0.0476  0.9448 -0.2168
  157SAPE   C2117498   1.304   1.111  10.134  0.1695 -0.8110  1.1129
  157SAPE   O2217499   1.190   1.096  10.171  0.0894  0.2194  0.5146
  157SAPE   C2217500   1.419   1.008  10.144  0.2234  1.0627 -0.0329
  157SAPE   H2R17501   1.498   1.041  10.074 -1.7298  0.6926 -2.5808
  157SAPE   H2S17502   1.449   1.025  10.249 -1.9756  2.8081  0.3990
  157SAPE    C317503   1.330   1.422   9.978  0.2214 -0.7299  0.2017
  157SAPE    HX17504   1.431   1.450  10.014  0.0028  0.7676 -0.2550
  157SAPE    HY17505   1.270   1.516   9.972  0.5283 -0.6269 -2.4362
  157SAPE   O3117506   1.337   1.359   9.851  0.0399 -0.1785 -0.7397
  157SAPE   C3117507   1.401   1.427   9.758 -0.2501 -0.7169  0.6745
  157SAPE   O3217508   1.456   1.534   9.781 -0.0920 -0.6229 -0.6659
  157SAPE   C3217509   1.375   1.379   9.615  0.3252  0.0271 -0.7804
  157SAPE   H2X17510   1.266   1.368   9.595  0.3688 -0.2815 -0.8560
  157SAPE   H2Y17511   1.420   1.278   9.624  2.1076  0.9727  3.0707
  157SAPE   C2317512   1.366   0.864  10.145  0.7172  0.2400 -0.9320
  157SAPE   H3R17513   1.283   0.839  10.215 -1.0736  1.4061 -2.5386
  157SAPE   H3S17514   1.442   0.794  10.186 -1.0576 -1.2840 -0.0921
  157SAPE   C2417515   1.327   0.819  10.008 -0.0273  0.3894 -0.0715
  157SAPE   H4R17516   1.232   0.872   9.989 -0.9485 -0.7693  1.1124
  157SAPE   H4S17517   1.299   0.711  10.014 -1.0714  0.6993  0.8100
  157SAPE   C2517518   1.430   0.840   9.900  0.1010 -0.7696  0.8407
  157SAPE   H5R17519   1.519   0.776   9.906  0.1945 -0.7845 -0.4132
  157SAPE   C2617520   1.406   0.925   9.794 -0.8722 -0.2450  0.1066
  157SAPE   H6R17521   1.491   0.936   9.725 -0.1032 -0.5247  0.9857
  157SAPE   C2717522   1.291   1.010   9.758  0.3931  0.2133  0.1898
  157SAPE   H7R17523   1.334   1.084   9.688  0.4371 -0.5924 -0.6450
  157SAPE   H7S17524   1.257   1.058   9.853  3.7821 -0.9904  2.1996
  157SAPE   C2817525   1.189   0.939   9.682 -0.1807 -0.2708  0.5675
  157SAPE   H8R17526   1.129   0.858   9.727  1.7105 -3.9606 -2.9553
  157SAPE   C2917527   1.142   0.961   9.560  0.1407 -0.2215  0.5064
  157SAPE   H9R17528   1.070   0.887   9.526 -1.1334  1.7187 -1.2763
  157SAPE  C21017529   1.178   1.080   9.469 -0.2715  0.4514 -0.3157
  157SAPE  H10R17530   1.281   1.053   9.439 -0.1090 -0.9546  1.3435
  157SAPE  H10S17531   1.202   1.174   9.523 -0.9863  2.3808 -3.1033
  157SAPE  C21117532   1.080   1.107   9.356 -0.2073 -0.6687  0.7223
  157SAPE  H11R17533   0.976   1.125   9.387 -0.9158 -0.2498 -1.7283
  157SAPE  C21217534   1.103   1.120   9.223 -0.3369 -0.5305  0.2100
  157SAPE  H12R17535   1.021   1.125   9.149  0.3863 -1.2796 -0.6710
  157SAPE  C21317536   1.244   1.104   9.163  0.3024 -0.4284 -0.5366
  157SAPE  H13R17537   1.314   1.051   9.231  0.0720  0.7587  0.6471
  157SAPE  H13S17538   1.293   1.203   9.153  0.4026 -0.1761  2.0235
  157SAPE  C21417539   1.243   1.022   9.032 -0.5072 -1.0770 -0.0200
  157SAPE  H14R17540   1.210   0.919   9.054 -1.0900 -0.7141  0.8443
  157SAPE  C21517541   1.298   1.041   8.911 -0.3133 -0.5649  1.0764
  157SAPE  H15R17542   1.264   0.962   8.844  0.6768  1.2607 -1.7549
  157SAPE  C21617543   1.377   1.157   8.857 -0.1876 -0.2061  0.1601
  157SAPE  H16R17544   1.424   1.224   8.932  1.5267  1.2493 -2.0575
  157SAPE  H16S17545   1.308   1.208   8.787 -0.6403 -0.8304  0.1411
  157SAPE  C21717546   1.499   1.101   8.784 -0.4252 -0.4834  0.2771
  157SAPE  H17R17547   1.472   1.028   8.704 -0.2366  2.1440 -2.3437
  157SAPE  H17S17548   1.571   1.057   8.856 -0.0442  0.1701  0.2987
  157SAPE  C21817549   1.578   1.213   8.716  0.1995 -0.6045 -0.2507
  157SAPE  H18R17550   1.510   1.264   8.644  2.5134 -1.2504 -3.0708
  157SAPE  H18S17551   1.658   1.166   8.656  1.1003 -0.6134  0.9079
  157SAPE  C21917552   1.627   1.323   8.813 -0.2237 -0.4936  0.2069
  157SAPE  H19R17553   1.682   1.292   8.904  1.9307  0.2131 -0.8057
  157SAPE  H19S17554   1.540   1.382   8.850  1.5682  1.6830  1.1074
  157SAPE  C22017555   1.734   1.404   8.746  0.6436  0.2853  0.5310
  157SAPE  H20R17556   1.768   1.478   8.821 -2.2030 -0.6276  2.9171
  157SAPE  H20S17557   1.693   1.452   8.655  0.1422 -2.2211 -0.6635
  157SAPE  H20T17558   1.816   1.338   8.710  0.5972  0.3946  0.2258
  157SAPE   C3317559   1.440   1.471   9.512 -0.0293  0.1153  0.1023
  157SAPE   H3X17560   1.541   1.503   9.547 -0.5633  1.2127  0.7004
  157SAPE   H3Y17561   1.383   1.566   9.502 -0.9559 -0.3049  1.1738
  157SAPE   C3417562   1.464   1.411   9.376  0.3947  0.7384  0.3277
  157SAPE   H4X17563   1.489   1.490   9.302 -1.7261  0.8845 -0.3043
  157SAPE   H4Y17564   1.367   1.366   9.346 -0.1747  0.6090  2.2378
  157SAPE   C3517565   1.576   1.309   9.371 -0.8153  0.5291 -0.0375
  157SAPE   H5X17566   1.550   1.225   9.439 -0.6764  1.1731  0.8375
  157SAPE   H5Y17567   1.675   1.337   9.413 -0.8721 -0.0517  0.5043
  157SAPE   C3617568   1.597   1.258   9.230  0.6791  0.3293  0.6318
  157SAPE   H6X17569   1.657   1.329   9.170 -1.9974  1.9069 -0.3360
  157SAPE   H6Y17570   1.499   1.257   9.178  1.8350 -0.7928 -1.6698
  157SAPE   C3717571   1.646   1.112   9.215 -0.1739  0.0436  0.3253
  157SAPE   H7X17572   1.638   1.068   9.113  0.7961 -0.8797  0.6308
  157SAPE   H7Y17573   1.584   1.048   9.282 -0.7220  1.7116  1.4665
  157SAPE   C3817574   1.793   1.110   9.250 -0.7687 -0.0146 -0.4332
  157SAPE   H8X17575   1.830   1.009   9.278  0.5990  0.9035  1.2437
  157SAPE   H8Y17576   1.806   1.180   9.335  4.3371 -2.2931  1.0651
  157SAPE   C3917577   1.882   1.172   9.141  0.6751 -0.0432 -0.1001
  157SAPE   H9X17578   1.981   1.185   9.188 -0.2216 -1.6799  2.4401
  157SAPE   H9Y17579   1.843   1.275   9.122  2.1473  0.8377  1.3737
  157SAPE  C31017580   1.887   1.082   9.008  0.0641  0.2092 -0.5012
  157SAPE  H10X17581   1.783   1.052   8.980  0.3645 -0.3771 -1.0286
  157SAPE  H10Y17582   1.943   0.993   9.042  1.9470  0.6759 -2.2270
  157SAPE  C31117583   1.969   1.163   8.902 -0.6089 -0.4628 -0.0592
  157SAPE  H11X17584   1.916   1.259   8.886  0.9003  0.6402  1.1791
  157SAPE  H11Y17585   1.978   1.098   8.813  0.8847 -0.1771 -0.1452
  157SAPE  C31217586   2.115   1.198   8.949  0.2912 -0.7196 -0.0435
  157SAPE  H12X17587   2.160   1.105   8.991  3.1303  1.2825  1.7083
  157SAPE  H12Y17588   2.100   1.280   9.023 -0.0866  0.3268 -1.2432
  157SAPE  C31317589   2.216   1.259   8.848  0.0051 -0.3659  0.6701
  157SAPE  H13X17590   2.233   1.182   8.770 -0.3197  1.3834 -1.1880
  157SAPE  H13Y17591   2.313   1.284   8.895  0.2224  0.1654 -0.0468
  157SAPE  C31417592   2.171   1.384   8.772  0.0934 -0.6603  0.4236
  157SAPE  H14X17593   2.086   1.431   8.825 -0.3619 -1.6289  0.5888
  157SAPE  H14Y17594   2.132   1.346   8.675  1.8773 -0.4359 -0.4158
  157SAPE  C31517595   2.285   1.491   8.744 -0.2848 -0.0224  0.2252
  157SAPE  H15X17596   2.327   1.531   8.839  0.4150 -2.0683  0.8152
  157SAPE  H15Y17597   2.239   1.583   8.700 -0.4984 -2.3648 -5.2492
  157SAPE  C31617598   2.396   1.434   8.649  1.1705 -0.9180 -0.7015
  157SAPE  H16X17599   2.353   1.364   8.574 -0.3397 -0.3125 -0.4251
  157SAPE  H16Y17600   2.468   1.384   8.717  0.3231 -0.1821  0.7728
  157SAPE  C31717601   2.469   1.545   8.573  0.4928  0.2265  0.3247
  157SAPE  H17X17602   2.475   1.632   8.641 -1.4442  0.2714  0.4971
  157SAPE  H17Y17603   2.403   1.562   8.485  0.9395  0.9740  0.1328
  157SAPE  C31817604   2.602   1.508   8.514  0.6249  0.5393 -0.9646
  157SAPE  H18X17605   2.606   1.402   8.482  1.0765 -0.9579  3.3672
  157SAPE  H18Y17606   2.682   1.523   8.589 -1.2466  0.8296  1.0723
  157SAPE  H18Z17607   2.625   1.579   8.432  1.2235  1.1532 -0.2789
  158SAPE     N17608   4.139   1.933  10.835  0.4155 -0.1888  0.4188
  158SAPE   HN117609   4.202   2.015  10.843  1.7328 -0.8502 -2.2018
  158SAPE   HN217610   4.044   1.975  10.841  0.9044  0.7500  2.9780
  158SAPE   HN317611   4.150   1.872  10.919 -3.7843 -3.5941 -1.0966
  158SAPE   C1217612   4.187   1.862  10.716 -0.3804 -0.0331  0.2776
  158SAPE  H12A17613   4.121   1.773  10.708  0.7739 -1.0704  1.6290
  158SAPE  H12B17614   4.287   1.821  10.745 -0.3712 -0.8651 -0.8714
  158SAPE   C1117615   4.204   1.951  10.594  0.4129 -0.7106 -0.0337
  158SAPE  H11A17616   4.246   1.888  10.511  0.2182  1.9449 -2.2896
  158SAPE  H11B17617   4.279   2.031  10.608 -1.6790  1.1863  0.8630
  158SAPE     P17618   4.001   1.945  10.439 -0.1339  0.0436  0.0537
  158SAPE   O1317619   4.020   1.799  10.430 -0.0540 -0.5383 -0.4093
  158SAPE   O1417620   3.859   1.989  10.433  0.1337 -0.0130 -0.6113
  158SAPE   O1217621   4.072   2.009  10.568 -0.8113 -0.2629  0.1051
  158SAPE   O1117622   4.084   2.011  10.325  0.6366 -0.0064 -1.0407
  158SAPE    C117623   4.088   2.144  10.291 -0.0021 -1.0072 -0.3423
  158SAPE    HA17624   4.034   2.203  10.368 -0.2764 -2.2842  0.4651
  158SAPE    HB17625   4.196   2.171  10.295 -0.3195  0.2021  0.5094
  158SAPE    C217626   4.033   2.163  10.151  1.0215 -0.0708  0.8125
  158SAPE    HS17627   3.939   2.105  10.159  1.3930 -1.0113 -0.9862
  158SAPE   O2117628   4.122   2.091  10.063  0.7284  0.2394 -0.1271
  158SAPE   C2117629   4.062   2.016   9.971  0.0255 -0.1711  0.3800
  158SAPE   O2217630   3.943   2.001   9.960 -0.5859 -0.5406 -0.1069
  158SAPE   C2217631   4.166   1.972   9.873  0.6852 -0.0766 -0.1230
  158SAPE   H2R17632   4.194   2.061   9.813  2.2826 -0.3727  0.1387
  158SAPE   H2S17633   4.255   1.946   9.934  0.4654  1.4325  0.8774
  158SAPE    C317634   4.011   2.309  10.093  0.2783  0.4373  0.5239
  158SAPE    HX17635   4.115   2.348  10.087 -0.0334  1.3683  0.8383
  158SAPE    HY17636   3.948   2.371  10.160 -0.5325  0.8513 -0.5969
  158SAPE   O3117637   3.957   2.307   9.955 -0.2695 -0.1831 -0.0352
  158SAPE   C3117638   3.829   2.304   9.946  0.1644 -1.1277  0.6168
  158SAPE   O3217639   3.752   2.351  10.029 -0.1551 -0.2055 -0.8310
  158SAPE   C3217640   3.790   2.242   9.809 -0.5007  0.2706  0.4846
  158SAPE   H2X17641   3.689   2.283   9.787 -1.9596 -2.9478  0.5968
  158SAPE   H2Y17642   3.767   2.135   9.826 -0.1381 -0.3195 -2.3272
  158SAPE   C2317643   4.124   1.848   9.787  0.3528 -0.9936  0.0741
  158SAPE   H3R17644   4.038   1.882   9.725 -0.4665 -1.2188  1.0556
  158SAPE   H3S17645   4.073   1.771   9.849 -0.7836 -0.1368  0.2400
  158SAPE   C2417646   4.237   1.792   9.701 -0.7853 -0.2087  0.1044
  158SAPE   H4R17647   4.313   1.738   9.762  0.0461 -0.9265 -1.4951
  158SAPE   H4S17648   4.293   1.873   9.647  1.1937 -1.0860  0.7525
  158SAPE   C2517649   4.177   1.694   9.607  0.2036 -0.6237  0.6330
  158SAPE   H5R17650   4.136   1.605   9.656 -1.0780  0.3160  1.3419
  158SAPE   C2617651   4.171   1.699   9.470  1.8774 -0.5304 -0.0471
  158SAPE   H6R17652   4.123   1.616   9.416 -0.6451 -0.3259  1.6697
  158SAPE   C2717653   4.210   1.816   9.381 -0.9958  0.0661  0.4952
  158SAPE   H7R17654   4.300   1.785   9.323  0.6407  1.7388  1.9769
  158SAPE   H7S17655   4.273   1.883   9.444 -0.3866  0.7252 -0.7623
  158SAPE   C2817656   4.095   1.880   9.308 -0.0360 -0.7403 -0.8047
  158SAPE   H8R17657   4.018   1.914   9.380  2.3801 -0.0355  1.6352
  158SAPE   C2917658   4.081   1.892   9.182  0.4987 -0.4327  0.4775
  158SAPE   H9R17659   3.986   1.943   9.159  1.5669  1.1058 -0.7552
  158SAPE  C21017660   4.170   1.843   9.067 -0.1571 -0.9088  0.1572
  158SAPE  H10R17661   4.276   1.821   9.092  0.2433  0.9286  0.1903
  158SAPE  H10S17662   4.183   1.924   8.992  0.4039 -1.6713 -0.5932
  158SAPE  C21117663   4.140   1.725   8.991  0.5475  0.1414  0.5004
  158SAPE  H11R17664   4.082   1.648   9.045 -1.9859  1.4147 -0.2364
  158SAPE  C21217665   4.177   1.697   8.863  0.1724 -0.6763  0.7910
  158SAPE  H12R17666   4.157   1.599   8.819  2.1555 -0.5429 -0.5322
  158SAPE  C21317667   4.257   1.787   8.765  0.1506  0.3829 -0.1257
  158SAPE  H13R17668   4.327   1.842   8.832  2.5480 -1.7021 -0.7718
  158SAPE  H13S17669   4.191   1.852   8.704 -2.5655 -0.4247  1.7323
  158SAPE  C21417670   4.357   1.705   8.691  0.3898  0.2007 -0.6100
  158SAPE  H14R17671   4.366   1.609   8.745  0.4526 -0.0070 -0.9904
  158SAPE  C21517672   4.396   1.712   8.561 -0.0142  0.4768  0.5115
  158SAPE  H15R17673   4.467   1.640   8.518 -0.0641  1.3087 -1.0566
  158SAPE  C21617674   4.350   1.813   8.463  0.4282  0.1249  1.3572
  158SAPE  H16R17675   4.240   1.797   8.452  0.5649 -0.1069  0.0887
  158SAPE  H16S17676   4.383   1.790   8.359  1.0753  0.7314  1.4267
  158SAPE  C21717677   4.385   1.953   8.497  0.5246 -0.3008  0.9274
  158SAPE  H17R17678   4.495   1.961   8.513  0.9258 -1.3217 -0.9434
  158SAPE  H17S17679   4.333   1.993   8.586  0.0206 -2.0226  1.4260
  158SAPE  C21817680   4.362   2.049   8.370  0.3298  0.2059 -0.1254
  158SAPE  H18R17681   4.263   2.025   8.326  1.3395  1.5938 -3.4657
  158SAPE  H18S17682   4.445   2.022   8.301  0.4971  0.7078 -0.1232
  158SAPE  C21917683   4.367   2.198   8.404 -0.0294 -0.1558 -1.4622
  158SAPE  H19R17684   4.472   2.234   8.406 -0.5003  1.3048  0.5457
  158SAPE  H19S17685   4.316   2.223   8.499 -2.3905  0.4178 -2.7839
  158SAPE  C22017686   4.304   2.285   8.292 -0.1872  0.3125  0.1088
  158SAPE  H20R17687   4.375   2.290   8.207  1.1176 -1.7598  1.0179
  158SAPE  H20S17688   4.288   2.389   8.328 -2.1495 -0.0221  0.3248
  158SAPE  H20T17689   4.205   2.247   8.260 -1.1964  2.3344  0.6510
  158SAPE   C3317690   3.898   2.266   9.701  0.2113  0.5234  0.2619
  158SAPE   H3X17691   3.992   2.208   9.714  0.3098  0.9173  1.3635
  158SAPE   H3Y17692   3.928   2.373   9.699 -0.4797  0.7598  1.7730
  158SAPE   C3417693   3.844   2.251   9.554  0.6214  0.1177 -0.8231
  158SAPE   H4X17694   3.778   2.337   9.529 -0.3299  0.0233  1.1753
  158SAPE   H4Y17695   3.782   2.159   9.542 -0.4736  0.6505  0.5827
  158SAPE   C3517696   3.961   2.255   9.459 -0.3828  0.4490 -0.8311
  158SAPE   H5X17697   4.036   2.177   9.482 -0.5245  0.8086  1.0125
  158SAPE   H5Y17698   4.015   2.351   9.476  1.3112 -0.6300  0.2623
  158SAPE   C3617699   3.917   2.238   9.313  0.0829 -0.3343  0.4438
  158SAPE   H6X17700   3.831   2.306   9.294  0.2162 -0.1987  0.3211
  158SAPE   H6Y17701   3.871   2.139   9.292  0.2689 -0.0471 -1.5915
  158SAPE   C3717702   4.015   2.275   9.194  0.3774  0.1405 -0.2175
  158SAPE   H7X17703   4.098   2.208   9.223  1.5549  0.6581 -2.2074
  158SAPE   H7Y17704   4.050   2.380   9.209  1.6245 -0.4798  1.4738
  158SAPE   C3817705   3.957   2.255   9.053 -0.4459  1.2409  0.3831
  158SAPE   H8X17706   3.865   2.316   9.037 -1.6148 -0.3556  0.7376
  158SAPE   H8Y17707   3.928   2.148   9.047  0.7706  0.9892 -1.9012
  158SAPE   C3917708   4.054   2.282   8.938  0.9064 -0.1127  0.4087
  158SAPE   H9X17709   4.125   2.199   8.919 -0.3218 -0.8318 -1.3332
  158SAPE   H9Y17710   4.107   2.378   8.955 -2.0845  1.8880 -0.7601
  158SAPE  C31017711   3.987   2.295   8.800 -0.6860 -0.1132  0.3616
  158SAPE  H10X17712   3.895   2.358   8.805 -1.1751 -0.6734 -0.9655
  158SAPE  H10Y17713   3.945   2.198   8.763 -3.9061  0.9150  0.9612
  158SAPE  C31117714   4.082   2.347   8.702  0.4015  0.2366  0.2739
  158SAPE  H11X17715   4.177   2.290   8.709 -0.3329 -1.2354 -1.1413
  158SAPE  H11Y17716   4.109   2.452   8.728  1.5451  0.0894 -0.2480
  158SAPE  C31217717   4.047   2.350   8.552 -1.1557 -0.0234 -0.4211
  158SAPE  H12X17718   4.036   2.252   8.500 -0.8346  0.6031 -1.7087
  158SAPE  H12Y17719   4.131   2.396   8.496  0.1829  0.8081  2.1093
  158SAPE  C31317720   3.926   2.443   8.529  0.5236  0.3372 -0.1082
  158SAPE  H13X17721   3.956   2.542   8.570  0.7728 -0.4810  1.8408
  158SAPE  H13Y17722   3.846   2.393   8.589  0.8089 -0.6371 -0.5193
  158SAPE  C31417723   3.897   2.471   8.380  0.4956  0.0313 -0.2612
  158SAPE  H14X17724   3.991   2.515   8.340  2.0154 -2.2818  0.5424
  158SAPE  H14Y17725   3.813   2.543   8.377  2.1469  2.1235  0.4421
  158SAPE  C31517726   3.859   2.342   8.303  0.8629 -0.0538 -0.0409
  158SAPE  H15X17727   3.750   2.321   8.307  1.2313 -2.0216  3.2167
  158SAPE  H15Y17728   3.902   2.253   8.354  0.6806 -1.3445 -2.0127
  158SAPE  C31617729   3.909   2.351   8.157  0.1168  0.1338 -0.3717
  158SAPE  H16X17730   4.019   2.364   8.162  0.4834 -2.8353  2.0348
  158SAPE  H16Y17731   3.860   2.428   8.094 -0.2905  0.7921  0.7209
  158SAPE  C31717732   3.897   2.215   8.094  0.2665  0.0432  0.2863
  158SAPE  H17X17733   3.787   2.200   8.082  0.4599  0.6093 -3.2876
  158SAPE  H17Y17734   3.955   2.147   8.159  2.0501  0.8325 -0.4165
  158SAPE  C31817735   3.950   2.218   7.951  0.7050  0.4173 -0.8280
  158SAPE  H18X17736   3.900   2.302   7.898 -0.4199  0.0027 -0.4650
  158SAPE  H18Y17737   3.945   2.113   7.914 -2.2721 -0.7523  2.3828
  158SAPE  H18Z17738   4.058   2.245   7.955  0.5849  0.7715  0.2220
  159SAPE     N17739   4.509   5.998   6.361  0.2747 -0.9292 -0.4594
  159SAPE   HN117740   4.429   6.056   6.395 -1.6519 -2.6107 -1.8655
  159SAPE   HN217741   4.563   6.044   6.285 -2.2569  1.1049 -1.2095
  159SAPE   HN317742   4.479   5.909   6.317  0.6304 -0.9795 -0.6031
  159SAPE   C1217743   4.591   5.950   6.478  0.3932 -0.1346 -0.0545
  159SAPE  H12A17744   4.618   6.039   6.538  2.2803 -1.3125  0.9113
  159SAPE  H12B17745   4.681   5.899   6.438  0.2278 -0.3877 -0.1084
  159SAPE   C1117746   4.524   5.837   6.562  0.8471 -0.1330  0.0029
  159SAPE  H11A17747   4.445   5.865   6.635  0.4588  0.4133 -0.6230
  159SAPE  H11B17748   4.608   5.815   6.632  1.7726  0.5512 -0.8592
  159SAPE     P17749   4.338   5.682   6.477  0.1748 -0.3549  0.1830
  159SAPE   O1317750   4.257   5.805   6.492  0.0275 -0.4934 -0.3443
  159SAPE   O1417751   4.306   5.592   6.361 -0.1969 -0.4444  0.0524
  159SAPE   O1217752   4.498   5.720   6.478  0.4135  0.1079 -0.2328
  159SAPE   O1117753   4.340   5.598   6.610  0.0340  0.2389 -0.0541
  159SAPE    C117754   4.410   5.473   6.608 -0.1808  0.3799  0.3755
  159SAPE    HA17755   4.411   5.424   6.509 -0.2210 -1.8649  1.4385
  159SAPE    HB17756   4.512   5.494   6.646  1.3314 -3.0996 -1.3587
  159SAPE    C217757   4.324   5.374   6.694  0.0951  0.6691 -0.2990
  159SAPE    HS17758   4.228   5.391   6.641  0.0643  0.8406 -0.1880
  159SAPE   O2117759   4.326   5.412   6.832  0.0563 -0.4870  0.2682
  159SAPE   C2117760   4.208   5.398   6.901 -0.4730  0.4065 -0.3218
  159SAPE   O2217761   4.101   5.371   6.849 -0.5472  0.1623 -0.1733
  159SAPE   C2217762   4.235   5.423   7.051  0.1402  0.5960 -0.0213
  159SAPE   H2R17763   4.280   5.332   7.094 -0.2208  0.6111  0.3997
  159SAPE   H2S17764   4.305   5.509   7.060  0.1706  0.4005  2.0152
  159SAPE    C317765   4.358   5.223   6.676 -0.8145 -0.5296  0.6413
  159SAPE    HX17766   4.463   5.211   6.710 -0.0195  0.4690 -1.2969
  159SAPE    HY17767   4.353   5.209   6.565  1.3180  5.3061 -0.5541
  159SAPE   O3117768   4.267   5.136   6.739 -0.1682 -0.4404 -0.8749
  159SAPE   C3117769   4.300   5.013   6.739 -0.2737  0.2318 -0.0045
  159SAPE   O3217770   4.405   4.969   6.693 -0.8190  0.1950  0.9008
  159SAPE   C3217771   4.193   4.941   6.812 -0.2985  0.2314  0.7462
  159SAPE   H2X17772   4.145   4.865   6.746 -1.4323  0.3714  1.3719
  159SAPE   H2Y17773   4.117   5.015   6.846 -1.6200 -0.8994  0.3782
  159SAPE   C2317774   4.114   5.466   7.145 -0.1440 -0.3786 -0.1488
  159SAPE   H3R17775   4.020   5.420   7.108  0.6663 -1.2352 -1.2137
  159SAPE   H3S17776   4.103   5.576   7.144  0.2613 -0.3254  0.5712
  159SAPE   C2417777   4.134   5.421   7.292  0.1472 -0.2484  0.2603
  159SAPE   H4R17778   4.043   5.447   7.349  0.3111  0.1604  0.3449
  159SAPE   H4S17779   4.221   5.475   7.336 -1.2288  0.6591  1.9869
  159SAPE   C2517780   4.151   5.271   7.309 -0.5755  0.1806  0.1134
  159SAPE   H5R17781   4.156   5.211   7.217 -1.3285  2.2104 -1.3303
  159SAPE   C2617782   4.178   5.218   7.432  0.3719 -0.3775 -0.3037
  159SAPE   H6R17783   4.185   5.109   7.441 -2.7772 -0.5761  0.9641
  159SAPE   C2717784   4.193   5.292   7.557 -0.2078  0.2175 -0.8250
  159SAPE   H7R17785   4.121   5.250   7.631  0.2090 -1.5513 -1.3896
  159SAPE   H7S17786   4.166   5.399   7.543 -0.3256  0.2879 -0.0871
  159SAPE   C2817787   4.338   5.284   7.608 -0.5039  0.3380 -0.3098
  159SAPE   H8R17788   4.415   5.268   7.531  0.0444 -0.8813  0.4568
  159SAPE   C2917789   4.383   5.277   7.739 -0.0094  0.5467 -0.2616
  159SAPE   H9R17790   4.489   5.286   7.764 -0.3174  1.1315  0.9208
  159SAPE  C21017791   4.289   5.289   7.863 -0.3565  0.2906  0.5579
  159SAPE  H10R17792   4.278   5.186   7.901 -1.4047  0.1056 -0.1878
  159SAPE  H10S17793   4.193   5.332   7.828 -1.2175 -2.2168 -0.3193
  159SAPE  C21117794   4.345   5.376   7.970 -0.1674  0.6602 -0.4972
  159SAPE  H11R17795   4.370   5.474   7.928 -0.9743  0.4655 -1.4810
  159SAPE  C21217796   4.368   5.340   8.098  0.0597  0.3158  0.1290
  159SAPE  H12R17797   4.407   5.416   8.167 -2.5521 -0.7750  3.0624
  159SAPE  C21317798   4.331   5.209   8.176 -0.4043 -1.0602  0.3303
  159SAPE  H13R17799   4.415   5.144   8.146  0.5797  0.6389 -0.7906
  159SAPE  H13S17800   4.239   5.165   8.134 -0.8763  1.2558 -1.2715
  159SAPE  C21417801   4.326   5.215   8.327 -0.4468  0.3424 -0.3212
  159SAPE  H14R17802   4.418   5.189   8.381 -0.9806 -0.9636 -0.0115
  159SAPE  C21517803   4.213   5.252   8.396 -0.0497 -0.5042  0.1954
  159SAPE  H15R17804   4.216   5.251   8.506  1.2136 -0.5470  0.1763
  159SAPE  C21617805   4.081   5.294   8.330  0.0790 -0.5802 -0.6216
  159SAPE  H16R17806   4.040   5.219   8.259 -0.9394 -1.3716  0.7331
  159SAPE  H16S17807   4.105   5.385   8.271  0.5772 -0.6560 -0.5443
  159SAPE  C21717808   3.966   5.315   8.428  0.3308  1.1186  0.1834
  159SAPE  H17R17809   3.975   5.240   8.509  0.4071  0.7972 -0.1197
  159SAPE  H17S17810   3.876   5.285   8.370  1.1135  1.1059 -1.0565
  159SAPE  C21817811   3.967   5.462   8.484 -0.3812 -0.2731  0.0438
  159SAPE  H18R17812   3.980   5.527   8.395  1.8975 -0.0941  0.4631
  159SAPE  H18S17813   4.059   5.475   8.544 -0.0040 -0.2967 -0.5250
  159SAPE  C21917814   3.854   5.501   8.579  0.0223 -0.3002  0.7194
  159SAPE  H19R17815   3.870   5.425   8.658  0.0588 -1.2669 -0.1924
  159SAPE  H19S17816   3.753   5.490   8.534 -0.4981  0.8373  1.5740
  159SAPE  C22017817   3.860   5.642   8.640  0.3857 -0.6931  0.7913
  159SAPE  H20R17818   3.784   5.663   8.717  0.5209  2.2082  0.2470
  159SAPE  H20S17819   3.840   5.718   8.562 -0.2122 -1.6687 -0.0270
  159SAPE  H20T17820   3.961   5.658   8.685  0.4302  2.7812 -0.2553
  159SAPE   C3317821   4.261   4.868   6.932 -0.1852 -0.6028  0.2142
  159SAPE   H3X17822   4.343   4.803   6.894  0.9411  1.4607 -1.1128
  159SAPE   H3Y17823   4.179   4.810   6.980  0.0983 -0.8866  0.3593
  159SAPE   C3417824   4.298   4.958   7.051 -0.3060 -0.2842 -0.2376
  159SAPE   H4X17825   4.208   5.008   7.094 -0.3048 -0.7580  0.3340
  159SAPE   H4Y17826   4.372   5.035   7.022  0.2006  0.1741  2.0746
  159SAPE   C3517827   4.369   4.868   7.151 -0.3258 -0.1038 -0.3318
  159SAPE   H5X17828   4.456   4.817   7.104 -0.5954  0.4622 -1.4781
  159SAPE   H5Y17829   4.302   4.785   7.183  1.3241 -1.8012 -1.1165
  159SAPE   C3617830   4.438   4.949   7.266  0.1294  0.2679 -0.1957
  159SAPE   H6X17831   4.376   5.026   7.317  0.9074  1.6135 -1.2123
  159SAPE   H6Y17832   4.528   5.006   7.235  0.5655  0.2336  0.9198
  159SAPE   C3717833   4.484   4.862   7.392  0.5321 -0.3578  0.1337
  159SAPE   H7X17834   4.585   4.817   7.386  0.3194 -0.8172 -0.1041
  159SAPE   H7Y17835   4.407   4.781   7.397 -2.2472  2.1315  0.2073
  159SAPE   C3817836   4.479   4.940   7.520  0.2697 -0.3504 -0.0217
  159SAPE   H8X17837   4.377   4.983   7.532  0.2948  1.0012 -3.3839
  159SAPE   H8Y17838   4.555   5.020   7.506  0.6635 -1.1291 -3.0974
  159SAPE   C3917839   4.522   4.846   7.636 -0.4730  0.0175  0.3453
  159SAPE   H9X17840   4.630   4.822   7.631 -0.7099 -0.9772 -0.1169
  159SAPE   H9Y17841   4.467   4.751   7.625  0.8203 -1.0024  2.0657
  159SAPE  C31017842   4.507   4.909   7.772  0.6192 -0.2076 -0.8010
  159SAPE  H10X17843   4.402   4.946   7.770  0.9713  1.5667  3.3799
  159SAPE  H10Y17844   4.568   5.002   7.779  0.1161  0.3221 -2.8428
  159SAPE  C31117845   4.544   4.812   7.889 -0.4695 -0.0868  0.3430
  159SAPE  H11X17846   4.644   4.771   7.865  0.5209  1.7930  1.1118
  159SAPE  H11Y17847   4.468   4.731   7.900 -2.1297  0.9353 -2.5764
  159SAPE  C31217848   4.549   4.890   8.016 -0.4018 -0.1935 -0.7637
  159SAPE  H12X17849   4.465   4.963   8.023 -0.0157  0.3378 -1.5620
  159SAPE  H12Y17850   4.638   4.954   8.005 -1.3604  1.1883 -0.7854
  159SAPE  C31317851   4.561   4.806   8.139 -0.1587 -1.3063 -0.4645
  159SAPE  H13X17852   4.662   4.762   8.125  0.4452  0.4409 -2.0566
  159SAPE  H13Y17853   4.484   4.727   8.146 -0.7837 -0.6371  0.4601
  159SAPE  C31417854   4.571   4.890   8.267 -0.2091 -0.2367 -0.4683
  159SAPE  H14X17855   4.496   4.972   8.269  0.8966  0.8008  0.5860
  159SAPE  H14Y17856   4.671   4.939   8.262  0.7017 -2.1060 -1.5005
  159SAPE  C31517857   4.541   4.816   8.396 -0.1264  0.2170 -0.6544
  159SAPE  H15X17858   4.621   4.741   8.411 -0.9598 -0.5049  0.3544
  159SAPE  H15Y17859   4.449   4.753   8.392 -0.2027  0.3769 -1.5702
  159SAPE  C31617860   4.521   4.919   8.511 -0.1865  0.1431 -0.1852
  159SAPE  H16X17861   4.430   4.973   8.478 -0.6984  1.1058  2.5206
  159SAPE  H16Y17862   4.617   4.976   8.514 -0.7578  1.0823  1.0937
  159SAPE  C31717863   4.490   4.851   8.646  0.1419 -0.6611  0.1706
  159SAPE  H17X17864   4.585   4.813   8.688 -0.5614 -0.9831  1.5259
  159SAPE  H17Y17865   4.429   4.759   8.633 -2.7973  1.2105 -0.4061
  159SAPE  C31817866   4.418   4.936   8.750 -0.0152  0.4070 -0.4948
  159SAPE  H18X17867   4.312   4.955   8.722 -0.5726 -0.8678  0.6280
  159SAPE  H18Y17868   4.478   5.030   8.755  2.6166 -1.0262 -2.3026
  159SAPE  H18Z17869   4.418   4.898   8.854  0.7514  0.0306 -0.6252
  160SAPE     N17870   1.722   5.955   6.428  0.0762  0.7677  0.3438
  160SAPE   HN117871   1.738   5.891   6.509  0.3529  0.9614  0.4450
  160SAPE   HN217872   1.621   5.977   6.439  0.4624  2.0600  1.6612
  160SAPE   HN317873   1.738   5.914   6.334 -1.2335 -0.6447  0.6879
  160SAPE   C1217874   1.799   6.078   6.430 -0.3406 -0.4407  0.0361
  160SAPE  H12A17875   1.909   6.059   6.425 -0.3859 -0.9136  0.7554
  160SAPE  H12B17876   1.793   6.121   6.532 -0.2819 -1.5263  0.5134
  160SAPE   C1117877   1.763   6.178   6.327 -0.5038 -0.5916  0.7030
  160SAPE  H11A17878   1.750   6.127   6.230 -4.2617  1.1197  0.1610
  160SAPE  H11B17879   1.840   6.255   6.308 -0.7294 -0.5097  0.1243
  160SAPE     P17880   1.584   6.382   6.282 -0.4947  0.1732  0.5462
  160SAPE   O1317881   1.704   6.464   6.250  0.6763 -0.6761 -0.2688
  160SAPE   O1417882   1.491   6.357   6.167 -0.6240  0.3118 -0.3510
  160SAPE   O1217883   1.637   6.250   6.343  0.7170 -0.0447 -0.2888
  160SAPE   O1117884   1.513   6.452   6.399 -0.6713  0.1136 -0.2629
  160SAPE    C117885   1.462   6.372   6.506 -0.9299  0.8691 -0.8390
  160SAPE    HA17886   1.377   6.430   6.548  1.5875  3.9291  0.3872
  160SAPE    HB17887   1.429   6.270   6.477  0.1115  0.9005 -2.2826
  160SAPE    C217888   1.560   6.358   6.629 -0.6431 -0.2088  0.6054
  160SAPE    HS17889   1.636   6.292   6.582 -1.8341  0.4136 -2.4600
  160SAPE   O2117890   1.486   6.300   6.738 -0.1930  0.5104 -0.2629
  160SAPE   C2117891   1.560   6.242   6.825 -0.1444 -0.2219  0.2112
  160SAPE   O2217892   1.682   6.224   6.821 -0.0455  0.0589 -0.1696
  160SAPE   C2217893   1.464   6.175   6.926 -0.2141 -0.1226  0.9243
  160SAPE   H2R17894   1.416   6.249   6.993 -0.8941  0.9787 -0.7195
  160SAPE   H2S17895   1.393   6.121   6.860  0.9482 -0.1582 -0.3555
  160SAPE    C317896   1.617   6.494   6.680 -0.5561  0.2994  0.8169
  160SAPE    HX17897   1.682   6.516   6.592 -0.4884 -1.2530  0.4582
  160SAPE    HY17898   1.691   6.478   6.761  1.3479  1.3752 -0.6099
  160SAPE   O3117899   1.522   6.605   6.702  0.0778  0.5012  0.1254
  160SAPE   C3117900   1.493   6.614   6.826 -0.6118 -0.8391 -0.2133
  160SAPE   O3217901   1.506   6.520   6.902  0.7422  0.3017 -0.0827
  160SAPE   C3217902   1.408   6.744   6.856  1.6640  0.0649 -0.0245
  160SAPE   H2X17903   1.312   6.720   6.804  1.7636  0.6665 -0.5047
  160SAPE   H2Y17904   1.464   6.834   6.822  0.5317  0.5355 -0.7471
  160SAPE   C2317905   1.534   6.068   7.012 -1.0671 -0.7678 -0.2203
  160SAPE   H3R17906   1.600   6.124   7.081 -0.7997 -1.8316  0.4167
  160SAPE   H3S17907   1.600   6.009   6.946  0.8659  2.1820 -1.0868
  160SAPE   C2417908   1.441   5.971   7.085 -0.0378 -0.3596 -0.8425
  160SAPE   H4R17909   1.500   5.883   7.120 -0.6604  0.2425  1.9070
  160SAPE   H4S17910   1.358   5.936   7.020 -0.4240  1.0065 -1.0945
  160SAPE   C2517911   1.379   6.047   7.203 -1.0673 -0.6021  0.2513
  160SAPE   H5R17912   1.297   6.113   7.173 -1.8539 -1.7263 -0.1546
  160SAPE   C2617913   1.423   6.057   7.331  0.0509 -0.9292  0.2832
  160SAPE   H6R17914   1.361   6.112   7.403 -0.4847  0.3594 -1.0989
  160SAPE   C2717915   1.548   5.986   7.386  0.3630  0.7677  0.0270
  160SAPE   H7R17916   1.618   6.066   7.416  2.3615 -1.2573  0.9761
  160SAPE   H7S17917   1.608   5.925   7.315  0.3294 -1.4171  1.7544
  160SAPE   C2817918   1.523   5.893   7.503 -0.0183  0.7094 -0.1773
  160SAPE   H8R17919   1.517   5.786   7.477 -1.2829  0.4602  1.0401
  160SAPE   C2917920   1.517   5.920   7.636  0.4175  0.1401 -0.4998
  160SAPE   H9R17921   1.502   5.840   7.710  1.6282 -0.2846 -0.7053
  160SAPE  C21017922   1.521   6.054   7.703 -0.1198 -0.6670  0.1646
  160SAPE  H10R17923   1.451   6.048   7.790  0.2203  2.7136  0.8077
  160SAPE  H10S17924   1.480   6.122   7.626  1.9076 -0.6306 -0.9431
  160SAPE  C21117925   1.654   6.113   7.741 -0.2129 -0.8770 -0.6078
  160SAPE  H11R17926   1.728   6.123   7.661 -0.2237  1.1115 -0.4021
  160SAPE  C21217927   1.706   6.138   7.865  0.0895  0.4214 -0.5473
  160SAPE  H12R17928   1.787   6.211   7.864 -0.0629  0.5972 -1.3324
  160SAPE  C21317929   1.643   6.113   8.002 -0.3514 -0.2487 -0.2207
  160SAPE  H13R17930   1.533   6.118   7.988 -0.4044 -0.8386 -0.0295
  160SAPE  H13S17931   1.674   6.202   8.060 -0.7404 -0.9388  1.0971
  160SAPE  C21417932   1.681   5.982   8.073 -0.0004 -0.0741 -0.1989
  160SAPE  H14R17933   1.638   5.891   8.030  0.3076 -1.1089  1.5746
  160SAPE  C21517934   1.771   5.968   8.172  0.2204  0.0599 -0.5488
  160SAPE  H15R17935   1.806   5.867   8.196 -2.6928 -1.2792 -1.4877
  160SAPE  C21617936   1.855   6.082   8.225 -0.0404 -0.3929 -0.0469
  160SAPE  H16R17937   1.797   6.166   8.268  0.2653  0.4384 -1.2200
  160SAPE  H16S17938   1.920   6.128   8.148 -0.8703  0.3264 -0.3365
  160SAPE  C21717939   1.937   6.044   8.349 -0.2453 -0.2691  0.0961
  160SAPE  H17R17940   1.985   5.944   8.344  0.9136  0.2234  1.0598
  160SAPE  H17S17941   1.875   6.049   8.441 -0.8382  1.3807 -0.3546
  160SAPE  C21817942   2.049   6.142   8.382 -0.2447  0.2922  0.3360
  160SAPE  H18R17943   2.018   6.246   8.404  3.4292  1.6229 -0.1166
  160SAPE  H18S17944   2.135   6.137   8.312  1.8894  1.3806  2.7306
  160SAPE  C21917945   2.126   6.098   8.514 -0.0394  0.6178 -0.6728
  160SAPE  H19R17946   2.218   6.159   8.527  0.2467 -0.0889  0.8067
  160SAPE  H19S17947   2.163   5.993   8.516 -1.0074  0.2642  1.7438
  160SAPE  C22017948   2.035   6.130   8.637 -0.3942  0.1118  0.5165
  160SAPE  H20R17949   2.090   6.133   8.734  0.8554 -0.1310 -0.1676
  160SAPE  H20S17950   1.960   6.048   8.637 -0.5858  0.2863  0.4170
  160SAPE  H20T17951   1.995   6.233   8.623  0.3285  0.3735  0.3304
  160SAPE   C3317952   1.385   6.765   7.010 -0.0321  0.2997  0.0191
  160SAPE   H3X17953   1.377   6.872   7.037 -0.0232  0.6766 -1.4120
  160SAPE   H3Y17954   1.478   6.737   7.066  0.2403  2.0229  0.4625
  160SAPE   C3417955   1.268   6.688   7.080  0.5484 -0.0673 -0.1686
  160SAPE   H4X17956   1.257   6.585   7.041  0.0906 -0.1216  0.0970
  160SAPE   H4Y17957   1.172   6.741   7.062 -0.7307 -1.3929  2.2496
  160SAPE   C3517958   1.287   6.683   7.239  0.3206 -0.1641 -0.1226
  160SAPE   H5X17959   1.378   6.626   7.269  0.7352  1.1499  1.2319
  160SAPE   H5Y17960   1.205   6.631   7.292  0.3230  0.3643  0.4080
  160SAPE   C3617961   1.290   6.821   7.297 -0.5088  0.0077 -0.5000
  160SAPE   H6X17962   1.214   6.875   7.236 -0.5186 -2.4823 -2.9168
  160SAPE   H6Y17963   1.381   6.880   7.271 -1.8640  1.6970 -1.6433
  160SAPE   C3717964   1.263   6.826   7.446 -0.3674  0.4880 -0.3421
  160SAPE   H7X17965   1.339   6.777   7.511 -0.6767 -0.0067 -0.3543
  160SAPE   H7Y17966   1.165   6.777   7.463 -0.6102  0.4276 -1.7766
  160SAPE   C3817967   1.257   6.969   7.502  0.2798 -0.3483 -0.3862
  160SAPE   H8X17968   1.182   7.026   7.444 -0.6829 -2.2980 -1.1353
  160SAPE   H8Y17969   1.356   7.018   7.498  0.3439 -0.5324 -1.0732
  160SAPE   C3917970   1.209   6.985   7.654 -0.0315 -0.0036 -0.0220
  160SAPE   H9X17971   1.125   6.918   7.682 -0.4976 -1.0422 -3.4354
  160SAPE   H9Y17972   1.182   7.092   7.668  2.8642  0.9641 -1.1271
  160SAPE  C31017973   1.327   6.964   7.749 -0.6925  0.4026  1.0381
  160SAPE  H10X17974   1.412   7.034   7.734 -0.0674 -0.9192 -2.3894
  160SAPE  H10Y17975   1.372   6.867   7.718  1.3349  0.7152  2.7765
  160SAPE  C31117976   1.288   6.956   7.897  0.4279 -0.5613  0.4119
  160SAPE  H11X17977   1.219   6.869   7.900 -0.0158 -0.2164  0.3100
  160SAPE  H11Y17978   1.225   7.041   7.930 -1.5771 -1.7162 -0.2405
  160SAPE  C31217979   1.399   6.941   7.995 -0.6450 -0.4435 -0.0795
  160SAPE  H12X17980   1.473   7.016   7.960  0.9589 -1.1721  1.5525
  160SAPE  H12Y17981   1.450   6.843   7.988  0.7134  0.3353 -1.7424
  160SAPE  C31317982   1.357   6.968   8.140 -0.0058 -0.1570 -0.8470
  160SAPE  H13X17983   1.278   6.901   8.180 -1.7201  2.5670  0.5863
  160SAPE  H13Y17984   1.317   7.071   8.136  1.6479  0.5328 -0.4253
  160SAPE  C31417985   1.467   6.972   8.245  0.1782 -0.4591  0.2404
  160SAPE  H14X17986   1.558   7.032   8.225 -1.7977  2.7408  0.1356
  160SAPE  H14Y17987   1.487   6.863   8.240  2.6503 -0.0176 -0.6915
  160SAPE  C31517988   1.411   6.991   8.390  0.7734 -0.3752 -0.0884
  160SAPE  H15X17989   1.313   6.939   8.398 -0.2965  1.4377 -0.6496
  160SAPE  H15Y17990   1.389   7.095   8.424 -1.9479 -0.3492 -1.6344
  160SAPE  C31617991   1.505   6.937   8.503  0.4480  0.5318 -0.0398
  160SAPE  H16X17992   1.601   6.994   8.509  0.7433  0.3296 -2.2066
  160SAPE  H16Y17993   1.530   6.833   8.476  1.9933  0.8940 -0.1171
  160SAPE  C31717994   1.440   6.943   8.639 -0.1154  0.2000  0.1040
  160SAPE  H17X17995   1.342   6.891   8.642  0.9649 -2.1408 -1.7784
  160SAPE  H17Y17996   1.423   7.046   8.679  0.5979  1.4830 -2.6500
  160SAPE  C31817997   1.535   6.868   8.748  0.0731 -0.1800 -0.2297
  160SAPE  H18X17998   1.638   6.907   8.737  0.0995 -0.4079 -0.8325
  160SAPE  H18Y17999   1.545   6.761   8.718 -1.5050 -0.6121  0.6432
  160SAPE  H18Z18000   1.492   6.865   8.851 -1.0787  0.1930 -0.6785
  161SAPE     N18001   6.507   1.759   6.430  0.2634  0.1727 -0.1100
  161SAPE   HN118002   6.459   1.690   6.490  1.2281 -1.4277 -1.1069
  161SAPE   HN218003   6.447   1.786   6.349 -1.4970 -0.9332  0.7696
  161SAPE   HN318004   6.594   1.720   6.388  1.5720  1.4330  1.2784
  161SAPE   C1218005   6.544   1.882   6.510 -0.0491  0.4830  0.1131
  161SAPE  H12A18006   6.607   1.855   6.598  1.7101 -0.7285 -1.4332
  161SAPE  H12B18007   6.445   1.919   6.542  0.3520  1.8874 -0.1887
  161SAPE   C1118008   6.592   1.999   6.421  0.5917  0.2763 -0.0024
  161SAPE  H11A18009   6.589   2.088   6.488  1.9505  0.1415  0.2653
  161SAPE  H11B18010   6.531   2.015   6.329  0.9771  1.8369 -0.0249
  161SAPE     P18011   6.796   2.066   6.272  0.1730  0.1666 -0.1197
  161SAPE   O1318012   6.937   2.022   6.259  0.2605  0.4874  0.4186
  161SAPE   O1418013   6.709   2.052   6.154 -0.5416  0.1570 -0.4638
  161SAPE   O1218014   6.727   1.976   6.382  0.9266  0.4282  0.1045
  161SAPE   O1118015   6.785   2.205   6.339  0.4730  0.0221 -0.4152
  161SAPE    C118016   6.893   2.295   6.352  0.1234  0.0359  0.0269
  161SAPE    HA18017   6.986   2.256   6.305 -0.2849 -0.4196 -0.4210
  161SAPE    HB18018   6.871   2.373   6.277 -0.5193 -0.7839 -0.6588
  161SAPE    C218019   6.915   2.337   6.497 -0.6833  0.4368  0.0945
  161SAPE    HS18020   6.962   2.437   6.510 -1.5172  0.8176  0.2515
  161SAPE   O2118021   6.984   2.226   6.566  0.6346 -0.5845  0.5941
  161SAPE   C2118022   7.115   2.241   6.562  0.0178 -0.1416 -0.2947
  161SAPE   O2218023   7.178   2.328   6.506 -0.1617  0.1446  0.3303
  161SAPE   C2218024   7.178   2.146   6.661 -0.5077 -0.0594 -0.0292
  161SAPE   H2R18025   7.147   2.174   6.765  2.6436 -0.4721  1.1232
  161SAPE   H2S18026   7.126   2.051   6.636 -2.7372  0.4645  2.1280
  161SAPE    C318027   6.773   2.353   6.568 -0.0618  0.1767  0.5270
  161SAPE    HX18028   6.712   2.261   6.560 -1.9320  1.5152 -2.2447
  161SAPE    HY18029   6.720   2.424   6.501  0.8571  1.2809  0.9292
  161SAPE   O3118030   6.778   2.411   6.703 -0.2835  0.1345 -0.5404
  161SAPE   C3118031   6.792   2.327   6.800  0.6127  0.0439 -0.0501
  161SAPE   O3218032   6.802   2.206   6.790 -0.1134 -0.4890  0.2078
  161SAPE   C3218033   6.787   2.407   6.934  0.6008  0.2222  0.2244
  161SAPE   H2X18034   6.890   2.400   6.975  0.4396 -0.1774  0.5677
  161SAPE   H2Y18035   6.728   2.344   7.005  0.6025 -2.0903 -1.7079
  161SAPE   C2318036   7.336   2.155   6.660  0.4597  0.4750  0.2456
  161SAPE   H3R18037   7.356   2.264   6.666  0.7278  0.3597  2.7249
  161SAPE   H3S18038   7.380   2.099   6.575  1.3744 -0.4167  1.2721
  161SAPE   C2418039   7.376   2.107   6.797  0.1058 -0.0662 -0.9291
  161SAPE   H4R18040   7.343   2.002   6.813  1.4387 -0.6427 -1.8165
  161SAPE   H4S18041   7.326   2.176   6.868 -0.0884 -2.8285  1.8791
  161SAPE   C2518042   7.526   2.101   6.810  0.2648 -0.0980  0.6887
  161SAPE   H5R18043   7.587   2.141   6.728  0.3556  0.9669  1.2564
  161SAPE   C2618044   7.578   2.063   6.921 -0.5421  0.3434 -0.0864
  161SAPE   H6R18045   7.687   2.062   6.935 -0.4216 -0.3529 -0.9953
  161SAPE   C2718046   7.489   2.013   7.035 -0.8236  0.2621 -0.1482
  161SAPE   H7R18047   7.397   1.960   7.004 -0.3718 -1.1425  0.7853
  161SAPE   H7S18048   7.453   2.103   7.088  0.0143 -0.1364  1.1726
  161SAPE   C2818049   7.559   1.928   7.139 -0.2446  0.9847 -0.4088
  161SAPE   H8R18050   7.636   1.862   7.098  1.1257  0.6154  2.5482
  161SAPE   C2918051   7.537   1.926   7.275  0.3001  0.0804 -0.4052
  161SAPE   H9R18052   7.586   1.857   7.345 -1.0603  0.7998  1.3441
  161SAPE  C21018053   7.435   2.010   7.342  0.3358  0.4023  0.1854
  161SAPE  H10R18054   7.355   1.945   7.385  1.0087 -0.1264  0.6613
  161SAPE  H10S18055   7.386   2.084   7.276 -0.1583  1.3527  1.5606
  161SAPE  C21118056   7.504   2.088   7.455 -0.6303 -0.9720 -0.8853
  161SAPE  H11R18057   7.590   2.148   7.422  0.0393 -2.3820 -1.7770
  161SAPE  C21218058   7.466   2.093   7.585 -0.1558 -0.6237 -0.5349
  161SAPE  H12R18059   7.520   2.155   7.658 -2.2009  1.0572 -0.3566
  161SAPE  C21318060   7.340   2.027   7.638 -0.1153 -0.1659  0.1814
  161SAPE  H13R18061   7.330   1.925   7.594 -0.8187 -0.0185 -0.0168
  161SAPE  H13S18062   7.258   2.086   7.593 -0.5937 -0.0759  1.1354
  161SAPE  C21418063   7.337   2.015   7.782 -0.1290 -0.2935  0.1422
  161SAPE  H14R18064   7.364   2.101   7.843 -0.8411 -0.7205  1.0867
  161SAPE  C21518065   7.300   1.910   7.853  0.2579  0.6153 -0.1989
  161SAPE  H15R18066   7.310   1.920   7.962  1.5494 -1.4987 -0.0446
  161SAPE  C21618067   7.247   1.774   7.808 -0.0725  0.5950 -0.2143
  161SAPE  H16R18068   7.259   1.761   7.698  2.1472 -0.0415  0.0647
  161SAPE  H16S18069   7.145   1.760   7.849  0.0823  1.4265  0.4739
  161SAPE  C21718070   7.333   1.662   7.875 -0.4558 -0.0944 -0.1019
  161SAPE  H17R18071   7.332   1.664   7.986 -1.4553 -0.1020 -0.1079
  161SAPE  H17S18072   7.440   1.684   7.855 -0.3742 -1.4885 -1.4191
  161SAPE  C21818073   7.303   1.522   7.818 -0.0445 -0.0153  0.2031
  161SAPE  H18R18074   7.320   1.520   7.708 -0.5917  0.3515  0.1119
  161SAPE  H18S18075   7.201   1.486   7.842 -0.6703  1.2627 -0.4724
  161SAPE  C21918076   7.404   1.426   7.881  0.4229  0.0051 -0.3531
  161SAPE  H19R18077   7.511   1.457   7.875  0.4722  0.0122  0.3773
  161SAPE  H19S18078   7.401   1.337   7.814 -0.7675 -0.2187 -0.0242
  161SAPE  C22018079   7.359   1.369   8.018  0.1397 -1.4245  0.1401
  161SAPE  H20R18080   7.394   1.437   8.099 -0.7324  0.1650 -0.7592
  161SAPE  H20S18081   7.398   1.266   8.033 -2.9458 -2.8830 -1.1389
  161SAPE  H20T18082   7.249   1.362   8.023 -0.2943  1.5860 -2.2844
  161SAPE   C3318083   6.733   2.548   6.948 -0.3152 -0.9448  0.3322
  161SAPE   H3X18084   6.623   2.545   6.941 -0.2588 -1.1848 -0.6982
  161SAPE   H3Y18085   6.776   2.608   6.864 -0.9610  2.5672  2.3047
  161SAPE   C3418086   6.771   2.608   7.084 -0.0478  0.2249  0.1661
  161SAPE   H4X18087   6.787   2.718   7.081  1.3020  0.0416  0.0530
  161SAPE   H4Y18088   6.868   2.566   7.117 -0.0873 -0.3684 -0.4367
  161SAPE   C3518089   6.660   2.586   7.190 -0.5548 -0.8251 -0.8742
  161SAPE   H5X18090   6.631   2.480   7.200 -0.9168 -0.6872 -0.3818
  161SAPE   H5Y18091   6.576   2.648   7.153  1.8218  3.5103  0.2381
  161SAPE   C3618092   6.698   2.645   7.327  0.3216  0.8856  0.1693
  161SAPE   H6X18093   6.692   2.756   7.332  1.7521  0.9591  0.3990
  161SAPE   H6Y18094   6.805   2.618   7.330  0.2650  0.7716  1.8526
  161SAPE   C3718095   6.629   2.585   7.449 -0.2355  0.4792  0.6117
  161SAPE   H7X18096   6.638   2.474   7.449 -2.7597  0.1699  2.7863
  161SAPE   H7Y18097   6.522   2.614   7.437  0.3541  2.6198 -0.0069
  161SAPE   C3818098   6.665   2.655   7.579 -0.3130 -0.2642 -0.3238
  161SAPE   H8X18099   6.681   2.764   7.569  1.0214 -0.6178 -2.6168
  161SAPE   H8Y18100   6.763   2.614   7.610  0.7474 -0.3753 -3.4912
  161SAPE   C3918101   6.566   2.613   7.688 -0.1381  0.3095 -1.2017
  161SAPE   H9X18102   6.559   2.502   7.694  0.2653  0.3689  1.1506
  161SAPE   H9Y18103   6.463   2.655   7.681 -0.1941  0.7262  1.2367
  161SAPE  C31018104   6.616   2.660   7.825  0.3865 -0.4471  0.0547
  161SAPE  H10X18105   6.627   2.767   7.851 -1.3965 -0.6695  2.0533
  161SAPE  H10Y18106   6.720   2.627   7.845  0.7684  0.2578 -0.7182
  161SAPE  C31118107   6.532   2.602   7.939 -0.0565  0.2180 -0.2164
  161SAPE  H11X18108   6.563   2.495   7.939 -2.6977 -0.6563 -2.0343
  161SAPE  H11Y18109   6.421   2.602   7.932 -0.1258  1.4800  0.6044
  161SAPE  C31218110   6.583   2.664   8.069 -0.1633 -0.2745 -0.2729
  161SAPE  H12X18111   6.562   2.772   8.052 -0.1442 -0.3997 -1.1597
  161SAPE  H12Y18112   6.692   2.651   8.087  0.4721  1.3125 -2.4747
  161SAPE  C31318113   6.503   2.635   8.199 -0.0159  0.0453 -0.3666
  161SAPE  H13X18114   6.394   2.655   8.185 -0.8963 -3.9547 -0.6204
  161SAPE  H13Y18115   6.549   2.695   8.281 -1.0693  0.5896 -0.1515
  161SAPE  C31418116   6.506   2.491   8.254 -0.2992 -0.4035  0.1213
  161SAPE  H14X18117   6.608   2.446   8.251 -0.0036  0.1191  1.7468
  161SAPE  H14Y18118   6.433   2.439   8.188 -0.4474  0.9067 -0.7816
  161SAPE  C31518119   6.457   2.484   8.400  1.0062 -0.0308 -0.7381
  161SAPE  H15X18120   6.387   2.569   8.414  0.5321 -0.4186 -0.7251
  161SAPE  H15Y18121   6.550   2.500   8.459  1.5734  0.1564 -1.6460
  161SAPE  C31618122   6.378   2.353   8.439 -0.5963 -0.1220 -0.0469
  161SAPE  H16X18123   6.449   2.270   8.421 -1.3861 -0.1275 -4.1896
  161SAPE  H16Y18124   6.298   2.347   8.363  0.3778  0.7314 -1.1720
  161SAPE  C31718125   6.318   2.360   8.578  0.2579  0.3292 -0.1262
  161SAPE  H17X18126   6.264   2.263   8.576  1.9080 -0.6338 -2.5497
  161SAPE  H17Y18127   6.257   2.451   8.596  0.6777  0.3218  1.4999
  161SAPE  C31818128   6.421   2.373   8.697  0.7372 -0.3785  0.8092
  161SAPE  H18X18129   6.462   2.476   8.700 -0.8378  0.2739  0.7262
  161SAPE  H18Y18130   6.510   2.307   8.686 -0.3431 -1.8092  0.3271
  161SAPE  H18Z18131   6.379   2.357   8.798  0.6218 -1.1129  0.6535
  162SAPE     N18132   5.051   1.537   6.095  0.0734  0.1157  0.7262
  162SAPE   HN118133   4.978   1.554   6.167  1.4778 -0.0829  2.2632
  162SAPE   HN218134   5.019   1.484   6.011  1.0218  0.5772  0.0582
  162SAPE   HN318135   5.109   1.469   6.148 -0.4140 -0.8961 -0.0040
  162SAPE   C1218136   5.114   1.666   6.064  0.0420 -0.1791 -0.9420
  162SAPE  H12A18137   5.035   1.718   6.005  0.6030 -1.6887 -3.1668
  162SAPE  H12B18138   5.203   1.646   5.999 -0.1521 -0.5983 -1.0795
  162SAPE   C1118139   5.145   1.741   6.197  0.2213 -0.2828 -0.5794
  162SAPE  H11A18140   5.181   1.844   6.176  0.3507 -0.1644  0.1990
  162SAPE  H11B18141   5.224   1.684   6.251 -1.3624 -1.6414  0.4009
  162SAPE     P18142   4.911   1.848   6.260 -0.3343  0.0173  0.0264
  162SAPE   O1318143   4.962   1.976   6.202 -0.1280 -0.5689 -0.9557
  162SAPE   O1418144   4.805   1.778   6.183 -0.1984 -0.3154 -0.3552
  162SAPE   O1218145   5.030   1.742   6.286  0.7496  0.2701  0.6380
  162SAPE   O1118146   4.852   1.876   6.407 -0.8573  0.3880  0.0996
  162SAPE    C118147   4.949   1.936   6.500  0.1500 -0.1153  0.4861
  162SAPE    HA18148   5.030   1.998   6.457 -0.3343 -0.1685 -0.5159
  162SAPE    HB18149   4.900   2.014   6.562  0.8792  0.6712  0.0950
  162SAPE    C218150   5.013   1.832   6.599  0.1010  0.5175  0.0172
  162SAPE    HS18151   5.066   1.756   6.539 -1.2583  0.1578 -0.7637
  162SAPE   O2118152   4.918   1.763   6.681 -0.1681 -0.8042  0.6386
  162SAPE   C2118153   4.965   1.663   6.749 -0.1530 -0.0710 -0.3352
  162SAPE   O2218154   5.071   1.605   6.733 -0.5234 -0.0028 -0.7254
  162SAPE   C2218155   4.860   1.641   6.862  0.1538  0.0714  0.3616
  162SAPE   H2R18156   4.854   1.734   6.923  1.2584  0.0509  0.5260
  162SAPE   H2S18157   4.764   1.610   6.816 -1.4279  2.6359  1.6896
  162SAPE    C318158   5.122   1.907   6.697 -0.1325  0.4364  0.6914
  162SAPE    HX18159   5.193   1.940   6.619 -0.0075 -1.8722 -0.2692
  162SAPE    HY18160   5.182   1.836   6.759  0.2319  0.0593 -0.0741
  162SAPE   O3118161   5.056   2.009   6.768 -0.3157 -0.3940  0.4267
  162SAPE   C3118162   5.032   1.991   6.903  0.5548  0.0151 -0.7874
  162SAPE   O3218163   5.070   1.897   6.967 -0.7993  0.5128 -0.2253
  162SAPE   C3218164   4.950   2.106   6.967 -0.0382 -0.1101 -0.1195
  162SAPE   H2X18165   4.880   2.151   6.892 -1.1541 -1.1192  0.2787
  162SAPE   H2Y18166   5.018   2.192   6.987  1.3635 -0.3472 -3.2873
  162SAPE   C2318167   4.901   1.536   6.972 -0.9200  0.3351 -0.1890
  162SAPE   H3R18168   5.001   1.568   7.008  0.5756 -0.8467 -2.9385
  162SAPE   H3S18169   4.905   1.436   6.923 -1.2678  0.2305 -0.0043
  162SAPE   C2418170   4.797   1.534   7.079 -0.6782  0.4697 -0.0479
  162SAPE   H4R18171   4.698   1.489   7.056 -0.6460  0.4333 -0.1133
  162SAPE   H4S18172   4.768   1.638   7.106 -1.7163 -0.2023  1.5713
  162SAPE   C2518173   4.851   1.463   7.204  0.1497 -0.4453  0.2085
  162SAPE   H5R18174   4.890   1.362   7.185  0.3706 -0.1348 -1.0934
  162SAPE   C2618175   4.845   1.520   7.326  0.4499 -0.3816 -0.2232
  162SAPE   H6R18176   4.859   1.447   7.408 -2.9039 -1.1991 -0.2640
  162SAPE   C2718177   4.800   1.664   7.364  0.1543 -0.1814  0.1697
  162SAPE   H7R18178   4.737   1.650   7.454  1.1908 -0.8940  0.8050
  162SAPE   H7S18179   4.735   1.720   7.293 -0.2217 -0.9105 -0.0793
  162SAPE   C2818180   4.922   1.753   7.395 -0.1508  0.5263 -0.4264
  162SAPE   H8R18181   4.986   1.763   7.306 -1.6495 -2.1738 -1.9522
  162SAPE   C2918182   4.942   1.817   7.513 -0.5696 -0.0436  0.4530
  162SAPE   H9R18183   5.017   1.898   7.511  1.1250 -1.5216 -1.5441
  162SAPE  C21018184   4.849   1.795   7.627  0.1636 -0.0303 -0.1596
  162SAPE  H10R18185   4.895   1.838   7.719 -1.1030  2.8767 -0.7694
  162SAPE  H10S18186   4.831   1.687   7.645  0.6655  0.2245  2.3202
  162SAPE  C21118187   4.715   1.866   7.610  0.5156 -0.2566  0.1218
  162SAPE  H11R18188   4.703   1.916   7.513 -0.3712  0.3919  0.5424
  162SAPE  C21218189   4.627   1.896   7.708 -0.1829 -0.5991  0.6190
  162SAPE  H12R18190   4.540   1.958   7.681  0.0113 -0.1694  0.9747
  162SAPE  C21318191   4.643   1.858   7.854 -0.3998 -0.0132  0.1548
  162SAPE  H13R18192   4.748   1.831   7.875  0.0252  2.5329  1.7642
  162SAPE  H13S18193   4.576   1.771   7.872 -1.2898  0.2357 -1.6796
  162SAPE  C21418194   4.611   1.977   7.942  0.1917 -0.0886  0.0314
  162SAPE  H14R18195   4.673   2.068   7.937 -1.7404  1.4598  2.1154
  162SAPE  C21518196   4.497   1.990   8.010  0.3456 -0.6558 -0.4743
  162SAPE  H15R18197   4.485   2.074   8.080  1.2181 -1.2687  0.4437
  162SAPE  C21618198   4.385   1.885   8.025 -0.0303 -0.1067  0.4266
  162SAPE  H16R18199   4.311   1.933   8.092 -0.1202 -0.5413  0.6444
  162SAPE  H16S18200   4.423   1.799   8.084 -2.0970 -2.0384 -0.8799
  162SAPE  C21718201   4.300   1.829   7.902 -0.1579  0.2300 -0.0513
  162SAPE  H17R18202   4.235   1.755   7.953 -0.2072 -0.1578 -0.6669
  162SAPE  H17S18203   4.375   1.783   7.835  1.2778 -2.2186  2.9715
  162SAPE  C21818204   4.229   1.954   7.829 -0.7225  1.2246  0.1897
  162SAPE  H18R18205   4.303   2.037   7.823  1.0579 -0.3408 -0.6881
  162SAPE  H18S18206   4.139   1.988   7.884 -1.7769  1.3776 -1.5443
  162SAPE  C21918207   4.204   1.937   7.676  0.0868 -0.1006  0.1591
  162SAPE  H19R18208   4.132   1.853   7.667 -0.9401  0.7509  0.2780
  162SAPE  H19S18209   4.296   1.898   7.628  0.2881  2.5990 -1.9053
  162SAPE  C22018210   4.142   2.060   7.611 -0.1598 -0.0733 -0.1939
  162SAPE  H20R18211   4.220   2.138   7.599 -0.7457  0.7476  1.0912
  162SAPE  H20S18212   4.071   2.103   7.684  0.9244  2.6252 -0.6229
  162SAPE  H20T18213   4.090   2.049   7.513 -0.4682 -0.1980 -0.0183
  162SAPE   C3318214   4.884   2.072   7.104 -0.4200  0.1754  0.2421
  162SAPE   H3X18215   4.842   1.970   7.098 -0.2688  0.2147 -2.5202
  162SAPE   H3Y18216   4.798   2.140   7.126  1.2049  2.0900  1.0473
  162SAPE   C3418217   4.974   2.073   7.233 -0.3599  0.0322 -0.3815
  162SAPE   H4X18218   5.073   2.026   7.212 -1.2185 -0.9353 -2.5670
  162SAPE   H4Y18219   4.927   2.014   7.315  0.6163  0.3543  0.4277
  162SAPE   C3518220   4.985   2.207   7.296 -0.1794 -0.9734 -0.2825
  162SAPE   H5X18221   4.882   2.231   7.330  0.3542 -1.7280  2.1262
  162SAPE   H5Y18222   5.020   2.272   7.213  2.5452 -1.4215  0.4129
  162SAPE   C3618223   5.070   2.209   7.422 -0.5541 -0.5058  0.5865
  162SAPE   H6X18224   5.172   2.173   7.395 -1.3809 -3.4557  0.9746
  162SAPE   H6Y18225   5.038   2.136   7.499  0.1666 -0.5542  0.8453
  162SAPE   C3718226   5.081   2.346   7.487  0.3335 -0.6655 -0.6808
  162SAPE   H7X18227   5.103   2.426   7.413 -0.9646  0.1742 -0.1948
  162SAPE   H7Y18228   5.162   2.356   7.562  0.2063 -0.3193 -0.5843
  162SAPE   C3818229   4.956   2.394   7.569 -0.4197  0.3358 -0.5418
  162SAPE   H8X18230   4.874   2.382   7.495 -0.6467 -1.0225 -0.0971
  162SAPE   H8Y18231   4.951   2.499   7.603 -0.3057 -0.0019  0.5436
  162SAPE   C3918232   4.916   2.304   7.688  0.2231 -0.0199  0.3083
  162SAPE   H9X18233   4.918   2.199   7.652 -0.0608  0.6549 -1.8129
  162SAPE   H9Y18234   4.815   2.333   7.725  1.5350  4.8804  0.7109
  162SAPE  C31018235   5.005   2.341   7.805 -0.3206 -0.7385  0.1302
  162SAPE  H10X18236   4.976   2.443   7.839  3.4173  0.5406 -0.1459
  162SAPE  H10Y18237   5.110   2.353   7.772 -0.7589 -1.1036 -1.5231
  162SAPE  C31118238   5.008   2.238   7.912 -0.4225  0.4241 -0.3093
  162SAPE  H11X18239   4.913   2.187   7.939 -0.6705 -0.3348 -2.4671
  162SAPE  H11Y18240   5.057   2.290   7.998 -2.1295 -0.1058  1.0554
  162SAPE  C31218241   5.090   2.117   7.874  0.4304  0.0096  0.5048
  162SAPE  H12X18242   5.193   2.156   7.881 -0.4527  3.2906 -2.0175
  162SAPE  H12Y18243   5.072   2.091   7.767  0.6318 -0.8538  0.6728
  162SAPE  C31318244   5.074   1.993   7.964  0.6117 -0.2361 -0.2211
  162SAPE  H13X18245   4.974   1.948   7.951 -0.4896  1.5793  1.3852
  162SAPE  H13Y18246   5.080   2.020   8.071 -0.2848 -1.4274  0.1405
  162SAPE  C31418247   5.172   1.892   7.911  0.5636 -0.3379 -0.2383
  162SAPE  H14X18248   5.275   1.935   7.913  0.0548  0.8591  1.3074
  162SAPE  H14Y18249   5.147   1.873   7.804  1.6589  1.3713 -0.8463
  162SAPE  C31518250   5.177   1.757   7.978  0.3985  1.0289  0.2628
  162SAPE  H15X18251   5.241   1.694   7.913 -0.2305  0.3131  0.3122
  162SAPE  H15Y18252   5.079   1.704   7.979  1.5053 -1.1160  0.4249
  162SAPE  C31618253   5.232   1.755   8.119 -0.4459 -0.4581  0.0580
  162SAPE  H16X18254   5.162   1.814   8.182 -0.1894 -1.0034  0.8708
  162SAPE  H16Y18255   5.333   1.800   8.110 -0.4885 -0.6310 -1.6714
  162SAPE  C31718256   5.228   1.617   8.185 -0.1533 -0.3990  0.0397
  162SAPE  H17X18257   5.123   1.584   8.189 -0.5079  0.7868  2.4694
  162SAPE  H17Y18258   5.268   1.622   8.288 -1.5266 -2.3913  0.7259
  162SAPE  C31818259   5.330   1.520   8.129  0.0834 -0.4912 -0.4598
  162SAPE  H18X18260   5.306   1.499   8.022 -0.4550  0.3041 -0.5050
  162SAPE  H18Y18261   5.326   1.424   8.184  2.7637 -0.4261 -0.0310
  162SAPE  H18Z18262   5.434   1.559   8.132 -0.9161  2.4987  2.9941
  163SAPE     N18263   2.337   3.146   6.442 -1.1727  0.0740 -0.2201
  163SAPE   HN118264   2.384   3.232   6.408  2.1259 -1.3978  0.3095
  163SAPE   HN218265   2.407   3.077   6.476 -0.5992 -0.0857 -1.6437
  163SAPE   HN318266   2.295   3.097   6.360  0.5661 -2.1509  0.1578
  163SAPE   C1218267   2.227   3.185   6.539 -0.1209  0.3207 -0.2000
  163SAPE  H12A18268   2.147   3.243   6.488  0.1307  3.2062  2.3816
  163SAPE  H12B18269   2.274   3.243   6.622  1.1089 -1.9819  0.7895
  163SAPE   C1118270   2.177   3.055   6.611 -0.0022  0.3723  0.9120
  163SAPE  H11A18271   2.131   2.989   6.534  5.1986 -0.6560 -1.7905
  163SAPE  H11B18272   2.106   3.077   6.693 -0.5865 -1.0548  0.8242
  163SAPE     P18273   2.285   2.836   6.710 -0.3517  0.5327  0.3605
  163SAPE   O1318274   2.167   2.761   6.658 -0.2004  0.5452  0.1950
  163SAPE   O1418275   2.425   2.777   6.690  0.4803 -0.2669 -0.3256
  163SAPE   O1218276   2.284   2.984   6.655 -0.1644 -0.0600  0.2371
  163SAPE   O1118277   2.273   2.854   6.873 -0.5669  0.5147  0.5490
  163SAPE    C118278   2.152   2.873   6.939 -0.2118  0.6239  0.2854
  163SAPE    HA18279   2.066   2.840   6.876 -0.4134  0.1645  0.7976
  163SAPE    HB18280   2.153   2.819   7.035 -1.1336  0.7349  0.3702
  163SAPE    C218281   2.130   3.024   6.975  0.2926 -0.1620 -0.7837
  163SAPE    HS18282   2.138   3.092   6.888  1.0443 -1.3435 -1.6663
  163SAPE   O2118283   2.235   3.065   7.061 -0.5235 -0.5362 -0.3024
  163SAPE   C2118284   2.266   3.189   7.096  0.6698  0.6992 -0.1609
  163SAPE   O2218285   2.211   3.288   7.052 -0.2446 -0.0466  0.3105
  163SAPE   C2218286   2.364   3.192   7.207  0.1430  0.2989  0.8018
  163SAPE   H2R18287   2.330   3.125   7.289  0.7112  1.2147  1.8290
  163SAPE   H2S18288   2.458   3.143   7.175 -0.3012  1.0355 -1.8722
  163SAPE    C318289   1.991   3.047   7.045  1.1929 -0.0192  0.2752
  163SAPE    HX18290   1.913   3.011   6.975  2.9600 -1.9605 -0.8298
  163SAPE    HY18291   1.965   3.154   7.060 -1.5043 -0.5404 -0.2406
  163SAPE   O3118292   1.981   2.974   7.162 -0.1580  0.1023 -0.4567
  163SAPE   C3118293   1.999   3.030   7.277  1.1294  0.4551  0.5492
  163SAPE   O3218294   2.034   3.146   7.291  0.3840 -0.3921 -0.7042
  163SAPE   C3218295   1.963   2.931   7.392  0.0728  0.4854  0.8433
  163SAPE   H2X18296   2.036   2.848   7.385 -0.7584 -0.4280  2.3362
  163SAPE   H2Y18297   1.861   2.893   7.370 -0.4102  0.8130  2.4237
  163SAPE   C2318298   2.405   3.330   7.253 -0.1942  0.2188 -0.0344
  163SAPE   H3R18299   2.318   3.395   7.277  0.0878 -0.5923  3.9954
  163SAPE   H3S18300   2.473   3.385   7.185  1.5185  1.1854  2.3340
  163SAPE   C2418301   2.503   3.316   7.380  0.4199 -0.2962 -0.7890
  163SAPE   H4R18302   2.556   3.413   7.388  1.0128 -0.5984 -0.9827
  163SAPE   H4S18303   2.568   3.227   7.364 -1.0478 -1.6088  0.2298
  163SAPE   C2518304   2.421   3.292   7.507  0.0352  0.0606 -0.1343
  163SAPE   H5R18305   2.312   3.297   7.501 -0.0742  0.5089  1.6518
  163SAPE   C2618306   2.481   3.270   7.626 -0.0944 -0.1394  0.0314
  163SAPE   H6R18307   2.410   3.238   7.704 -1.1117  0.5945 -0.5590
  163SAPE   C2718308   2.627   3.261   7.644 -0.8793  0.0329  0.3912
  163SAPE   H7R18309   2.655   3.265   7.752  2.3569  0.7057 -0.3639
  163SAPE   H7S18310   2.672   3.344   7.585 -1.3228 -0.6504 -0.9407
  163SAPE   C2818311   2.705   3.140   7.592 -0.5160  0.3377 -0.1483
  163SAPE   H8R18312   2.670   3.115   7.491 -1.7883  0.8228  0.1620
  163SAPE   C2918313   2.797   3.066   7.654 -0.1532  0.2404  0.4060
  163SAPE   H9R18314   2.852   3.000   7.585 -1.3158 -1.9836  1.5015
  163SAPE  C21018315   2.855   3.078   7.795 -0.7462 -0.1169  0.2018
  163SAPE  H10R18316   2.777   3.115   7.864  1.9132  1.3094  2.6786
  163SAPE  H10S18317   2.918   3.169   7.784 -2.4434  1.5119  2.9643
  163SAPE  C21118318   2.938   2.970   7.859  0.5768  0.1900  0.3186
  163SAPE  H11R18319   2.944   2.875   7.804  1.9242 -0.0110  0.7901
  163SAPE  C21218320   3.016   2.975   7.970  0.2668 -0.3452  0.0860
  163SAPE  H12R18321   3.074   2.885   7.997 -1.1745 -1.3294  0.0254
  163SAPE  C21318322   3.028   3.101   8.054  0.0495 -0.0898  1.0654
  163SAPE  H13R18323   2.955   3.082   8.135 -0.9241  1.1694  0.5223
  163SAPE  H13S18324   2.987   3.188   7.998  0.1649 -0.9738 -0.4498
  163SAPE  C21418325   3.160   3.140   8.113  0.4356 -0.0569 -0.4621
  163SAPE  H14R18326   3.206   3.227   8.063  1.7329 -0.6143 -0.2679
  163SAPE  C21518327   3.233   3.071   8.201 -0.4354 -0.9932  0.1160
  163SAPE  H15R18328   3.328   3.113   8.236 -0.3196  0.8473 -2.1254
  163SAPE  C21618329   3.191   2.940   8.269 -0.3016 -0.9726 -0.5424
  163SAPE  H16R18330   3.124   2.876   8.207  0.0205 -1.8738  0.0322
  163SAPE  H16S18331   3.132   2.975   8.357 -0.3984  0.8953 -1.2880
  163SAPE  C21718332   3.321   2.857   8.307  0.1850 -0.9096  0.2340
  163SAPE  H17R18333   3.290   2.761   8.354 -2.3453 -0.4588 -0.3576
  163SAPE  H17S18334   3.377   2.911   8.385  2.4026 -2.1659 -0.4196
  163SAPE  C21818335   3.424   2.828   8.200  0.6224  0.5182 -0.2107
  163SAPE  H18R18336   3.514   2.781   8.245 -0.4858 -1.3932  0.1392
  163SAPE  H18S18337   3.453   2.926   8.155 -0.7418  1.0443  0.0099
  163SAPE  C21918338   3.371   2.723   8.099 -0.3909  0.1883 -0.1577
  163SAPE  H19R18339   3.260   2.734   8.094 -0.4574 -0.8550 -2.1043
  163SAPE  H19S18340   3.402   2.620   8.127 -0.5759 -0.3674 -1.8832
  163SAPE  C22018341   3.403   2.749   7.949 -0.4515 -0.5326  0.2404
  163SAPE  H20R18342   3.512   2.731   7.936 -0.5369  0.4397 -2.3298
  163SAPE  H20S18343   3.388   2.849   7.903  2.2916 -1.0725 -2.0847
  163SAPE  H20T18344   3.351   2.677   7.883  1.2915 -1.8390  0.2193
  163SAPE   C3318345   1.972   3.007   7.525  0.3307  0.3637  0.4075
  163SAPE   H3X18346   1.910   3.099   7.534  1.5469  1.1628  0.8448
  163SAPE   H3Y18347   2.077   3.039   7.545  0.4646  0.1720  0.0327
  163SAPE   C3418348   1.931   2.917   7.645  0.1557 -0.6212 -0.2952
  163SAPE   H4X18349   2.029   2.883   7.684 -0.3713 -1.9946 -0.1047
  163SAPE   H4Y18350   1.866   2.829   7.625 -0.7151 -0.3841  1.3374
  163SAPE   C3518351   1.861   2.993   7.756  0.7397 -0.9420  0.0186
  163SAPE   H5X18352   1.779   3.050   7.708 -0.1007 -3.2513 -1.4532
  163SAPE   H5Y18353   1.920   3.075   7.803  1.8009 -1.1266 -0.9426
  163SAPE   C3618354   1.818   2.912   7.878  0.0447  1.1188  0.1469
  163SAPE   H6X18355   1.913   2.861   7.904  1.3618  2.6527 -1.4555
  163SAPE   H6Y18356   1.758   2.826   7.843  1.3231  1.1473 -2.3012
  163SAPE   C3718357   1.732   2.988   7.978 -0.3767 -0.3696 -0.0694
  163SAPE   H7X18358   1.679   2.919   8.047 -0.1278  0.2764  0.7892
  163SAPE   H7Y18359   1.659   3.045   7.915  0.2860  2.7847  1.7879
  163SAPE   C3818360   1.809   3.089   8.066 -0.0923 -0.8723 -0.3381
  163SAPE   H8X18361   1.808   3.187   8.013 -0.2286 -1.4023 -1.3345
  163SAPE   H8Y18362   1.909   3.051   8.094  0.1606  0.7826  1.2175
  163SAPE   C3918363   1.730   3.129   8.192  0.3149  0.2023 -0.0868
  163SAPE   H9X18364   1.794   3.199   8.250  0.9351 -0.3202 -0.1209
  163SAPE   H9Y18365   1.711   3.039   8.254 -0.5664  0.1192 -0.4628
  163SAPE  C31018366   1.596   3.198   8.159  0.1296 -0.0921  0.1921
  163SAPE  H10X18367   1.514   3.127   8.132  0.0050  0.9191 -2.4422
  163SAPE  H10Y18368   1.591   3.259   8.066 -1.8545 -0.6875 -0.1600
  163SAPE  C31118369   1.538   3.302   8.266 -0.4242  0.0967 -0.0729
  163SAPE  H11X18370   1.617   3.377   8.286 -0.4493 -0.3287  1.8337
  163SAPE  H11Y18371   1.512   3.256   8.364 -1.9737  0.5785 -0.2277
  163SAPE  C31218372   1.407   3.368   8.215 -0.2392  0.6828 -0.2481
  163SAPE  H12X18373   1.415   3.387   8.106  2.3374  1.0224 -0.0376
  163SAPE  H12Y18374   1.391   3.470   8.255 -0.4929  0.4851  0.1681
  163SAPE  C31318375   1.280   3.278   8.240 -0.0516 -0.0355 -0.3409
  163SAPE  H13X18376   1.263   3.260   8.349  0.0622  0.5195 -0.2285
  163SAPE  H13Y18377   1.302   3.180   8.193 -0.3720 -0.3295  0.1087
  163SAPE  C31418378   1.144   3.341   8.198  0.1802 -0.7937 -0.5562
  163SAPE  H14X18379   1.059   3.275   8.229  0.6933 -1.6149 -0.8491
  163SAPE  H14Y18380   1.135   3.353   8.088  0.6720  0.2082 -0.4952
  163SAPE  C31518381   1.123   3.476   8.269  0.5646 -0.1350  0.1580
  163SAPE  H15X18382   1.201   3.551   8.243  0.1656  0.4859  0.7199
  163SAPE  H15Y18383   1.126   3.449   8.377  1.6020 -1.7108 -0.2255
  163SAPE  C31618384   0.996   3.538   8.228  0.2767 -1.1625 -0.1264
  163SAPE  H16X18385   0.957   3.601   8.311  0.0329 -1.4112 -0.0495
  163SAPE  H16Y18386   0.913   3.465   8.215  0.1854 -1.2622  0.9874
  163SAPE  C31718387   1.005   3.624   8.102  0.1518  0.6775 -0.3240
  163SAPE  H17X18388   1.039   3.560   8.018 -0.4547 -0.3356  0.1854
  163SAPE  H17Y18389   1.076   3.708   8.120 -1.5569  2.2181 -0.5461
  163SAPE  C31818390   0.869   3.680   8.058 -0.5768 -0.5613 -0.2801
  163SAPE  H18X18391   0.824   3.740   8.141 -0.9265 -0.4731 -0.5296
  163SAPE  H18Y18392   0.790   3.605   8.036  1.8296 -2.7658 -1.9928
  163SAPE  H18Z18393   0.880   3.745   7.968  1.2775 -0.4263  0.0031
  164SAPE     N18394   4.514   3.131   5.494 -0.0389 -0.2568  0.2031
  164SAPE   HN118395   4.576   3.201   5.539  3.7540 -1.7000 -2.3320
  164SAPE   HN218396   4.547   3.136   5.396  2.1181 -0.3017  0.8745
  164SAPE   HN318397   4.421   3.175   5.508  1.2875  2.6800  0.6819
  164SAPE   C1218398   4.531   2.994   5.550 -0.3028  0.5486  0.7412
  164SAPE  H12A18399   4.632   2.963   5.515 -0.9298 -0.1207 -0.5667
  164SAPE  H12B18400   4.453   2.928   5.506  0.5288  1.2493 -2.0266
  164SAPE   C1118401   4.527   2.990   5.702  0.4761  0.1776  0.1340
  164SAPE  H11A18402   4.527   2.887   5.745 -2.1334 -0.4974 -1.2215
  164SAPE  H11B18403   4.429   3.030   5.736 -1.0561 -1.5545 -1.9277
  164SAPE     P18404   4.637   3.208   5.806 -0.2697  0.0426 -0.1239
  164SAPE   O1318405   4.777   3.237   5.850 -0.1835 -0.5117  0.2042
  164SAPE   O1418406   4.571   3.289   5.702  0.2448 -0.7172  0.1926
  164SAPE   O1218407   4.637   3.064   5.745  0.2956  0.4713  0.0848
  164SAPE   O1118408   4.544   3.184   5.932 -0.2214 -0.3930 -0.3766
  164SAPE    C118409   4.600   3.183   6.066 -0.9574  0.0338 -0.0843
  164SAPE    HA18410   4.546   3.115   6.135 -0.2747 -1.0583 -0.6033
  164SAPE    HB18411   4.704   3.144   6.060 -1.8547 -2.4527 -0.6370
  164SAPE    C218412   4.599   3.318   6.128 -0.5265 -0.2892 -0.1817
  164SAPE    HS18413   4.663   3.385   6.068  0.1229  1.8324  2.6291
  164SAPE   O2118414   4.644   3.303   6.261 -0.1078  0.0463  0.3822
  164SAPE   C2118415   4.711   3.396   6.310  0.1340  0.0260 -0.2024
  164SAPE   O2218416   4.757   3.496   6.260 -0.3174 -0.0986 -0.1238
  164SAPE   C2218417   4.718   3.369   6.461  0.0006  0.2987  0.1044
  164SAPE   H2R18418   4.659   3.280   6.492 -0.3244  0.3981 -0.2301
  164SAPE   H2S18419   4.827   3.353   6.478  0.8684  2.3162 -2.8361
  164SAPE    C318420   4.454   3.390   6.126 -0.1984 -0.4986  0.3125
  164SAPE    HX18421   4.434   3.405   6.017  0.6090  1.4093  0.4029
  164SAPE    HY18422   4.458   3.488   6.177  1.6470 -1.5578  2.3689
  164SAPE   O3118423   4.358   3.312   6.194  0.5740  0.5254 -0.4935
  164SAPE   C3118424   4.343   3.322   6.323  0.7375 -0.1205  0.4520
  164SAPE   O3218425   4.390   3.406   6.398  0.4780  0.3932 -0.4371
  164SAPE   C3218426   4.250   3.218   6.382  0.3894  0.0030 -0.1358
  164SAPE   H2X18427   4.209   3.155   6.300  2.8649 -0.3084 -1.2272
  164SAPE   H2Y18428   4.164   3.281   6.413 -0.8701 -0.9365 -1.5160
  164SAPE   C2318429   4.678   3.491   6.539 -0.2284  0.4963  0.2138
  164SAPE   H3R18430   4.604   3.555   6.486 -1.3292 -0.7360  0.2017
  164SAPE   H3S18431   4.773   3.544   6.560 -0.6289  1.6542 -0.7959
  164SAPE   C2418432   4.623   3.464   6.679  0.8902  0.2347 -0.1535
  164SAPE   H4R18433   4.677   3.382   6.730  0.1708 -0.4719 -0.4997
  164SAPE   H4S18434   4.525   3.413   6.665  1.5043 -1.2327  0.7206
  164SAPE   C2518435   4.614   3.589   6.767  0.0470 -0.4275 -0.0728
  164SAPE   H5R18436   4.631   3.679   6.706 -0.1180  0.3264  0.9740
  164SAPE   C2618437   4.577   3.595   6.898  0.5527 -1.1498 -0.0342
  164SAPE   H6R18438   4.548   3.693   6.940 -0.0392 -2.0301  1.7144
  164SAPE   C2718439   4.529   3.473   6.973  0.5389  0.0625 -0.7661
  164SAPE   H7R18440   4.612   3.399   6.975  0.8844  0.3745 -2.3957
  164SAPE   H7S18441   4.451   3.417   6.917  0.1186 -0.6236  0.4565
  164SAPE   C2818442   4.471   3.501   7.112  0.6896 -0.1999 -0.0099
  164SAPE   H8R18443   4.403   3.587   7.118 -1.2598 -1.4686 -2.1611
  164SAPE   C2918444   4.495   3.426   7.230 -0.1355 -0.5302 -0.3753
  164SAPE   H9R18445   4.466   3.473   7.326 -2.7181 -2.6494 -0.0137
  164SAPE  C21018446   4.587   3.305   7.237  0.3078 -0.4786 -0.1833
  164SAPE  H10R18447   4.592   3.246   7.144 -0.0615 -0.2098 -0.3783
  164SAPE  H10S18448   4.539   3.242   7.315 -1.4083  1.5809  0.5164
  164SAPE  C21118449   4.735   3.328   7.258  0.2814  0.4680 -0.0100
  164SAPE  H11R18450   4.801   3.323   7.171  1.4525  0.8678  0.8378
  164SAPE  C21218451   4.794   3.360   7.372  0.0304  0.0141  0.1277
  164SAPE  H12R18452   4.902   3.384   7.372  0.5458 -2.0122 -1.7298
  164SAPE  C21318453   4.724   3.380   7.504 -0.4896 -1.3007  0.2231
  164SAPE  H13R18454   4.773   3.315   7.579  2.8801  2.1920  1.4084
  164SAPE  H13S18455   4.614   3.361   7.506 -0.5831 -0.9082 -0.5268
  164SAPE  C21418456   4.740   3.521   7.552 -0.2750 -0.7183 -0.8239
  164SAPE  H14R18457   4.725   3.601   7.477  1.5779  0.7690  0.3145
  164SAPE  C21518458   4.772   3.560   7.675 -0.7555 -1.0724  0.0211
  164SAPE  H15R18459   4.783   3.669   7.689  1.4092 -1.0723 -1.2727
  164SAPE  C21618460   4.790   3.482   7.800  0.1571  0.9563  0.0432
  164SAPE  H16R18461   4.897   3.454   7.810 -0.2169 -0.4073  0.5570
  164SAPE  H16S18462   4.736   3.385   7.789  1.3882  0.1602  0.7254
  164SAPE  C21718463   4.738   3.548   7.930 -0.2080  0.6356  0.2831
  164SAPE  H17R18464   4.782   3.648   7.950 -1.6272  1.2922  0.2596
  164SAPE  H17S18465   4.782   3.469   7.995  2.6436 -0.6946 -2.9527
  164SAPE  C21818466   4.585   3.556   7.940  0.6209 -0.0645 -0.1786
  164SAPE  H18R18467   4.542   3.454   7.929 -0.6119  0.2280  1.4346
  164SAPE  H18S18468   4.543   3.627   7.866 -2.1825  0.4223  1.7163
  164SAPE  C21918469   4.530   3.618   8.075  0.5888 -0.3150 -0.2067
  164SAPE  H19R18470   4.594   3.702   8.107  0.7949 -1.4520  2.7188
  164SAPE  H19S18471   4.538   3.530   8.144 -0.2914 -0.2506 -0.0139
  164SAPE  C22018472   4.379   3.657   8.082  0.3309 -0.3557 -0.1150
  164SAPE  H20R18473   4.339   3.653   8.185 -0.9666  1.2229 -0.5204
  164SAPE  H20S18474   4.316   3.594   8.015  0.0532  1.8885 -2.1216
  164SAPE  H20T18475   4.362   3.765   8.062 -2.3378 -0.4538  1.2950
  164SAPE   C3318476   4.325   3.135   6.486  0.0083 -0.0327 -0.1179
  164SAPE   H3X18477   4.370   3.199   6.565  0.2231 -2.8808  2.2382
  164SAPE   H3Y18478   4.408   3.073   6.446 -0.9048 -1.6137  0.3867
  164SAPE   C3418479   4.228   3.042   6.563 -0.3076 -0.6856 -0.4762
  164SAPE   H4X18480   4.177   2.964   6.503  1.0120 -1.3308 -0.7978
  164SAPE   H4Y18481   4.151   3.117   6.592  0.2011 -1.4036  3.2373
  164SAPE   C3518482   4.288   2.992   6.692  0.2153  0.0097 -0.4639
  164SAPE   H5X18483   4.326   3.082   6.744  1.7093 -0.3337 -0.9332
  164SAPE   H5Y18484   4.371   2.922   6.669  0.7694 -0.4142  2.5065
  164SAPE   C3618485   4.173   2.920   6.768 -0.3493  0.8246  0.3364
  164SAPE   H6X18486   4.102   2.874   6.695  0.2953 -0.3177  0.4163
  164SAPE   H6Y18487   4.109   2.990   6.825 -0.4054  0.5500  0.6101
  164SAPE   C3718488   4.226   2.812   6.857  0.4176  0.4063 -0.7531
  164SAPE   H7X18489   4.316   2.843   6.915 -0.0160  0.2961 -0.0061
  164SAPE   H7Y18490   4.256   2.729   6.790  1.1042 -0.9851  1.1755
  164SAPE   C3818491   4.122   2.762   6.961  0.5914 -0.7712  0.1233
  164SAPE   H8X18492   4.120   2.825   7.052  1.5345 -2.0859  1.0850
  164SAPE   H8Y18493   4.154   2.662   6.997  1.0273 -0.3194  1.0324
  164SAPE   C3918494   3.978   2.744   6.905 -0.0569 -0.5307  0.3502
  164SAPE   H9X18495   3.988   2.723   6.797  0.8135  0.4088  0.2268
  164SAPE   H9Y18496   3.922   2.839   6.906  0.4985  0.2514 -5.9682
  164SAPE  C31018497   3.901   2.628   6.973 -0.2636 -0.0954 -0.3649
  164SAPE  H10X18498   3.896   2.642   7.083 -1.3427 -6.9575  0.9130
  164SAPE  H10Y18499   3.947   2.528   6.963  0.7622  0.4134 -0.8761
  164SAPE  C31118500   3.747   2.633   6.935  0.3273 -0.2163 -0.6197
  164SAPE  H11X18501   3.737   2.599   6.830 -0.7101 -1.0554 -0.2796
  164SAPE  H11Y18502   3.717   2.740   6.937 -2.3340 -0.8675 -1.3698
  164SAPE  C31218503   3.646   2.565   7.028  0.2588 -0.0352 -1.3845
  164SAPE  H12X18504   3.658   2.455   7.017  1.2009 -0.5476  2.8016
  164SAPE  H12Y18505   3.543   2.589   6.992  0.5747  1.4824 -1.3623
  164SAPE  C31318506   3.655   2.595   7.181  0.1155 -0.2939  0.1145
  164SAPE  H13X18507   3.759   2.608   7.215 -0.7282  1.5440  2.2591
  164SAPE  H13Y18508   3.617   2.512   7.245  2.1138 -0.4665  1.1533
  164SAPE  C31418509   3.596   2.728   7.242  0.5293 -0.6374  0.2090
  164SAPE  H14X18510   3.490   2.726   7.209 -0.4491  0.9311  2.9048
  164SAPE  H14Y18511   3.644   2.824   7.213  1.2784 -0.4429  1.9985
  164SAPE  C31518512   3.563   2.717   7.394 -0.2554 -0.0009 -0.0781
  164SAPE  H15X18513   3.505   2.623   7.407  1.3112 -0.8614  1.0915
  164SAPE  H15Y18514   3.498   2.799   7.433  0.4686  0.9217 -0.7816
  164SAPE  C31618515   3.678   2.731   7.494 -0.0593 -0.2945  0.0012
  164SAPE  H16X18516   3.691   2.840   7.514 -1.5694  0.2010 -1.5128
  164SAPE  H16Y18517   3.775   2.699   7.451  0.6281 -0.4849  1.5955
  164SAPE  C31718518   3.661   2.652   7.632  0.2917  0.1390 -0.1372
  164SAPE  H17X18519   3.570   2.698   7.675  0.0745 -1.7205  1.5269
  164SAPE  H17Y18520   3.748   2.674   7.698  0.6924  1.1269 -0.9679
  164SAPE  C31818521   3.658   2.504   7.603  0.2481 -0.3640 -0.3160
  164SAPE  H18X18522   3.564   2.469   7.555  0.8674 -0.2839 -1.6546
  164SAPE  H18Y18523   3.683   2.445   7.693  0.1115 -0.0029 -0.0384
  164SAPE  H18Z18524   3.734   2.469   7.530 -1.2884  0.3343 -2.3674
  165SAPE     N18525   5.323   4.744   6.066  0.7032 -0.0008 -0.1502
  165SAPE   HN118526   5.247   4.744   6.137  1.0337  0.4308  0.2157
  165SAPE   HN218527   5.383   4.660   6.083  0.3050 -0.3468 -0.4425
  165SAPE   HN318528   5.389   4.821   6.091 -0.5876  1.2873 -0.5719
  165SAPE   C1218529   5.281   4.788   5.929  0.3471  0.0284  0.3476
  165SAPE  H12A18530   5.205   4.717   5.890 -1.0876  2.7964 -2.3869
  165SAPE  H12B18531   5.369   4.793   5.861  0.7834  2.8708  0.9933
  165SAPE   C1118532   5.215   4.924   5.934 -0.0866  0.4642 -0.1288
  165SAPE  H11A18533   5.190   4.953   5.830 -1.1567  2.6420  0.6778
  165SAPE  H11B18534   5.286   5.007   5.952 -0.2157  1.0983 -2.2355
  165SAPE     P18535   5.030   5.058   6.053  0.3028  0.1052  0.0997
  165SAPE   O1318536   5.047   5.152   5.945 -0.6239 -0.1408 -0.3371
  165SAPE   O1418537   4.892   5.036   6.098  0.3397 -0.4381 -0.1960
  165SAPE   O1218538   5.092   4.919   6.013  0.1509  0.4849  0.4116
  165SAPE   O1118539   5.117   5.103   6.179  0.0386  0.3156  0.0582
  165SAPE    C118540   5.135   5.003   6.282 -0.1404 -0.4874 -0.9372
  165SAPE    HA18541   5.115   4.899   6.248 -1.8266  0.0203 -1.6092
  165SAPE    HB18542   5.233   5.008   6.334 -0.8531 -2.3445  0.7110
  165SAPE    C218543   5.042   5.037   6.397 -0.0132 -0.4549  0.2202
  165SAPE    HS18544   4.945   5.046   6.344 -0.6548  0.3484  1.4717
  165SAPE   O2118545   5.092   5.157   6.460  0.2123 -0.5054 -0.0830
  165SAPE   C2118546   4.999   5.258   6.452 -0.7243  0.2414  0.5727
  165SAPE   O2218547   4.890   5.252   6.403 -0.2081  0.4129 -0.5834
  165SAPE   C2218548   5.056   5.385   6.517  0.0879  0.3300  0.1113
  165SAPE   H2R18549   5.166   5.381   6.507  0.0353 -0.3924 -0.1864
  165SAPE   H2S18550   5.011   5.466   6.456 -0.7355 -0.1261  0.0996
  165SAPE    C318551   5.031   4.925   6.505  0.4073  0.5849 -0.4904
  165SAPE    HX18552   5.133   4.925   6.551  0.6935 -1.5107 -1.0205
  165SAPE    HY18553   5.005   4.830   6.454  1.2248  1.0497 -1.8423
  165SAPE   O3118554   4.927   4.944   6.601  0.0611 -0.3725 -0.3969
  165SAPE   C3118555   4.950   4.986   6.725 -0.5615  0.2360  1.0763
  165SAPE   O3218556   5.066   5.000   6.767  0.0048 -0.0087 -1.1600
  165SAPE   C3218557   4.828   5.030   6.795  0.2912  0.0046 -0.1063
  165SAPE   H2X18558   4.753   4.950   6.788  1.0852 -0.9049  1.3034
  165SAPE   H2Y18559   4.792   5.124   6.747  1.7177  0.6916  0.0812
  165SAPE   C2318560   5.030   5.380   6.670  0.5562 -0.1781  0.9513
  165SAPE   H3R18561   5.113   5.431   6.723 -0.7553  2.1833  0.8794
  165SAPE   H3S18562   5.042   5.278   6.711 -1.4169 -0.3343  1.2547
  165SAPE   C2418563   4.901   5.450   6.704 -0.4275  0.2729  0.6056
  165SAPE   H4R18564   4.884   5.409   6.806  1.0706  0.0282  0.7768
  165SAPE   H4S18565   4.832   5.414   6.624  1.7739  2.3584 -2.4434
  165SAPE   C2518566   4.897   5.601   6.702 -0.3677 -0.2772 -0.6747
  165SAPE   H5R18567   4.947   5.640   6.612  1.2213 -2.0019 -0.6019
  165SAPE   C2618568   4.838   5.677   6.794 -0.3922  0.1873 -0.0246
  165SAPE   H6R18569   4.860   5.785   6.786  2.7949 -0.4566 -1.8664
  165SAPE   C2718570   4.759   5.648   6.917 -0.3335 -0.3591  0.0901
  165SAPE   H7R18571   4.798   5.711   7.000 -1.0845 -0.6043  0.6448
  165SAPE   H7S18572   4.775   5.547   6.961  0.0429 -0.0034  0.7774
  165SAPE   C2818573   4.613   5.660   6.882 -0.0869 -0.2852  0.4431
  165SAPE   H8R18574   4.567   5.579   6.824 -0.7352  0.6296 -0.3456
  165SAPE   C2918575   4.533   5.763   6.923 -0.2183  0.1174  0.1459
  165SAPE   H9R18576   4.424   5.756   6.922 -0.1554 -1.2011 -0.7608
  165SAPE  C21018577   4.580   5.882   7.012 -0.7484  0.9254  0.4759
  165SAPE  H10R18578   4.511   5.966   6.992 -2.4931 -0.1773  1.6745
  165SAPE  H10S18579   4.679   5.916   6.975 -0.9611  0.8991 -0.1278
  165SAPE  C21118580   4.596   5.849   7.156 -0.0729  0.1523 -0.1338
  165SAPE  H11R18581   4.665   5.763   7.165  1.4284  1.2522 -0.7367
  165SAPE  C21218582   4.549   5.919   7.265  0.2298  0.6410 -1.1598
  165SAPE  H12R18583   4.568   5.886   7.368 -0.2844 -0.0700 -1.2832
  165SAPE  C21318584   4.465   6.043   7.254 -0.2081 -0.1837  0.2388
  165SAPE  H13R18585   4.356   6.019   7.255  0.1605 -2.3283 -1.4438
  165SAPE  H13S18586   4.497   6.093   7.160  1.9470  0.0476  1.0349
  165SAPE  C21418587   4.497   6.145   7.362 -0.6212  0.8970  0.3816
  165SAPE  H14R18588   4.590   6.200   7.340 -0.5418  1.4832  2.0735
  165SAPE  C21518589   4.442   6.180   7.482 -0.8746  0.5841  0.6899
  165SAPE  H15R18590   4.492   6.246   7.554 -0.7284  0.2269  0.9238
  165SAPE  C21618591   4.319   6.115   7.540  0.3579 -0.0189  0.0109
  165SAPE  H16R18592   4.351   6.033   7.608 -1.3711 -1.4876 -0.8516
  165SAPE  H16S18593   4.260   6.067   7.458  2.2572 -0.7470 -0.9921
  165SAPE  C21718594   4.227   6.212   7.608  0.2128  0.4894 -0.0986
  165SAPE  H17R18595   4.186   6.286   7.536 -0.8945  0.3435  0.3520
  165SAPE  H17S18596   4.293   6.265   7.679  1.4843 -1.7478  0.4773
  165SAPE  C21818597   4.109   6.148   7.683  1.1478  0.3851  0.5286
  165SAPE  H18R18598   4.142   6.102   7.779 -1.0153  0.3791  1.3217
  165SAPE  H18S18599   4.057   6.074   7.619  1.5530 -1.1313  1.8652
  165SAPE  C21918600   3.998   6.246   7.725  0.8653  0.0751 -0.0146
  165SAPE  H19R18601   3.978   6.301   7.631  1.8430 -1.3310 -1.0959
  165SAPE  H19S18602   4.042   6.320   7.794 -2.2664  2.4717 -0.3802
  165SAPE  C22018603   3.873   6.193   7.783 -0.1644  0.4367  0.3322
  165SAPE  H20R18604   3.895   6.138   7.877  1.3954  2.1882  1.0393
  165SAPE  H20S18605   3.838   6.117   7.710  1.5769 -0.1135  0.0390
  165SAPE  H20T18606   3.802   6.275   7.806 -0.5356  0.2322 -0.0587
  165SAPE   C3318607   4.842   5.056   6.948 -0.1587  0.4640 -0.5693
  165SAPE   H3X18608   4.929   5.115   6.984  0.0494 -0.1334 -0.0627
  165SAPE   H3Y18609   4.849   4.955   6.995 -1.5208  0.0626 -1.1981
  165SAPE   C3418610   4.724   5.132   7.003 -0.4004  0.1410 -0.1835
  165SAPE   H4X18611   4.649   5.050   6.997  1.4575 -1.7367  1.1194
  165SAPE   H4Y18612   4.689   5.211   6.934 -1.2778 -2.8501 -3.4565
  165SAPE   C3518613   4.737   5.181   7.152  0.0183  0.3873  0.1172
  165SAPE   H5X18614   4.839   5.221   7.168  0.7429 -0.1647 -2.6863
  165SAPE   H5Y18615   4.720   5.096   7.222 -0.6535  0.1891 -0.2777
  165SAPE   C3618616   4.639   5.301   7.170 -0.3720 -0.0933 -0.4684
  165SAPE   H6X18617   4.542   5.249   7.188  0.5627 -2.5272 -1.9600
  165SAPE   H6Y18618   4.632   5.355   7.072 -0.4254  0.4402 -0.1773
  165SAPE   C3718619   4.669   5.409   7.266 -0.6375 -1.1052 -0.0615
  165SAPE   H7X18620   4.742   5.486   7.233 -0.5907  0.5377  3.5179
  165SAPE   H7Y18621   4.704   5.362   7.360  2.4763 -0.3271 -0.7037
  165SAPE   C3818622   4.548   5.498   7.296  0.0343 -1.0025  0.6980
  165SAPE   H8X18623   4.467   5.426   7.318  0.6737 -1.9840 -0.0729
  165SAPE   H8Y18624   4.521   5.551   7.202  2.1589 -1.6912 -0.3731
  165SAPE   C3918625   4.575   5.604   7.401 -0.2908  1.1324  0.3310
  165SAPE   H9X18626   4.494   5.679   7.400 -0.8165  0.6445 -2.5293
  165SAPE   H9Y18627   4.674   5.646   7.371 -1.2234  2.4026 -1.0949
  165SAPE  C31018628   4.576   5.555   7.550 -0.6044 -0.1952 -0.3084
  165SAPE  H10X18629   4.641   5.467   7.566 -1.1989 -0.5325  0.3104
  165SAPE  H10Y18630   4.475   5.511   7.569 -0.2331 -0.2562  1.7184
  165SAPE  C31118631   4.607   5.668   7.647  0.6417  0.6542  0.4996
  165SAPE  H11X18632   4.541   5.751   7.613 -1.4153 -1.8061 -2.0090
  165SAPE  H11Y18633   4.712   5.705   7.639  0.1599  2.0497  0.2926
  165SAPE  C31218634   4.597   5.620   7.791  0.4094 -0.4001  0.1237
  165SAPE  H12X18635   4.678   5.544   7.795  0.1520 -0.7302 -0.6402
  165SAPE  H12Y18636   4.500   5.570   7.811  0.9623 -1.8483 -0.6445
  165SAPE  C31318637   4.611   5.719   7.911 -0.7588 -0.4259 -0.0929
  165SAPE  H13X18638   4.546   5.808   7.895  1.0239  0.6244 -1.9637
  165SAPE  H13Y18639   4.710   5.767   7.919 -0.3089 -1.6137  2.3978
  165SAPE  C31418640   4.569   5.644   8.043 -0.1373 -0.3098 -0.3903
  165SAPE  H14X18641   4.640   5.559   8.051 -1.1782 -1.2820 -1.1973
  165SAPE  H14Y18642   4.466   5.602   8.033  0.1061 -1.7899  2.2046
  165SAPE  C31518643   4.563   5.739   8.165  0.5507  0.1477 -0.1318
  165SAPE  H15X18644   4.523   5.838   8.136 -0.0228 -0.1413 -0.3368
  165SAPE  H15Y18645   4.669   5.751   8.199 -0.0807  0.3510  1.8770
  165SAPE  C31618646   4.474   5.683   8.279  0.5507  0.1362  0.7729
  165SAPE  H16X18647   4.498   5.575   8.294  0.0140 -0.1187 -0.1564
  165SAPE  H16Y18648   4.370   5.682   8.242  0.7431 -1.2467  0.1964
  165SAPE  C31718649   4.482   5.756   8.409 -0.1190  0.6002 -0.2323
  165SAPE  H17X18650   4.445   5.859   8.389  2.6175  1.8791  0.6979
  165SAPE  H17Y18651   4.584   5.786   8.442  0.4122 -0.2111 -1.0823
  165SAPE  C31818652   4.413   5.674   8.517  0.2566 -0.2159 -0.4566
  165SAPE  H18X18653   4.304   5.661   8.498 -0.0145  1.3614 -0.1669
  165SAPE  H18Y18654   4.427   5.729   8.613 -1.8195 -1.7939  0.8452
  165SAPE  H18Z18655   4.462   5.578   8.541 -0.2315 -0.0308  1.4759
  166SAPE     N18656   5.578   2.514   5.910  0.0419 -0.7126 -0.3552
  166SAPE   HN118657   5.655   2.457   5.867  1.8429 -0.0370  1.7722
  166SAPE   HN218658   5.522   2.440   5.957  2.3359 -1.4131  1.4933
  166SAPE   HN318659   5.528   2.565   5.835  0.2457 -2.0880 -1.4847
  166SAPE   C1218660   5.630   2.607   6.024 -0.2394 -0.0884  0.4003
  166SAPE  H12A18661   5.688   2.553   6.102  1.9875  0.4175 -0.8053
  166SAPE  H12B18662   5.535   2.647   6.064  0.4865  2.1245  0.0439
  166SAPE   C1118663   5.716   2.713   5.959 -0.1506 -1.2456  0.4064
  166SAPE  H11A18664   5.754   2.789   6.030 -1.7034  0.1240 -0.1724
  166SAPE  H11B18665   5.654   2.778   5.894  1.0460 -1.1171 -0.6388
  166SAPE     P18666   5.970   2.698   5.900  0.0389  0.2161  0.0794
  166SAPE   O1318667   6.059   2.606   5.826  0.3328 -0.6368 -0.5306
  166SAPE   O1418668   5.970   2.838   5.861  0.1210  0.2768 -0.8291
  166SAPE   O1218669   5.816   2.647   5.885  0.0300 -0.2396 -0.0042
  166SAPE   O1118670   6.005   2.684   6.051  0.6599  0.5349  0.4344
  166SAPE    C118671   5.996   2.561   6.114 -0.0244  0.0896 -0.0041
  166SAPE    HA18672   5.892   2.525   6.101 -0.1549 -0.1449  1.4908
  166SAPE    HB18673   6.061   2.483   6.069  1.3976  1.2216  0.0006
  166SAPE    C218674   6.027   2.580   6.261 -0.2175 -0.2831 -0.3565
  166SAPE    HS18675   6.125   2.632   6.252 -0.3084  0.2244  1.1663
  166SAPE   O2118676   6.036   2.464   6.344  0.0960 -0.4716 -0.2047
  166SAPE   C2118677   6.144   2.384   6.327 -0.5931 -0.1184 -0.5635
  166SAPE   O2218678   6.226   2.393   6.234 -0.2849  1.0954  0.1600
  166SAPE   C2218679   6.152   2.280   6.436 -0.1079  0.5271  0.2038
  166SAPE   H2R18680   6.125   2.326   6.533  1.1619  3.4416 -0.7068
  166SAPE   H2S18681   6.080   2.198   6.417  1.2291 -1.8484  4.2215
  166SAPE    C318682   5.923   2.677   6.318  0.2145  0.0555 -0.2668
  166SAPE    HX18683   5.822   2.635   6.299  0.8923 -1.0148 -1.7320
  166SAPE    HY18684   5.922   2.771   6.259 -0.2202 -0.5110 -1.1926
  166SAPE   O3118685   5.945   2.699   6.464  0.1495 -0.2096 -0.3610
  166SAPE   C3118686   5.873   2.799   6.512  0.3965  0.7768  0.1720
  166SAPE   O3218687   5.789   2.870   6.459 -0.5383  0.0149  0.0144
  166SAPE   C3218688   5.927   2.823   6.656 -0.6777  0.5857  0.5547
  166SAPE   H2X18689   6.037   2.808   6.646 -0.9208 -0.7002 -0.4871
  166SAPE   H2Y18690   5.887   2.747   6.726 -1.3878  0.8061  0.3939
  166SAPE   C2318691   6.302   2.220   6.436 -0.2039 -0.0757 -0.0446
  166SAPE   H3R18692   6.327   2.175   6.337  1.2900  1.2034 -0.2820
  166SAPE   H3S18693   6.309   2.140   6.513  2.7861  0.3688  0.2552
  166SAPE   C2418694   6.406   2.327   6.480 -0.8245 -0.2975  0.1927
  166SAPE   H4R18695   6.386   2.430   6.444  1.4018  0.3030  0.5404
  166SAPE   H4S18696   6.495   2.281   6.434 -1.3781 -0.5023 -0.6947
  166SAPE   C2518697   6.423   2.319   6.632 -0.5903 -0.2129 -0.4347
  166SAPE   H5R18698   6.445   2.218   6.668  0.0356  0.2132  0.4020
  166SAPE   C2618699   6.426   2.424   6.716  0.0689 -0.3921  0.6815
  166SAPE   H6R18700   6.424   2.399   6.823  1.3759 -0.2850  0.7483
  166SAPE   C2718701   6.428   2.571   6.680 -0.2498 -0.3514 -0.4181
  166SAPE   H7R18702   6.423   2.596   6.572  2.5210 -0.8334 -0.7184
  166SAPE   H7S18703   6.523   2.624   6.703 -0.2716 -0.9106  1.0650
  166SAPE   C2818704   6.301   2.634   6.732 -0.1624 -0.0775  0.0232
  166SAPE   H8R18705   6.225   2.648   6.654 -0.6421  1.1941  0.6907
  166SAPE   C2918706   6.260   2.662   6.857  0.6255 -0.6326  0.1311
  166SAPE   H9R18707   6.170   2.724   6.862 -0.0916 -1.6286 -0.0508
  166SAPE  C21018708   6.330   2.654   6.985  0.7167 -0.1194  0.1238
  166SAPE  H10R18709   6.429   2.704   6.980  0.3442  0.6364  0.1484
  166SAPE  H10S18710   6.360   2.550   7.011 -0.2615 -0.0842  1.5319
  166SAPE  C21118711   6.253   2.716   7.103 -0.3834 -0.5034  0.2645
  166SAPE  H11R18712   6.242   2.825   7.108  0.1405 -0.4541  0.4475
  166SAPE  C21218713   6.211   2.637   7.209  0.8326 -0.4349  0.3714
  166SAPE  H12R18714   6.150   2.689   7.285 -2.5334  0.4345 -2.6317
  166SAPE  C21318715   6.223   2.490   7.230 -0.9197 -0.2385  0.3956
  166SAPE  H13R18716   6.258   2.429   7.143 -0.2853  0.4084  0.1857
  166SAPE  H13S18717   6.128   2.433   7.236 -1.1231  0.0016 -0.4089
  166SAPE  C21418718   6.324   2.453   7.345  0.4121  0.5026  0.0189
  166SAPE  H14R18719   6.431   2.460   7.320 -0.0522  1.7249 -1.8639
  166SAPE  C21518720   6.284   2.412   7.471  0.2129 -0.1257  0.5551
  166SAPE  H15R18721   6.366   2.378   7.536  0.6463 -0.8866 -0.3694
  166SAPE  C21618722   6.139   2.404   7.512 -0.6735  0.2601 -0.3317
  166SAPE  H16R18723   6.094   2.317   7.460  2.1366 -2.1863  1.0534
  166SAPE  H16S18724   6.089   2.496   7.474 -0.9341 -0.7668 -2.6688
  166SAPE  C21718725   6.133   2.365   7.664 -0.5255  0.0370  0.6657
  166SAPE  H17R18726   6.209   2.424   7.720 -0.8758  1.6535 -0.4945
  166SAPE  H17S18727   6.159   2.259   7.684 -1.1853 -0.5212 -1.2353
  166SAPE  C21818728   5.991   2.365   7.722 -1.1581 -0.2417 -0.1408
  166SAPE  H18R18729   5.917   2.330   7.647 -0.9500  0.0129 -0.4656
  166SAPE  H18S18730   5.955   2.463   7.759 -0.5472 -0.2745  0.5730
  166SAPE  C21918731   5.989   2.274   7.845 -0.4337 -0.5796 -0.7858
  166SAPE  H19R18732   6.078   2.302   7.904 -0.3322  1.4217 -1.8144
  166SAPE  H19S18733   6.002   2.170   7.808  2.6655 -0.7705  0.5467
  166SAPE  C22018734   5.863   2.292   7.928  0.1053 -0.1231  0.1868
  166SAPE  H20R18735   5.876   2.271   8.036 -0.2209 -3.0402 -0.2455
  166SAPE  H20S18736   5.782   2.230   7.884 -0.2091 -0.7142  1.5538
  166SAPE  H20T18737   5.819   2.394   7.924  2.3228  1.0443  2.5720
  166SAPE   C3318738   5.906   2.967   6.691  0.4388  0.0290  0.2166
  166SAPE   H3X18739   5.796   2.981   6.702  0.3396 -1.3298  1.2076
  166SAPE   H3Y18740   5.937   3.041   6.614  2.0342 -0.2617  0.5518
  166SAPE   C3418741   5.977   3.007   6.823 -0.3800 -0.0264 -0.0686
  166SAPE   H4X18742   5.971   3.118   6.831 -1.2081 -0.1306  1.0756
  166SAPE   H4Y18743   6.086   2.986   6.831  0.4182  2.7959 -1.8817
  166SAPE   C3518744   5.922   2.945   6.952 -0.8748 -1.0991  0.1448
  166SAPE   H5X18745   5.930   2.834   6.944 -1.4557 -1.1522  0.2518
  166SAPE   H5Y18746   5.814   2.968   6.963 -0.6276  0.7461 -0.9261
  166SAPE   C3618747   5.986   2.985   7.088 -0.4365  0.0949  0.9090
  166SAPE   H6X18748   5.983   3.096   7.087 -0.6386  0.1263 -1.8913
  166SAPE   H6Y18749   6.094   2.960   7.088 -0.3397  0.4908  0.5855
  166SAPE   C3718750   5.906   2.921   7.202 -0.1016  0.0934 -0.1987
  166SAPE   H7X18751   5.887   2.816   7.172 -0.6208  0.4863 -1.3178
  166SAPE   H7Y18752   5.809   2.973   7.187  0.6228  0.9533 -2.2666
  166SAPE   C3818753   5.969   2.930   7.339 -0.1772 -0.2245  0.6525
  166SAPE   H8X18754   6.007   3.033   7.355 -0.0418 -0.4545  1.9180
  166SAPE   H8Y18755   6.059   2.867   7.331  0.0509  0.2498 -0.8006
  166SAPE   C3918756   5.880   2.886   7.461  0.2340 -0.2231  0.2242
  166SAPE   H9X18757   5.831   2.790   7.431  0.9018 -0.6406  0.4475
  166SAPE   H9Y18758   5.807   2.964   7.488 -0.2497 -0.2223 -0.9969
  166SAPE  C31018759   5.953   2.854   7.589 -0.0521  0.1801 -0.2941
  166SAPE  H10X18760   5.963   2.947   7.649  0.2896  0.3562 -0.6176
  166SAPE  H10Y18761   6.053   2.818   7.557 -0.4182 -2.1451  0.9715
  166SAPE  C31118762   5.900   2.739   7.675 -0.6510 -0.3270  0.3171
  166SAPE  H11X18763   5.987   2.725   7.744  2.4681  0.9111 -3.0174
  166SAPE  H11Y18764   5.892   2.647   7.614  2.2480  0.2502 -1.1316
  166SAPE  C31218765   5.772   2.769   7.751  0.0051  0.1618 -0.1583
  166SAPE  H12X18766   5.728   2.668   7.765 -1.1007  0.6771  0.2437
  166SAPE  H12Y18767   5.704   2.827   7.684  0.2191 -0.0835 -0.5895
  166SAPE  C31318768   5.785   2.834   7.889  0.1883 -0.3342  0.0677
  166SAPE  H13X18769   5.828   2.937   7.882 -1.5172  0.4636  0.7820
  166SAPE  H13Y18770   5.847   2.770   7.955 -1.2424 -0.7320  1.0679
  166SAPE  C31418771   5.647   2.855   7.952  0.1819 -0.1746 -0.0754
  166SAPE  H14X18772   5.605   2.759   7.988  1.2469  0.1566  2.2893
  166SAPE  H14Y18773   5.574   2.888   7.875 -0.0701 -2.5635 -0.9450
  166SAPE  C31518774   5.642   2.953   8.073  0.6052 -1.6701  0.2375
  166SAPE  H15X18775   5.687   3.047   8.034 -1.1714 -1.1930 -0.7876
  166SAPE  H15Y18776   5.725   2.924   8.141  2.4707  0.2508 -1.0870
  166SAPE  C31618777   5.510   2.958   8.137  0.0981 -0.3507 -1.2594
  166SAPE  H16X18778   5.479   2.854   8.160 -0.3084 -0.0259 -0.2925
  166SAPE  H16Y18779   5.431   3.005   8.074 -0.9490  1.7463  1.3845
  166SAPE  C31718780   5.498   3.044   8.265 -0.1220 -0.8539 -0.3485
  166SAPE  H17X18781   5.542   3.145   8.247  2.6585 -0.9409  4.3256
  166SAPE  H17Y18782   5.562   2.987   8.336  0.4389 -0.4543 -0.5234
  166SAPE  C31818783   5.357   3.059   8.326  0.3237 -0.0808 -0.0165
  166SAPE  H18X18784   5.329   3.163   8.301  2.8818  0.4168 -1.1517
  166SAPE  H18Y18785   5.359   3.054   8.437  0.2941  0.2751  0.0006
  166SAPE  H18Z18786   5.287   2.987   8.277  0.6275 -0.0809 -0.4574
  167SAPE     N18787   4.695   6.570   5.843 -0.7815 -0.1261  0.1101
  167SAPE   HN118788   4.730   6.472   5.853 -3.1862 -1.0394  0.2678
  167SAPE   HN218789   4.593   6.557   5.855 -0.8909 -1.3455 -1.6593
  167SAPE   HN318790   4.712   6.603   5.746  0.1709 -2.7487 -0.7215
  167SAPE   C1218791   4.753   6.679   5.936 -0.1040  0.5325 -0.4914
  167SAPE  H12A18792   4.681   6.764   5.928  0.3226  0.7401 -3.0557
  167SAPE  H12B18793   4.855   6.708   5.902  1.2422 -1.5076  1.5723
  167SAPE   C1118794   4.785   6.630   6.077 -0.3579  0.4201 -0.4530
  167SAPE  H11A18795   4.689   6.626   6.134  0.0522 -0.5478  0.1858
  167SAPE  H11B18796   4.836   6.716   6.124 -0.7187  0.9982 -1.0942
  167SAPE     P18797   5.017   6.508   6.077 -0.2968  0.1074 -0.0214
  167SAPE   O1318798   5.062   6.400   5.990 -0.7547  0.3510  0.2939
  167SAPE   O1418799   5.067   6.647   6.054  0.5947  0.1398  0.8618
  167SAPE   O1218800   4.859   6.501   6.069 -0.0182 -0.0014 -0.2043
  167SAPE   O1118801   5.048   6.467   6.227  0.3360 -0.0692 -0.2175
  167SAPE    C118802   4.966   6.371   6.289  0.4183 -0.4788 -0.6452
  167SAPE    HA18803   4.888   6.324   6.224 -0.7285  0.1326  0.2491
  167SAPE    HB18804   5.033   6.286   6.315  1.9577  0.9628  0.2866
  167SAPE    C218805   4.905   6.424   6.421  0.0895  0.2679 -0.0772
  167SAPE    HS18806   4.822   6.495   6.397  1.7640  2.4883  0.3944
  167SAPE   O2118807   5.013   6.480   6.504 -0.6856  0.5260  0.7850
  167SAPE   C2118808   5.020   6.613   6.495  0.8830  0.2442 -0.4238
  167SAPE   O2218809   4.943   6.681   6.433 -0.0504 -0.2372  0.0832
  167SAPE   C2218810   5.122   6.663   6.605 -0.2020  0.2944  0.1590
  167SAPE   H2R18811   5.170   6.570   6.642 -1.8351 -1.2647 -1.4093
  167SAPE   H2S18812   5.200   6.720   6.551  0.3033 -0.0840  0.4818
  167SAPE    C318813   4.833   6.312   6.508 -0.2572  0.5110 -0.1315
  167SAPE    HX18814   4.916   6.239   6.521  0.5403  0.9799 -2.1870
  167SAPE    HY18815   4.749   6.264   6.453 -0.0104 -0.2653  0.1590
  167SAPE   O3118816   4.784   6.357   6.632  0.1572  0.5737 -0.0964
  167SAPE   C3118817   4.756   6.253   6.718  0.1115 -0.6895 -0.6987
  167SAPE   O3218818   4.778   6.134   6.702  0.1891  0.1709  0.5343
  167SAPE   C3218819   4.684   6.316   6.838  0.2700  0.8953 -0.3644
  167SAPE   H2X18820   4.581   6.329   6.799 -0.4762  2.6576  2.0101
  167SAPE   H2Y18821   4.714   6.421   6.854 -1.6827  1.3719  0.4029
  167SAPE   C2318822   5.067   6.755   6.712  0.7933  0.2742 -0.1968
  167SAPE   H3R18823   5.020   6.848   6.674 -1.4791 -0.5672  0.4098
  167SAPE   H3S18824   5.141   6.795   6.784 -0.7170  0.3044  1.4059
  167SAPE   C2418825   4.949   6.681   6.794  0.0106  0.1322  0.4074
  167SAPE   H4R18826   4.882   6.629   6.723  2.0277 -0.3327 -1.2527
  167SAPE   H4S18827   4.884   6.749   6.853 -1.9538 -1.5286  0.2749
  167SAPE   C2518828   5.001   6.564   6.875 -0.6532 -0.0332  0.1967
  167SAPE   H5R18829   5.013   6.467   6.823  0.8931 -0.2254  0.8629
  167SAPE   C2618830   5.046   6.574   7.003  0.2193  0.4907  0.8965
  167SAPE   H6R18831   5.081   6.487   7.060 -0.6492 -0.7039 -0.3310
  167SAPE   C2718832   5.053   6.704   7.083  0.3909 -0.0876  0.7056
  167SAPE   H7R18833   4.990   6.697   7.175  3.4468 -2.0538  2.8329
  167SAPE   H7S18834   5.011   6.786   7.021 -1.3459 -1.3739  0.0682
  167SAPE   C2818835   5.189   6.730   7.128 -0.7502  0.3239 -0.0786
  167SAPE   H8R18836   5.251   6.773   7.048  0.0609 -1.7923 -0.6353
  167SAPE   C2918837   5.242   6.700   7.249 -0.1243 -0.5836 -0.0121
  167SAPE   H9R18838   5.351   6.708   7.264 -0.0432 -0.0853 -0.7983
  167SAPE  C21018839   5.166   6.645   7.366 -1.0496 -0.1555 -0.4924
  167SAPE  H10R18840   5.160   6.534   7.352 -2.4647  0.0352 -1.6412
  167SAPE  H10S18841   5.064   6.688   7.367 -1.5377 -1.2675 -0.9784
  167SAPE  C21118842   5.249   6.683   7.489 -0.0922  0.6530 -0.1364
  167SAPE  H11R18843   5.307   6.776   7.487  1.7364 -0.4087  0.1104
  167SAPE  C21218844   5.244   6.620   7.604 -0.7113  0.5630 -0.1775
  167SAPE  H12R18845   5.301   6.656   7.691 -2.7076  0.3989  1.2758
  167SAPE  C21318846   5.163   6.495   7.638  0.1746 -0.1468  0.5998
  167SAPE  H13R18847   5.145   6.439   7.544 -1.3424  1.0813  0.1234
  167SAPE  H13S18848   5.062   6.522   7.676  0.5057  1.9455  0.0941
  167SAPE  C21418849   5.239   6.398   7.726 -0.1179  0.4495  0.0705
  167SAPE  H14R18850   5.311   6.326   7.684  0.5354  1.1560 -0.0432
  167SAPE  C21518851   5.225   6.402   7.861  0.4792 -0.1380 -0.1907
  167SAPE  H15R18852   5.292   6.339   7.922  0.2268  0.8018  1.0990
  167SAPE  C21618853   5.151   6.515   7.928 -0.0711 -0.5832 -0.0185
  167SAPE  H16R18854   5.149   6.605   7.863  0.8383 -2.0214 -2.1170
  167SAPE  H16S18855   5.207   6.544   8.020 -1.2434  0.1618  0.4722
  167SAPE  C21718856   5.002   6.471   7.950 -0.8472 -0.5684  0.5164
  167SAPE  H17R18857   5.001   6.377   8.008 -1.4285 -0.7376  0.2413
  167SAPE  H17S18858   4.954   6.458   7.851  0.4306  1.3771 -0.4357
  167SAPE  C21818859   4.926   6.572   8.040  0.4957  0.0110 -0.1560
  167SAPE  H18R18860   4.891   6.662   7.985 -1.9363 -1.6968 -1.5569
  167SAPE  H18S18861   4.988   6.617   8.121 -1.5286  1.3507  0.7175
  167SAPE  C21918862   4.813   6.517   8.117  0.0387 -0.4220  0.9099
  167SAPE  H19R18863   4.846   6.416   8.149 -1.3015 -1.1589  0.0418
  167SAPE  H19S18864   4.727   6.494   8.051 -0.0963  1.4026  0.3961
  167SAPE  C22018865   4.774   6.587   8.247  0.5463  0.0137 -0.4082
  167SAPE  H20R18866   4.683   6.648   8.229  1.2674  0.7312 -1.7763
  167SAPE  H20S18867   4.853   6.645   8.299 -1.9442  1.8808  1.5662
  167SAPE  H20T18868   4.738   6.512   8.321 -1.0394 -0.2432 -1.3776
  167SAPE   C3318869   4.694   6.241   6.973  0.8218 -0.4763 -0.5917
  167SAPE   H3X18870   4.632   6.149   6.978  1.8647 -1.1513  1.1214
  167SAPE   H3Y18871   4.638   6.308   7.041  1.9596 -1.7927  1.7764
  167SAPE   C3418872   4.836   6.215   7.023 -0.2004 -0.1312 -0.9142
  167SAPE   H4X18873   4.907   6.300   7.015  0.7599 -0.7526  0.5496
  167SAPE   H4Y18874   4.892   6.137   6.967  2.4957  1.1619 -0.1909
  167SAPE   C3518875   4.826   6.183   7.171  0.2476 -0.2855 -0.3328
  167SAPE   H5X18876   4.749   6.104   7.181 -2.0253  1.5987 -1.7813
  167SAPE   H5Y18877   4.789   6.269   7.232 -0.2815 -1.8725  1.7120
  167SAPE   C3618878   4.967   6.154   7.222  0.0599 -0.3379 -0.6836
  167SAPE   H6X18879   5.041   6.236   7.208  1.7399 -1.7189 -0.1238
  167SAPE   H6Y18880   5.008   6.064   7.172 -0.7332 -1.0130 -0.1401
  167SAPE   C3718881   4.969   6.137   7.381  0.2633 -0.6721 -0.4734
  167SAPE   H7X18882   4.928   6.236   7.411 -0.0606 -1.2536  1.1147
  167SAPE   H7Y18883   5.072   6.157   7.417 -0.0488  0.6097 -0.2369
  167SAPE   C3818884   4.893   6.023   7.436 -0.5062  0.0386 -0.0633
  167SAPE   H8X18885   4.927   5.933   7.380  0.9639 -0.2197  1.1772
  167SAPE   H8Y18886   4.790   6.051   7.406  0.9794  3.1143 -2.9209
  167SAPE   C3918887   4.908   6.010   7.583 -0.4234 -0.5548  0.0827
  167SAPE   H9X18888   5.004   6.047   7.625 -1.6439 -0.5595  3.1166
  167SAPE   H9Y18889   4.907   5.904   7.615  0.1680 -0.2212  1.2604
  167SAPE  C31018890   4.793   6.090   7.642  0.2689  0.4640 -0.3775
  167SAPE  H10X18891   4.699   6.053   7.594 -0.8232  0.6010  1.5558
  167SAPE  H10Y18892   4.805   6.199   7.624 -1.3325  0.7322  0.0137
  167SAPE  C31118893   4.783   6.073   7.793  0.0183 -0.4206 -1.2156
  167SAPE  H11X18894   4.877   6.120   7.829  0.3078 -1.4476 -0.5892
  167SAPE  H11Y18895   4.805   5.969   7.825  0.8213  0.4188  1.1588
  167SAPE  C31218896   4.647   6.125   7.852 -0.0505 -0.2913  0.5118
  167SAPE  H12X18897   4.566   6.061   7.811 -2.0688  2.1298  0.5520
  167SAPE  H12Y18898   4.634   6.229   7.815 -2.4489 -0.6766  0.1379
  167SAPE  C31318899   4.637   6.129   8.010 -0.0677  0.1208  0.3818
  167SAPE  H13X18900   4.733   6.173   8.044 -1.6150  1.7639  3.0077
  167SAPE  H13Y18901   4.631   6.025   8.050 -2.0095  0.1233  0.1811
  167SAPE  C31418902   4.519   6.204   8.062 -0.2426 -0.2222 -0.1907
  167SAPE  H14X18903   4.536   6.309   8.033  0.8488 -0.0533  0.9485
  167SAPE  H14Y18904   4.518   6.202   8.173  0.2600  0.5379 -0.1714
  167SAPE  C31518905   4.388   6.162   7.997  0.3024  0.5887 -0.3407
  167SAPE  H15X18906   4.365   6.065   8.046  0.7771 -0.0535 -1.3694
  167SAPE  H15Y18907   4.402   6.136   7.890  3.1821 -1.0540  0.3241
  167SAPE  C31618908   4.279   6.264   8.013  0.5706 -0.0509 -0.2697
  167SAPE  H16X18909   4.181   6.228   7.977 -0.6522  1.7970  1.0506
  167SAPE  H16Y18910   4.309   6.354   7.956  1.3724 -0.9238 -1.2571
  167SAPE  C31718911   4.250   6.303   8.163 -0.2856  0.2766  0.1059
  167SAPE  H17X18912   4.335   6.366   8.198 -0.2829 -0.4089  1.3753
  167SAPE  H17Y18913   4.248   6.206   8.217 -2.2965  0.5935  0.6955
  167SAPE  C31818914   4.121   6.372   8.176  0.4008 -0.2209  1.2186
  167SAPE  H18X18915   4.045   6.310   8.124  1.4885  0.2589 -1.0462
  167SAPE  H18Y18916   4.119   6.473   8.130  1.3532 -1.1592 -1.0019
  167SAPE  H18Z18917   4.084   6.378   8.281 -0.9845 -0.3831  0.7655
  168SAPE     N18918   0.387   6.493   6.607 -0.0647 -0.1209 -0.2761
  168SAPE   HN118919   0.341   6.402   6.591  1.2714 -0.7385 -0.8181
  168SAPE   HN218920   0.487   6.482   6.634  0.0060  0.1911 -0.3967
  168SAPE   HN318921   0.339   6.540   6.686  0.9068 -0.5092  0.5795
  168SAPE   C1218922   0.369   6.587   6.487 -0.2844  0.2755 -0.9469
  168SAPE  H12A18923   0.435   6.566   6.400  1.2930 -1.9831  0.6783
  168SAPE  H12B18924   0.396   6.690   6.520 -2.9394  1.2771 -1.6185
  168SAPE   C1118925   0.220   6.603   6.453  0.3288 -0.1117  0.0272
  168SAPE  H11A18926   0.189   6.506   6.407  0.1517  0.2956 -0.7319
  168SAPE  H11B18927   0.220   6.690   6.384 -0.7913 -1.0300 -1.1877
  168SAPE     P18928  -0.012   6.687   6.565 -0.0530  0.5791  0.2282
  168SAPE   O1318929  -0.038   6.734   6.425 -0.2995  0.3292 -0.3800
  168SAPE   O1418930  -0.113   6.594   6.622  0.6629 -0.1297  0.5291
  168SAPE   O1218931   0.144   6.633   6.579  0.0173  0.6818 -0.1431
  168SAPE   O1118932  -0.015   6.818   6.650 -0.1784 -0.4560  0.3870
  168SAPE    C118933   0.100   6.864   6.724  0.4757  0.6036  0.3779
  168SAPE    HA18934   0.191   6.857   6.660 -0.7654  1.2554 -1.5421
  168SAPE    HB18935   0.091   6.974   6.738 -3.3625  0.6894 -1.6295
  168SAPE    C218936   0.112   6.784   6.853 -0.0381  0.6523 -0.3024
  168SAPE    HS18937   0.124   6.676   6.830  3.6632  0.7020  0.8229
  168SAPE   O2118938   0.004   6.812   6.941 -0.2642  0.1610 -0.3524
  168SAPE   C2118939  -0.051   6.716   7.017 -0.2593  0.0212 -0.4383
  168SAPE   O2218940  -0.025   6.596   7.018  0.3049 -0.7354  0.2650
  168SAPE   C2218941  -0.160   6.786   7.108 -0.3240  0.0253  0.5878
  168SAPE   H2R18942  -0.120   6.888   7.125 -0.2462  0.0690  0.1586
  168SAPE   H2S18943  -0.247   6.794   7.039 -0.3932  1.4460  0.8003
  168SAPE    C318944   0.255   6.815   6.917 -0.2076 -0.2237 -0.3767
  168SAPE    HX18945   0.249   6.919   6.957 -1.0671 -0.9470  1.4888
  168SAPE    HY18946   0.337   6.808   6.843  2.1546  1.8764  1.8112
  168SAPE   O3118947   0.277   6.737   7.039  0.0189  0.4160 -0.3215
  168SAPE   C3118948   0.315   6.611   7.010  0.6402 -0.3868 -0.2509
  168SAPE   O3218949   0.347   6.581   6.898 -1.0488  0.4824 -0.5312
  168SAPE   C3218950   0.296   6.526   7.132 -0.6872 -0.5453 -0.1783
  168SAPE   H2X18951   0.189   6.517   7.158 -0.6139  0.1146  0.3612
  168SAPE   H2Y18952   0.332   6.584   7.220 -0.0040 -0.9122 -0.2058
  168SAPE   C2318953  -0.203   6.710   7.234 -0.3871 -0.2700  0.2741
  168SAPE   H3R18954  -0.229   6.604   7.213 -1.4711 -0.0294  0.3507
  168SAPE   H3S18955  -0.298   6.756   7.267 -0.7498  2.6246 -3.9102
  168SAPE   C2418956  -0.095   6.714   7.340  0.7333 -0.6353 -0.1229
  168SAPE   H4R18957  -0.063   6.820   7.352 -2.5856  0.3832  0.8987
  168SAPE   H4S18958  -0.012   6.659   7.290 -0.2950 -1.4473 -0.9738
  168SAPE   C2518959  -0.131   6.637   7.461  0.2022  0.5589 -0.6350
  168SAPE   H5R18960  -0.220   6.678   7.512  1.6337  0.0078  2.5231
  168SAPE   C2618961  -0.060   6.528   7.512  0.0866 -0.6480  0.3891
  168SAPE   H6R18962  -0.097   6.470   7.597 -1.0512 -0.4461  0.0513
  168SAPE   C2718963   0.076   6.485   7.462 -0.1265 -0.0299  0.4253
  168SAPE   H7R18964   0.133   6.574   7.427 -1.3937  0.5203 -0.2921
  168SAPE   H7S18965   0.049   6.433   7.368  1.7805 -0.6733  0.1972
  168SAPE   C2818966   0.161   6.404   7.556  0.4653 -0.1561  0.1247
  168SAPE   H8R18967   0.204   6.316   7.507 -0.5248 -0.7510  0.2963
  168SAPE   C2918968   0.204   6.443   7.683  0.4250 -0.4367 -0.5201
  168SAPE   H9R18969   0.257   6.372   7.748  0.2191 -0.4219 -0.3337
  168SAPE  C21018970   0.166   6.572   7.759  0.0007  0.5751 -0.2854
  168SAPE  H10R18971   0.138   6.646   7.681 -0.3714  0.2816 -0.4350
  168SAPE  H10S18972   0.257   6.599   7.817  0.2254 -3.2054  1.3893
  168SAPE  C21118973   0.050   6.572   7.855  0.8095 -0.5640 -0.0757
  168SAPE  H11R18974  -0.034   6.637   7.826  1.2541  0.1219  0.1516
  168SAPE  C21218975   0.026   6.494   7.965 -0.0231  0.2384 -0.2206
  168SAPE  H12R18976  -0.069   6.502   8.021 -0.1687 -0.6653 -0.3206
  168SAPE  C21318977   0.127   6.400   8.024 -0.1973  0.3474 -0.1927
  168SAPE  H13R18978   0.153   6.443   8.123 -0.2658 -0.4999  0.2090
  168SAPE  H13S18979   0.230   6.394   7.981 -0.7057  0.7211 -1.5039
  168SAPE  C21418980   0.075   6.263   8.047  0.2220  0.7279 -0.6214
  168SAPE  H14R18981   0.009   6.232   7.964  2.9363 -3.3474 -1.5595
  168SAPE  C21518982   0.100   6.173   8.144  0.8174  0.3324  0.1407
  168SAPE  H15R18983   0.051   6.075   8.135 -1.0493  1.0744  1.5162
  168SAPE  C21618984   0.199   6.193   8.256 -0.4919 -0.5252 -0.3690
  168SAPE  H16R18985   0.279   6.262   8.222 -1.6428  0.9759 -0.1290
  168SAPE  H16S18986   0.245   6.099   8.294  0.2065 -0.9913 -2.2628
  168SAPE  C21718987   0.142   6.269   8.379 -0.6450  0.2036 -0.5894
  168SAPE  H17R18988   0.053   6.216   8.420  0.4511 -0.3081  1.2441
  168SAPE  H17S18989   0.115   6.373   8.351  4.1146  1.4526 -1.4375
  168SAPE  C21818990   0.251   6.287   8.491 -0.1001  0.3295 -0.3724
  168SAPE  H18R18991   0.324   6.363   8.454  0.2756 -0.3549 -1.0681
  168SAPE  H18S18992   0.294   6.187   8.511  1.0131  0.9689  0.5766
  168SAPE  C21918993   0.191   6.334   8.622  0.6645  0.6256  0.3495
  168SAPE  H19R18994   0.117   6.267   8.670 -0.1883  0.7793 -0.7042
  168SAPE  H19S18995   0.136   6.429   8.599 -0.7765 -0.4437 -0.8096
  168SAPE  C22018996   0.305   6.367   8.719  0.4045 -0.3027 -0.0698
  168SAPE  H20R18997   0.385   6.434   8.681  1.1188  0.0237  1.9107
  168SAPE  H20S18998   0.361   6.275   8.747  0.7273  1.0022  4.2548
  168SAPE  H20T18999   0.269   6.418   8.811  1.1198 -0.5107  0.3327
  168SAPE   C3319000   0.332   6.381   7.121  0.2621  0.4128  0.0140
  168SAPE   H3X19001   0.297   6.340   7.024  1.3132 -0.1387 -0.1477
  168SAPE   H3Y19002   0.275   6.324   7.197 -1.2978  0.9632 -0.6932
  168SAPE   C3419003   0.482   6.343   7.117  0.5731 -0.9663 -0.2139
  168SAPE   H4X19004   0.527   6.374   7.020  0.7058  2.1121  0.7340
  168SAPE   H4Y19005   0.488   6.233   7.098 -1.0404 -0.7859 -2.0925
  168SAPE   C3519006   0.580   6.397   7.233  0.0602  0.3867  0.5978
  168SAPE   H5X19007   0.579   6.508   7.233  0.8850  0.4066  1.1479
  168SAPE   H5Y19008   0.685   6.362   7.219 -0.7963 -1.8073 -0.9714
  168SAPE   C3619009   0.530   6.348   7.377  0.3346 -0.5594  0.2928
  168SAPE   H6X19010   0.499   6.241   7.384 -0.3003 -0.6291 -2.3897
  168SAPE   H6Y19011   0.453   6.425   7.399  0.5905  0.4024 -1.8762
  168SAPE   C3719012   0.638   6.370   7.486  0.3597  0.4472 -0.4386
  168SAPE   H7X19013   0.679   6.473   7.479  1.6724 -0.0873 -1.1054
  168SAPE   H7Y19014   0.718   6.293   7.484 -0.0775  0.0009 -1.2249
  168SAPE   C3819015   0.571   6.347   7.623  0.7395  0.1095 -0.3473
  168SAPE   H8X19016   0.539   6.241   7.630  2.4713 -0.3028  2.5445
  168SAPE   H8Y19017   0.487   6.420   7.620  1.5442  1.0388 -0.9129
  168SAPE   C3919018   0.661   6.363   7.748  0.2937 -0.5653 -0.2901
  168SAPE   H9X19019   0.717   6.458   7.732  2.0520 -1.1941  1.7398
  168SAPE   H9Y19020   0.737   6.283   7.752  1.6201  0.5694 -1.5452
  168SAPE  C31019021   0.584   6.383   7.883 -0.4766 -0.4521  0.0698
  168SAPE  H10X19022   0.508   6.302   7.889  0.3406 -1.3119 -0.6455
  168SAPE  H10Y19023   0.523   6.475   7.876  0.2859 -0.0733 -3.7460
  168SAPE  C31119024   0.675   6.387   8.003  0.8278  1.1297 -0.6973
  168SAPE  H11X19025   0.701   6.494   8.019  0.7562  0.9471  0.7521
  168SAPE  H11Y19026   0.766   6.325   7.990 -0.7141 -1.7568  1.2844
  168SAPE  C31219027   0.586   6.330   8.115 -0.3968 -0.7511 -0.2893
  168SAPE  H12X19028   0.559   6.228   8.080 -1.0610 -0.9994  0.8786
  168SAPE  H12Y19029   0.494   6.389   8.132 -0.7786 -1.4709  0.1878
  168SAPE  C31319030   0.663   6.304   8.256 -0.3019 -0.6462  0.6111
  168SAPE  H13X19031   0.674   6.408   8.293 -0.0001 -0.3954 -0.1583
  168SAPE  H13Y19032   0.757   6.255   8.224 -0.5380 -0.9066  0.3037
  168SAPE  C31419033   0.599   6.204   8.346 -0.2594 -0.1924 -0.1491
  168SAPE  H14X19034   0.543   6.121   8.297 -2.5927  2.2167 -1.7903
  168SAPE  H14Y19035   0.528   6.265   8.407 -0.8956 -1.1780  0.1360
  168SAPE  C31519036   0.696   6.137   8.448 -0.3560 -0.0854 -0.2560
  168SAPE  H15X19037   0.747   6.217   8.507  0.0224  1.1815 -2.2142
  168SAPE  H15Y19038   0.774   6.075   8.398 -2.4056 -1.3796 -2.0382
  168SAPE  C31619039   0.623   6.043   8.557  0.3656 -0.8518 -0.4167
  168SAPE  H16X19040   0.557   5.976   8.498 -2.3604  1.6079 -0.4435
  168SAPE  H16Y19041   0.553   6.108   8.616  1.8505 -0.9844  1.5828
  168SAPE  C31719042   0.723   5.964   8.651 -0.6632 -1.1297 -0.0437
  168SAPE  H17X19043   0.655   5.907   8.717 -2.2229 -0.7094 -1.2204
  168SAPE  H17Y19044   0.774   6.030   8.725 -1.2947 -0.2340 -0.3819
  168SAPE  C31819045   0.816   5.860   8.580 -0.6498  0.0401 -0.4551
  168SAPE  H18X19046   0.745   5.778   8.556  2.1492 -2.4341 -0.9189
  168SAPE  H18Y19047   0.886   5.819   8.657  0.0703 -0.1053 -1.1699
  168SAPE  H18Z19048   0.866   5.892   8.486  0.4791 -1.5037 -0.4221
  169SAPE     N19049   1.678   3.242   6.184 -0.1005 -0.0184  0.8284
  169SAPE   HN119050   1.740   3.282   6.111  0.4630 -2.7586 -0.2796
  169SAPE   HN219051   1.697   3.140   6.186  1.3623  0.2426  1.0863
  169SAPE   HN319052   1.584   3.252   6.139  0.2399 -1.0936 -0.1439
  169SAPE   C1219053   1.674   3.316   6.312 -0.6302  0.5761  0.1544
  169SAPE  H12A19054   1.773   3.327   6.361 -1.5762  0.6173  2.1154
  169SAPE  H12B19055   1.600   3.266   6.379 -0.8114 -0.1895 -0.5913
  169SAPE   C1119056   1.614   3.462   6.300  0.1078  1.0006  0.9486
  169SAPE  H11A19057   1.626   3.512   6.398  3.1627 -2.2509  2.4512
  169SAPE  H11B19058   1.505   3.453   6.284  0.0503 -0.4000  1.8966
  169SAPE     P19059   1.763   3.639   6.191  0.4270 -0.0836  0.2964
  169SAPE   O1319060   1.897   3.590   6.228  0.2989  0.0920  0.1208
  169SAPE   O1419061   1.752   3.716   6.065 -0.5258  0.7291  0.1728
  169SAPE   O1219062   1.659   3.529   6.186  0.2678 -0.1651 -0.5303
  169SAPE   O1119063   1.702   3.732   6.301 -0.7147  0.4894  0.0546
  169SAPE    C119064   1.741   3.872   6.316  0.5565 -0.0720  0.0952
  169SAPE    HA19065   1.850   3.885   6.301  0.3981  1.1309 -0.1797
  169SAPE    HB19066   1.684   3.926   6.237  0.3894  0.0796  0.3200
  169SAPE    C219067   1.701   3.921   6.460  0.4783 -0.4707  0.2464
  169SAPE    HS19068   1.744   4.021   6.481 -1.7094  0.3667  1.1015
  169SAPE   O2119069   1.741   3.822   6.557 -0.3042 -0.1405  0.0119
  169SAPE   C2119070   1.867   3.801   6.560 -0.0244 -0.4433  0.7297
  169SAPE   O2219071   1.951   3.878   6.517  0.1553  0.4141 -1.1140
  169SAPE   C2219072   1.898   3.657   6.605 -0.5937  0.7870  0.3115
  169SAPE   H2R19073   1.881   3.597   6.513  1.6782  0.1510  0.2448
  169SAPE   H2S19074   2.008   3.667   6.621 -0.2982 -0.3443 -0.8018
  169SAPE    C319075   1.548   3.938   6.472  0.0739  0.1938 -0.1128
  169SAPE    HX19076   1.509   3.834   6.474  0.9044 -0.1538 -0.9891
  169SAPE    HY19077   1.504   3.985   6.381 -1.0958  0.0081  0.3402
  169SAPE   O3119078   1.524   4.024   6.589 -0.0709 -0.0203 -0.7441
  169SAPE   C3119079   1.394   4.034   6.614 -0.2302  0.4206  0.2916
  169SAPE   O3219080   1.305   3.996   6.537 -0.2679 -0.2066  0.4482
  169SAPE   C3219081   1.372   4.086   6.752 -0.4800 -0.5280 -0.1096
  169SAPE   H2X19082   1.378   4.197   6.752 -2.3588 -0.3334  2.3428
  169SAPE   H2Y19083   1.458   4.047   6.809 -0.3033 -0.3199 -0.2307
  169SAPE   C2319084   1.825   3.600   6.725 -0.6646  0.2172  0.0198
  169SAPE   H3R19085   1.718   3.586   6.700 -0.6313  0.3494 -0.2023
  169SAPE   H3S19086   1.835   3.667   6.813  0.6928  0.7953 -0.5477
  169SAPE   C2419087   1.893   3.461   6.747  0.0829  0.8597  0.0864
  169SAPE   H4R19088   1.871   3.423   6.849  0.2007  3.1994  1.0437
  169SAPE   H4S19089   2.003   3.481   6.753  0.4935 -1.1135 -0.2318
  169SAPE   C2519090   1.861   3.360   6.640 -0.2424  0.3361  0.1865
  169SAPE   H5R19091   1.925   3.368   6.550  2.3654 -0.8130  1.8222
  169SAPE   C2619092   1.768   3.258   6.657 -0.0876 -0.4294  0.2606
  169SAPE   H6R19093   1.775   3.186   6.575  0.2999  0.7280 -0.7640
  169SAPE   C2719094   1.672   3.220   6.764 -0.4035 -0.0755 -0.4200
  169SAPE   H7R19095   1.738   3.196   6.851  1.4748  2.4921 -1.0196
  169SAPE   H7S19096   1.631   3.123   6.731 -1.4726  0.6106 -1.1510
  169SAPE   C2819097   1.566   3.312   6.820  0.4386  0.8923 -0.6415
  169SAPE   H8R19098   1.517   3.377   6.746 -2.1608 -1.2075 -0.9194
  169SAPE   C2919099   1.531   3.320   6.953 -0.1832 -0.2665  0.1479
  169SAPE   H9R19100   1.451   3.386   6.989 -0.8601 -1.5115  1.0252
  169SAPE  C21019101   1.580   3.234   7.064  0.6313 -0.5992  0.5888
  169SAPE  H10R19102   1.617   3.135   7.028  3.1169  0.7296 -0.7534
  169SAPE  H10S19103   1.500   3.221   7.140 -0.6181  1.4561 -0.3191
  169SAPE  C21119104   1.707   3.296   7.130  0.6269 -0.1416 -0.2412
  169SAPE  H11R19105   1.790   3.307   7.058  1.6340 -0.1196  0.9075
  169SAPE  C21219106   1.728   3.328   7.259  0.7003  0.9493 -0.3105
  169SAPE  H12R19107   1.830   3.359   7.287  0.8338  0.3189 -0.0776
  169SAPE  C21319108   1.627   3.310   7.368 -0.5760 -0.4874 -0.7002
  169SAPE  H13R19109   1.610   3.205   7.403 -0.7694 -0.0472  0.6003
  169SAPE  H13S19110   1.531   3.351   7.330  0.1245  1.5009 -0.4366
  169SAPE  C21419111   1.662   3.398   7.483 -0.1072  0.2162  0.1964
  169SAPE  H14R19112   1.722   3.488   7.463  0.6014 -0.1750  0.5068
  169SAPE  C21519113   1.642   3.364   7.616 -0.1176  0.6476 -0.6654
  169SAPE  H15R19114   1.676   3.440   7.688  0.7033  0.3308 -0.6973
  169SAPE  C21619115   1.581   3.243   7.684 -0.0048  0.1035  0.4927
  169SAPE  H16R19116   1.658   3.200   7.750  1.3178  0.4801 -0.7498
  169SAPE  H16S19117   1.562   3.170   7.602 -0.9447  1.1235 -0.2344
  169SAPE  C21719118   1.456   3.284   7.756  0.1011  0.5638  0.0946
  169SAPE  H17R19119   1.480   3.334   7.852  1.2315  0.1874  0.0223
  169SAPE  H17S19120   1.404   3.187   7.769 -0.6351  0.6324 -1.8829
  169SAPE  C21819121   1.353   3.364   7.676  0.2836  0.2212  0.1676
  169SAPE  H18R19122   1.304   3.297   7.601  2.2906 -1.1855  0.0452
  169SAPE  H18S19123   1.413   3.429   7.609  0.1662 -0.6218 -0.7882
  169SAPE  C21919124   1.255   3.430   7.770  0.2589  0.3339  0.2635
  169SAPE  H19R19125   1.308   3.504   7.833 -1.2978  1.5588  0.1960
  169SAPE  H19S19126   1.196   3.359   7.832 -1.8102  2.0453  0.3613
  169SAPE  C22019127   1.139   3.512   7.703 -0.2370 -0.0343  0.2125
  169SAPE  H20R19128   1.077   3.548   7.788  0.4831  1.0567  0.2992
  169SAPE  H20S19129   1.076   3.452   7.634 -0.8503  0.0638  0.6786
  169SAPE  H20T19130   1.179   3.600   7.648 -2.3156  1.2418  0.6292
  169SAPE   C3319131   1.239   4.074   6.815  0.1648  0.4306  0.3734
  169SAPE   H3X19132   1.215   3.972   6.853 -1.3980  0.4967 -0.3238
  169SAPE   H3Y19133   1.156   4.093   6.744 -0.4104 -1.2840  0.5196
  169SAPE   C3419134   1.209   4.172   6.936 -0.1774 -0.3948 -0.1490
  169SAPE   H4X19135   1.098   4.184   6.938 -0.2509 -0.2471 -2.6195
  169SAPE   H4Y19136   1.258   4.267   6.909  2.0694 -2.3238 -3.5427
  169SAPE   C3519137   1.262   4.101   7.068  0.2629  0.3201  0.5542
  169SAPE   H5X19138   1.370   4.087   7.049 -0.1398 -0.4078 -1.3815
  169SAPE   H5Y19139   1.219   4.000   7.085 -2.3341  1.4379  1.1636
  169SAPE   C3619140   1.232   4.186   7.185  0.2307  0.3711 -0.0254
  169SAPE   H6X19141   1.123   4.183   7.201  0.0310  3.8067 -0.1613
  169SAPE   H6Y19142   1.247   4.295   7.171 -1.5018  0.5804 -0.3906
  169SAPE   C3719143   1.305   4.147   7.320  0.8400  0.7775 -0.5050
  169SAPE   H7X19144   1.407   4.192   7.325  2.1498 -2.0826  0.5613
  169SAPE   H7Y19145   1.316   4.037   7.324 -4.2929  0.0366  2.0690
  169SAPE   C3819146   1.220   4.193   7.450 -0.4288 -1.0787 -0.4991
  169SAPE   H8X19147   1.114   4.209   7.420 -1.1957 -0.5193  2.2544
  169SAPE   H8Y19148   1.256   4.294   7.480 -0.6246 -0.8127 -1.1350
  169SAPE   C3919149   1.230   4.093   7.565  0.0396  0.6211  0.1474
  169SAPE   H9X19150   1.336   4.076   7.593  0.3525 -1.1201 -1.7974
  169SAPE   H9Y19151   1.207   3.991   7.525 -1.9950  1.0253  0.1606
  169SAPE  C31019152   1.144   4.135   7.684 -0.1911 -0.6634 -0.3304
  169SAPE  H10X19153   1.043   4.177   7.667 -0.6221 -1.7408 -0.4643
  169SAPE  H10Y19154   1.208   4.214   7.729  0.2108  0.5520 -2.8500
  169SAPE  C31119155   1.143   4.032   7.794 -0.4888  0.3165  0.1492
  169SAPE  H11X19156   1.247   3.993   7.800  0.4840  2.4834 -1.2234
  169SAPE  H11Y19157   1.070   3.950   7.781 -1.1414  1.1012 -1.2963
  169SAPE  C31219158   1.109   4.083   7.931  1.2036 -0.8529 -0.3510
  169SAPE  H12X19159   1.013   4.138   7.930  1.0169 -1.1152 -2.3254
  169SAPE  H12Y19160   1.189   4.157   7.955 -1.2766  2.0371 -0.3592
  169SAPE  C31319161   1.101   3.989   8.052 -0.1017  0.0902 -0.2028
  169SAPE  H13X19162   1.205   3.955   8.073  0.8976  3.4227  0.9883
  169SAPE  H13Y19163   1.043   3.901   8.019 -1.5927  0.5718  1.0232
  169SAPE  C31419164   1.036   4.041   8.181  0.0016  0.8113 -0.2282
  169SAPE  H14X19165   1.058   3.957   8.250  0.8369  0.7448 -0.5557
  169SAPE  H14Y19166   0.926   4.052   8.169 -0.2683  1.3292  2.1306
  169SAPE  C31519167   1.093   4.163   8.234 -0.2242 -0.3177 -0.1740
  169SAPE  H15X19168   1.081   4.246   8.161 -0.3528  0.8468  1.1244
  169SAPE  H15Y19169   1.203   4.148   8.238  0.1320  1.2241 -2.4503
  169SAPE  C31619170   1.021   4.192   8.366 -0.4370 -0.0904  0.0232
  169SAPE  H16X19171   0.913   4.168   8.354 -1.0311  1.5936  1.5730
  169SAPE  H16Y19172   1.030   4.302   8.382 -0.4214  0.2585 -2.0284
  169SAPE  C31719173   1.082   4.114   8.478 -0.2957 -0.0484 -0.7726
  169SAPE  H17X19174   1.190   4.097   8.457 -0.2431 -0.5970 -0.0911
  169SAPE  H17Y19175   1.043   4.010   8.477  1.5315 -0.7807 -1.3786
  169SAPE  C31819176   1.060   4.179   8.611  0.9417  0.9383 -0.1600
  169SAPE  H18X19177   0.954   4.184   8.643 -0.0249 -2.4633 -2.3259
  169SAPE  H18Y19178   1.107   4.280   8.605  1.3110  0.8179  0.5918
  169SAPE  H18Z19179   1.118   4.120   8.686 -1.1575 -0.8866  0.1267
  170SAPE     N19180   6.621   0.637   6.239 -0.0752  0.4223 -0.2160
  170SAPE   HN119181   6.522   0.609   6.231 -0.2665  0.4518  1.6181
  170SAPE   HN219182   6.611   0.732   6.282 -0.1126  0.7248 -0.8814
  170SAPE   HN319183   6.663   0.648   6.144 -2.1626  0.4477 -1.2001
  170SAPE   C1219184   6.704   0.547   6.324 -0.1392  1.1753  0.7064
  170SAPE  H12A19185   6.697   0.443   6.287  2.0752  0.6633  1.5842
  170SAPE  H12B19186   6.671   0.556   6.429 -0.7707 -3.5842  1.1378
  170SAPE   C1119187   6.850   0.588   6.319 -0.0891  0.2985  0.0967
  170SAPE  H11A19188   6.908   0.525   6.391 -2.4969 -0.9605  1.0643
  170SAPE  H11B19189   6.859   0.690   6.362 -0.1170  1.4814 -2.5185
  170SAPE     P19190   7.058   0.556   6.149 -0.5354  0.4394  0.7090
  170SAPE   O1319191   7.084   0.409   6.144 -0.0491  0.3352  0.2235
  170SAPE   O1419192   7.112   0.628   6.031  0.3920 -0.3125  0.0150
  170SAPE   O1219193   6.902   0.582   6.183 -0.1189 -0.1610  0.6534
  170SAPE   O1119194   7.125   0.611   6.280 -0.1498  0.1727 -0.0685
  170SAPE    C119195   7.253   0.557   6.314  0.6277  0.1318  0.1432
  170SAPE    HA19196   7.235   0.453   6.349 -0.7366  0.2156 -0.2459
  170SAPE    HB19197   7.330   0.565   6.234  1.4126  2.5355  1.0289
  170SAPE    C219198   7.327   0.644   6.432  0.5032  0.1503  0.4457
  170SAPE    HS19199   7.435   0.620   6.440  1.2843  2.6948 -1.0055
  170SAPE   O2119200   7.268   0.629   6.561  0.2120 -0.5683 -0.6310
  170SAPE   C2119201   7.305   0.517   6.620  0.0997  0.6352 -0.2184
  170SAPE   O2219202   7.379   0.433   6.568  0.6333 -0.0125 -0.3497
  170SAPE   C2219203   7.250   0.504   6.759 -0.4054 -0.1370  0.0602
  170SAPE   H2R19204   7.145   0.473   6.740 -0.5372  0.1507  0.2986
  170SAPE   H2S19205   7.313   0.425   6.804  2.6312  2.2720  0.3822
  170SAPE    C319206   7.331   0.794   6.398 -0.1856  0.0963  0.2616
  170SAPE    HX19207   7.227   0.830   6.379  0.3175  1.7327  0.3760
  170SAPE    HY19208   7.389   0.810   6.304  0.8757  1.7083  1.1245
  170SAPE   O3119209   7.379   0.866   6.511 -0.2921  0.1466  0.1257
  170SAPE   C3119210   7.508   0.865   6.529  0.0778  1.0716 -0.8951
  170SAPE   O3219211   7.590   0.792   6.474  0.3228  0.1971 -0.0058
  170SAPE   C3219212   7.526   0.960   6.647 -0.0780  0.6797 -0.1126
  170SAPE   H2X19213   7.430   0.956   6.703 -0.7369 -1.2701 -1.3016
  170SAPE   H2Y19214   7.531   1.063   6.606 -0.9602  0.3988 -0.9592
  170SAPE   C2319215   7.271   0.634   6.839 -0.8431  0.1966 -0.4403
  170SAPE   H3R19216   7.312   0.718   6.779 -0.8309  1.2812  1.0127
  170SAPE   H3S19217   7.351   0.601   6.909  0.6751  1.9450 -1.2674
  170SAPE   C2419218   7.146   0.680   6.917  0.1920 -0.4245 -0.8435
  170SAPE   H4R19219   7.131   0.603   6.996  0.4158 -3.3152 -3.4235
  170SAPE   H4S19220   7.060   0.688   6.848  0.1852 -0.1707 -0.8089
  170SAPE   C2519221   7.167   0.812   6.986 -0.3515  0.2704 -0.6001
  170SAPE   H5R19222   7.149   0.899   6.922 -0.9464 -0.7901 -1.9140
  170SAPE   C2619223   7.200   0.837   7.112 -0.5008 -0.0279  0.0530
  170SAPE   H6R19224   7.198   0.941   7.147 -0.7839  0.0838 -0.2914
  170SAPE   C2719225   7.228   0.738   7.220 -0.2155 -0.2971  0.0708
  170SAPE   H7R19226   7.238   0.636   7.178  0.1824 -0.6734  1.0572
  170SAPE   H7S19227   7.150   0.740   7.299  0.5451  2.0767  0.8479
  170SAPE   C2819228   7.356   0.770   7.280 -0.1156  0.4766 -0.0182
  170SAPE   H8R19229   7.441   0.728   7.225 -0.7867 -0.4780 -0.3588
  170SAPE   C2919230   7.387   0.853   7.384 -0.3583 -0.3232 -0.7473
  170SAPE   H9R19231   7.491   0.868   7.417 -0.4967 -1.0922  0.0595
  170SAPE  C21019232   7.283   0.930   7.465  0.8275  0.8714  0.0647
  170SAPE  H10R19233   7.224   0.851   7.517  0.3166 -0.2843 -2.1542
  170SAPE  H10S19234   7.222   0.985   7.391  0.9412 -0.0365 -0.7159
  170SAPE  C21119235   7.346   1.037   7.560  0.5446  0.5037  0.1239
  170SAPE  H11R19236   7.400   1.119   7.509 -0.2174  0.0753 -1.4392
  170SAPE  C21219237   7.348   1.024   7.693  0.3119 -0.2191 -0.4634
  170SAPE  H12R19238   7.401   1.102   7.750 -2.1348 -0.0841  1.8172
  170SAPE  C21319239   7.291   0.921   7.780  0.0096  0.1224 -0.3289
  170SAPE  H13R19240   7.202   0.874   7.732  0.0979  1.4329 -1.8863
  170SAPE  H13S19241   7.241   0.982   7.859  0.5616  0.8176 -0.5082
  170SAPE  C21419242   7.383   0.823   7.833 -0.5016 -0.0015  0.8295
  170SAPE  H14R19243   7.490   0.845   7.826 -0.5615  0.2320  0.6202
  170SAPE  C21519244   7.352   0.715   7.905  0.7330 -0.1649  0.7925
  170SAPE  H15R19245   7.438   0.657   7.941  2.1331  1.3911  0.0920
  170SAPE  C21619246   7.221   0.671   7.964  0.5241 -0.3079  0.8821
  170SAPE  H16R19247   7.135   0.732   7.930 -1.3114 -3.1323  0.0298
  170SAPE  H16S19248   7.241   0.683   8.073  0.1765 -0.8888  1.0172
  170SAPE  C21719249   7.197   0.523   7.940  0.4915 -0.3160 -0.1979
  170SAPE  H17R19250   7.194   0.499   7.832  0.1455 -1.0330 -0.0316
  170SAPE  H17S19251   7.094   0.506   7.977 -0.3022  1.7858 -1.2405
  170SAPE  C21819252   7.304   0.430   8.002  0.5486  0.4061  0.0482
  170SAPE  H18R19253   7.389   0.412   7.933  0.4856  2.8783 -0.7524
  170SAPE  H18S19254   7.249   0.334   8.002 -0.7772  1.1448 -0.1703
  170SAPE  C21919255   7.328   0.454   8.149  0.1410 -0.1270  0.1919
  170SAPE  H19R19256   7.245   0.504   8.204  0.6466  3.3316 -1.9239
  170SAPE  H19S19257   7.405   0.532   8.167  1.2509 -1.1947  0.2387
  170SAPE  C22019258   7.366   0.325   8.225  0.0078 -0.0350  0.1272
  170SAPE  H20R19259   7.421   0.274   8.142 -2.4755 -0.0956 -1.5836
  170SAPE  H20S19260   7.281   0.259   8.253  0.8716 -0.8851  0.8439
  170SAPE  H20T19261   7.426   0.346   8.316  0.9009  0.2970 -0.5185
  170SAPE   C3319262   7.644   0.919   6.749 -0.6139  0.1499 -0.3474
  170SAPE   H3X19263   7.745   0.904   6.704  0.6856 -0.6692  2.6019
  170SAPE   H3Y19264   7.614   0.825   6.800 -0.0586  1.9935  3.7513
  170SAPE   C3419265   7.644   1.028   6.861 -0.0481 -0.7378 -1.1021
  170SAPE   H4X19266   7.541   1.053   6.893  0.6417  1.4910 -0.3864
  170SAPE   H4Y19267   7.688   1.119   6.814  0.3393 -0.9652 -1.1869
  170SAPE   C3519268   7.712   0.980   6.991 -0.5851  0.0940 -0.2273
  170SAPE   H5X19269   7.788   0.904   6.966 -1.8954 -1.1419 -0.5449
  170SAPE   H5Y19270   7.638   0.928   7.055  1.8166 -0.2396  2.4877
  170SAPE   C3619271   7.765   1.087   7.081  0.5036  0.6435 -0.6740
  170SAPE   H6X19272   7.722   1.188   7.062 -1.0072  0.0753 -0.3935
  170SAPE   H6Y19273   7.873   1.093   7.054  0.4566  0.5182 -0.8924
  170SAPE   C3719274   7.755   1.059   7.229  0.5135 -0.2143 -0.4963
  170SAPE   H7X19275   7.772   0.950   7.242  1.1823  0.0276  0.8229
  170SAPE   H7Y19276   7.655   1.092   7.265  0.8583 -0.0580  0.3599
  170SAPE   C3819277   7.864   1.136   7.315 -0.3817  0.6149  0.1036
  170SAPE   H8X19278   7.821   1.236   7.288  0.5110  0.2522 -3.1129
  170SAPE   H8Y19279   7.968   1.124   7.277 -0.5162 -1.4195  0.2741
  170SAPE   C3919280   7.847   1.116   7.466  0.0201 -0.9625 -0.3606
  170SAPE   H9X19281   7.888   1.017   7.494  0.2569 -0.8282 -0.2282
  170SAPE   H9Y19282   7.737   1.116   7.477 -0.1233  0.3608 -1.4189
  170SAPE  C31019283   7.907   1.222   7.553  0.7776  0.2981  0.8168
  170SAPE  H10X19284   7.856   1.318   7.530 -0.0737  0.1716  2.1073
  170SAPE  H10Y19285   8.015   1.235   7.531  0.5520  0.3590 -0.3620
  170SAPE  C31119286   7.874   1.181   7.694  0.2227 -0.3198  0.0085
  170SAPE  H11X19287   7.954   1.230   7.755  0.3115  1.1219 -1.1997
  170SAPE  H11Y19288   7.890   1.072   7.704 -1.3310 -0.9469 -3.1854
  170SAPE  C31219289   7.737   1.233   7.743  0.2140  0.5503 -0.6643
  170SAPE  H12X19290   7.682   1.161   7.679  2.0496 -1.2601 -0.2882
  170SAPE  H12Y19291   7.713   1.336   7.709 -1.2099 -0.1826 -2.0045
  170SAPE  C31319292   7.715   1.190   7.890 -0.8031  0.1624 -0.7400
  170SAPE  H13X19293   7.630   1.249   7.931 -0.7715 -0.6728  0.5936
  170SAPE  H13Y19294   7.806   1.223   7.945 -0.0640 -1.3934 -0.9819
  170SAPE  C31419295   7.701   1.036   7.925 -1.4420  0.4701 -1.0499
  170SAPE  H14X19296   7.801   0.998   7.956 -0.7265  2.0396 -1.3650
  170SAPE  H14Y19297   7.661   0.979   7.838 -0.4432  2.8087 -3.1651
  170SAPE  C31519298   7.619   1.035   8.050  0.2689  0.6671  0.0103
  170SAPE  H15X19299   7.514   1.053   8.018 -0.3334  0.9772  2.0288
  170SAPE  H15Y19300   7.649   1.115   8.121 -0.5470  1.7847 -0.8548
  170SAPE  C31619301   7.619   0.903   8.127 -0.4406  0.0817 -0.3087
  170SAPE  H16X19302   7.726   0.877   8.139  0.1030  1.7119 -1.3764
  170SAPE  H16Y19303   7.580   0.823   8.059 -1.5084  0.2373  0.1010
  170SAPE  C31719304   7.532   0.917   8.252 -0.3617  0.0143 -0.1008
  170SAPE  H17X19305   7.429   0.955   8.237 -0.8551 -0.1195  2.5104
  170SAPE  H17Y19306   7.592   0.984   8.317  0.0130 -0.2629 -0.1537
  170SAPE  C31819307   7.535   0.788   8.335  0.5108  0.7373  0.4945
  170SAPE  H18X19308   7.511   0.799   8.443 -2.1325 -2.8247  0.4555
  170SAPE  H18Y19309   7.639   0.751   8.324  0.5556  1.4434 -1.9952
  170SAPE  H18Z19310   7.472   0.708   8.291  1.4125 -0.0862  0.6575
  171SAPE     N19311   0.145   0.970   6.087  0.0858  0.2259 -0.0872
  171SAPE   HN119312   0.129   0.885   6.030 -3.5828 -0.6511  1.8735
  171SAPE   HN219313   0.244   0.999   6.081 -0.0721  0.6539 -0.7571
  171SAPE   HN319314   0.136   0.930   6.183 -1.1268 -0.2115 -0.3587
  171SAPE   C1219315   0.047   1.081   6.061  0.1183  0.6324  0.5907
  171SAPE  H12A19316  -0.056   1.048   6.083 -0.2791  1.1552 -0.4545
  171SAPE  H12B19317   0.047   1.106   5.953 -1.6410 -1.3760  0.0510
  171SAPE   C1119318   0.087   1.199   6.154  0.2186  0.3652  0.3114
  171SAPE  H11A19319   0.172   1.245   6.099  0.8837 -3.5941 -2.4294
  171SAPE  H11B19320   0.145   1.177   6.246  2.6434  2.0387 -0.7241
  171SAPE     P19321  -0.151   1.284   6.234 -0.4617  0.4311  0.0060
  171SAPE   O1319322  -0.248   1.370   6.172  0.2238 -0.5395  0.1311
  171SAPE   O1419323  -0.185   1.139   6.240 -0.3332  0.3266  0.4541
  171SAPE   O1219324  -0.014   1.299   6.171 -0.2651  0.2035 -0.5262
  171SAPE   O1119325  -0.122   1.338   6.383  0.5743 -0.5896  0.4983
  171SAPE    C119326  -0.081   1.242   6.475  0.2481  0.5546  0.2668
  171SAPE    HA19327  -0.161   1.169   6.502  0.5390 -0.6327 -1.8603
  171SAPE    HB19328   0.004   1.181   6.439 -0.5451 -0.3452 -0.1222
  171SAPE    C219329  -0.024   1.311   6.604 -0.6289 -1.2037  0.4709
  171SAPE    HS19330  -0.115   1.355   6.649  0.3794  1.7406 -0.1758
  171SAPE   O2119331   0.073   1.415   6.569  0.7056 -0.1166 -0.8862
  171SAPE   C2119332   0.058   1.530   6.640  0.3257 -0.3243  0.2630
  171SAPE   O2219333  -0.029   1.549   6.721  0.4721 -0.4542  0.3159
  171SAPE   C2219334   0.159   1.631   6.596  0.2632 -0.4665 -0.6430
  171SAPE   H2R19335   0.226   1.595   6.515 -1.2657 -1.1185 -1.6388
  171SAPE   H2S19336   0.095   1.712   6.556 -0.9610 -1.9027 -1.6861
  171SAPE    C319337   0.035   1.206   6.705  0.2514 -0.3820  0.4517
  171SAPE    HX19338   0.117   1.155   6.649 -1.9509 -0.9155 -2.5060
  171SAPE    HY19339  -0.050   1.138   6.727  1.2818 -1.1357  2.2991
  171SAPE   O3119340   0.077   1.271   6.824  0.1626  0.3706 -0.1733
  171SAPE   C3119341   0.112   1.190   6.916  0.1602 -0.1808  0.2291
  171SAPE   O3219342   0.131   1.067   6.906 -0.1263 -0.2180  0.0288
  171SAPE   C3219343   0.134   1.278   7.031  0.2130 -0.4775 -0.4524
  171SAPE   H2X19344   0.062   1.363   7.027 -0.8467 -1.3834 -1.1697
  171SAPE   H2Y19345   0.231   1.332   7.029  0.0884 -0.2077  0.2256
  171SAPE   C2319346   0.224   1.698   6.711  0.8993  0.4823 -0.0683
  171SAPE   H3R19347   0.143   1.734   6.778 -0.6554 -3.1094  0.2305
  171SAPE   H3S19348   0.279   1.784   6.669 -1.4995  2.2630  0.1931
  171SAPE   C2419349   0.325   1.608   6.780 -0.0471 -0.0236 -0.1162
  171SAPE   H4R19350   0.387   1.558   6.703  1.9220  1.2929  0.5366
  171SAPE   H4S19351   0.264   1.533   6.834  1.7165 -2.0177 -0.7639
  171SAPE   C2519352   0.426   1.675   6.866 -0.8618 -0.3344 -0.4803
  171SAPE   H5R19353   0.499   1.739   6.815 -0.7784 -0.5204 -0.5953
  171SAPE   C2619354   0.433   1.684   7.000 -0.4065 -1.1139 -0.2222
  171SAPE   H6R19355   0.504   1.750   7.051 -2.5526  0.2070  1.2414
  171SAPE   C2719356   0.337   1.632   7.108  0.2747  0.6053  0.0850
  171SAPE   H7R19357   0.393   1.624   7.204 -1.3235 -0.1791  1.0027
  171SAPE   H7S19358   0.318   1.524   7.090  2.2138  0.0918  0.8749
  171SAPE   C2819359   0.207   1.705   7.130  0.5196  0.1552  0.1730
  171SAPE   H8R19360   0.162   1.740   7.036 -0.0969 -2.7662 -0.7253
  171SAPE   C2919361   0.141   1.712   7.243  0.0171  0.2153  0.0155
  171SAPE   H9R19362   0.048   1.772   7.242 -1.6884 -2.2492 -0.8006
  171SAPE  C21019363   0.178   1.660   7.382 -0.0730 -0.2177 -0.4361
  171SAPE  H10R19364   0.266   1.592   7.385 -1.3383 -1.9230 -0.4298
  171SAPE  H10S19365   0.094   1.596   7.416 -0.6227 -1.7610 -4.2118
  171SAPE  C21119366   0.195   1.784   7.476  0.1325 -0.1252 -0.4516
  171SAPE  H11R19367   0.275   1.856   7.454 -1.0836  1.5020  0.2171
  171SAPE  C21219368   0.109   1.807   7.577  0.4927 -0.0688 -0.6526
  171SAPE  H12R19369   0.128   1.893   7.643 -1.8668  1.3794 -1.7331
  171SAPE  C21319370  -0.014   1.726   7.615  0.0459  0.2791  0.3341
  171SAPE  H13R19371   0.012   1.640   7.680  0.0880  0.3922  0.4679
  171SAPE  H13S19372  -0.059   1.697   7.518  1.4069  0.9095 -0.5179
  171SAPE  C21419373  -0.113   1.819   7.679 -0.5753  0.1408  0.2137
  171SAPE  H14R19374  -0.156   1.892   7.610 -1.9615 -2.8507 -2.3500
  171SAPE  C21519375  -0.144   1.821   7.810  0.2686 -0.0986 -0.1528
  171SAPE  H15R19376  -0.203   1.903   7.854 -1.8746 -0.9770 -1.2524
  171SAPE  C21619377  -0.098   1.719   7.919 -0.3316 -0.6848  0.7058
  171SAPE  H16R19378  -0.072   1.618   7.883 -4.6143 -1.4451 -0.7710
  171SAPE  H16S19379  -0.176   1.697   7.994  0.5769 -0.9279  1.6071
  171SAPE  C21719380   0.018   1.792   7.993 -0.1664  0.2793 -0.9615
  171SAPE  H17R19381  -0.019   1.883   8.045 -0.0439 -0.4571  0.4773
  171SAPE  H17S19382   0.087   1.838   7.919 -0.5832  3.3513  0.4223
  171SAPE  C21819383   0.098   1.699   8.095 -0.2015  0.5982  0.6677
  171SAPE  H18R19384   0.125   1.600   8.051  0.5834 -0.2501  2.9174
  171SAPE  H18S19385   0.034   1.682   8.184  0.2743  2.0169  1.3095
  171SAPE  C21919386   0.228   1.752   8.151 -0.4176 -0.8001 -0.7033
  171SAPE  H19R19387   0.199   1.824   8.230  1.1146 -0.9756  0.0462
  171SAPE  H19S19388   0.291   1.799   8.072  1.8335 -1.0335  0.8606
  171SAPE  C22019389   0.307   1.639   8.216  0.2526  0.2667 -0.4853
  171SAPE  H20R19390   0.395   1.675   8.273 -0.0551 -2.3339  1.7984
  171SAPE  H20S19391   0.357   1.584   8.133 -0.6931 -0.7169 -0.4359
  171SAPE  H20T19392   0.247   1.566   8.274  0.1355 -0.1227 -1.0848
  171SAPE   C3319393   0.100   1.207   7.172  0.2883 -0.8714  0.3620
  171SAPE   H3X19394   0.169   1.120   7.170  2.6212  0.8714  0.0045
  171SAPE   H3Y19395  -0.001   1.161   7.167 -0.5152  0.6886  1.2387
  171SAPE   C3419396   0.118   1.306   7.290 -0.6937  0.0486 -0.0571
  171SAPE   H4X19397   0.025   1.362   7.311 -0.2719  1.4932 -1.7750
  171SAPE   H4Y19398   0.202   1.375   7.266 -1.8390  1.2266 -0.7889
  171SAPE   C3519399   0.156   1.240   7.423 -0.0785 -0.6738  0.1074
  171SAPE   H5X19400   0.178   1.321   7.495 -1.4307 -0.3411  0.1698
  171SAPE   H5Y19401   0.246   1.178   7.406 -0.3811 -1.2085  0.4047
  171SAPE   C3619402   0.053   1.143   7.479  0.5766  0.2599  0.8069
  171SAPE   H6X19403   0.036   1.061   7.406 -3.1721  0.2664  1.4640
  171SAPE   H6Y19404  -0.046   1.192   7.491  0.9957  1.2135  0.4576
  171SAPE   C3719405   0.108   1.080   7.609  0.0297  0.2582 -0.0407
  171SAPE   H7X19406   0.199   1.019   7.594  1.1820  2.2488 -1.7488
  171SAPE   H7Y19407   0.022   1.016   7.638  0.3675 -1.4591 -2.5557
  171SAPE   C3819408   0.150   1.178   7.720  1.2295 -0.6767 -0.0450
  171SAPE   H8X19409   0.236   1.240   7.687 -0.4016  0.3884 -2.5773
  171SAPE   H8Y19410   0.162   1.112   7.809  0.1033 -1.3563 -0.3749
  171SAPE   C3919411   0.038   1.284   7.760 -0.2684  0.1226 -0.4696
  171SAPE   H9X19412  -0.060   1.233   7.766  0.3542 -1.1456 -0.6943
  171SAPE   H9Y19413   0.034   1.352   7.672  0.1022  0.7092 -0.0346
  171SAPE  C31019414   0.069   1.360   7.896  0.1099  0.0081  0.5550
  171SAPE  H10X19415  -0.027   1.406   7.926 -0.6634 -1.1173 -0.1102
  171SAPE  H10Y19416   0.149   1.434   7.873  0.7144 -1.1296 -1.2244
  171SAPE  C31119417   0.109   1.273   8.027  1.3320 -0.3175 -0.1660
  171SAPE  H11X19418   0.160   1.343   8.097  0.3005 -0.2115  0.4913
  171SAPE  H11Y19419   0.185   1.202   7.988  0.2398 -1.5637 -0.0756
  171SAPE  C31219420  -0.012   1.199   8.087  0.2932  0.4501 -0.0918
  171SAPE  H12X19421  -0.059   1.123   8.021 -1.7724 -0.8144  2.6610
  171SAPE  H12Y19422  -0.084   1.283   8.095 -0.6360 -0.2842 -0.5907
  171SAPE  C31319423   0.017   1.125   8.217 -0.0946  0.8124 -0.0946
  171SAPE  H13X19424   0.058   1.194   8.293  0.4586 -0.9082  1.2170
  171SAPE  H13Y19425   0.089   1.043   8.198  0.6245  0.8234  2.2736
  171SAPE  C31419426  -0.103   1.044   8.258 -0.1028 -1.0601  0.0874
  171SAPE  H14X19427  -0.137   0.982   8.172  0.5513 -0.8477 -0.3331
  171SAPE  H14Y19428  -0.183   1.120   8.267  2.1039  1.4691 -0.5557
  171SAPE  C31519429  -0.074   0.969   8.382 -0.0082 -0.0464 -0.1022
  171SAPE  H15X19430  -0.068   1.046   8.462  1.8025 -0.2468  0.0039
  171SAPE  H15Y19431   0.023   0.915   8.383  0.3572  0.5879 -0.4681
  171SAPE  C31619432  -0.200   0.885   8.408 -0.0339 -0.5241  0.2150
  171SAPE  H16X19433  -0.183   0.802   8.337 -2.2316 -0.3338 -0.6265
  171SAPE  H16Y19434  -0.287   0.940   8.366  0.0526  0.8439  1.6953
  171SAPE  C31719435  -0.227   0.843   8.552 -0.4363 -0.1567  0.0352
  171SAPE  H17X19436  -0.135   0.797   8.595 -0.2361  0.9658  0.8428
  171SAPE  H17Y19437  -0.307   0.766   8.550 -0.0154 -0.6517  1.2353
  171SAPE  C31819438  -0.275   0.963   8.639  0.3496  0.1013  0.5448
  171SAPE  H18X19439  -0.367   1.010   8.600  1.6595  1.0498 -1.5355
  171SAPE  H18Y19440  -0.201   1.046   8.634 -1.8134  2.0442 -1.0413
  171SAPE  H18Z19441  -0.290   0.926   8.743 -0.0457 -1.0846  0.0882
  172SAPE     N19442   1.354   6.657   6.349  0.0447 -0.1685  0.2291
  172SAPE   HN119443   1.256   6.627   6.335  0.6413 -1.7953 -0.6504
  172SAPE   HN219444   1.403   6.675   6.259  0.9750 -2.0807  0.2969
  172SAPE   HN319445   1.397   6.570   6.386 -0.9678 -1.5072 -1.6398
  172SAPE   C1219446   1.373   6.768   6.444  0.2563  0.0822 -0.0112
  172SAPE  H12A19447   1.336   6.735   6.543  1.5322 -0.6628  0.2499
  172SAPE  H12B19448   1.314   6.857   6.413 -0.1300 -0.1077  0.1745
  172SAPE   C1119449   1.528   6.800   6.451 -0.2296  0.0186  0.7343
  172SAPE  H11A19450   1.569   6.708   6.497 -1.3579 -0.5810  0.5713
  172SAPE  H11B19451   1.525   6.878   6.530  2.8302 -1.6932  2.7420
  172SAPE     P19452   1.627   6.974   6.283 -0.0345 -0.2763  0.0950
  172SAPE   O1319453   1.658   6.987   6.139 -0.2955 -0.2744  0.6515
  172SAPE   O1419454   1.508   7.054   6.329 -0.8785 -0.1608 -0.5367
  172SAPE   O1219455   1.595   6.832   6.326  0.5581  0.6052 -0.0670
  172SAPE   O1119456   1.759   7.008   6.367  0.2105 -0.0699  0.8144
  172SAPE    C119457   1.784   7.148   6.412  1.0059 -0.2465 -0.9304
  172SAPE    HA19458   1.889   7.176   6.389  0.7956  0.8901 -0.5608
  172SAPE    HB19459   1.713   7.223   6.370 -0.7647 -0.9944  0.5847
  172SAPE    C219460   1.767   7.160   6.574  0.2402  0.7305 -0.5676
  172SAPE    HS19461   1.842   7.237   6.604 -0.6578  1.1104  0.7414
  172SAPE   O2119462   1.788   7.033   6.643  0.0953 -0.3075 -0.0057
  172SAPE   C2119463   1.915   6.987   6.623 -0.3135  0.4905  0.0002
  172SAPE   O2219464   2.008   7.052   6.579 -0.1951 -0.3539  0.2381
  172SAPE   C2219465   1.917   6.845   6.682  0.0465  1.5705  0.8400
  172SAPE   H2R19466   1.877   6.772   6.608  2.7392 -0.4714  1.2325
  172SAPE   H2S19467   2.019   6.812   6.711 -1.2184 -1.9444  1.6953
  172SAPE    C319468   1.631   7.217   6.615 -0.1277  0.1307 -0.7993
  172SAPE    HX19469   1.567   7.126   6.613  0.4980 -0.5108  2.3932
  172SAPE    HY19470   1.592   7.289   6.541 -1.4143 -1.6206 -1.9094
  172SAPE   O3119471   1.637   7.284   6.747  0.3599  0.3447 -0.2282
  172SAPE   C3119472   1.593   7.207   6.843 -0.3646  0.2542  0.6298
  172SAPE   O3219473   1.541   7.097   6.829  0.1758 -0.1581  0.0850
  172SAPE   C3219474   1.632   7.274   6.977  0.1369 -0.4129  0.2385
  172SAPE   H2X19475   1.651   7.383   6.963 -2.0867  0.0180  0.2707
  172SAPE   H2Y19476   1.725   7.222   7.007 -0.7553 -0.9250  2.2474
  172SAPE   C2319477   1.831   6.813   6.808  0.5384  0.3293  0.3892
  172SAPE   H3R19478   1.824   6.702   6.808  0.9734  0.2240  3.4310
  172SAPE   H3S19479   1.727   6.850   6.803 -0.4160 -2.2159 -0.3307
  172SAPE   C2419480   1.916   6.841   6.938 -0.3170 -0.1926 -0.2626
  172SAPE   H4R19481   1.971   6.936   6.926  0.6373 -0.5509  0.9650
  172SAPE   H4S19482   2.002   6.771   6.939  0.9897  1.3658  0.8069
  172SAPE   C2519483   1.825   6.825   7.065 -0.1388  0.0037  0.2723
  172SAPE   H5R19484   1.773   6.907   7.117 -0.8227 -1.6143  2.2735
  172SAPE   C2619485   1.810   6.706   7.125 -0.6017 -0.0147 -0.7082
  172SAPE   H6R19486   1.743   6.698   7.212 -0.0823 -1.4483 -0.4000
  172SAPE   C2719487   1.868   6.569   7.088 -0.2262 -0.5814 -0.3836
  172SAPE   H7R19488   1.951   6.559   7.161  1.7469 -0.8404 -2.5433
  172SAPE   H7S19489   1.915   6.581   6.988  0.0298 -0.3864 -0.2404
  172SAPE   C2819490   1.768   6.457   7.077 -0.1675  0.5342 -0.5959
  172SAPE   H8R19491   1.729   6.446   6.975  0.6969 -1.6926 -0.7459
  172SAPE   C2919492   1.729   6.383   7.182 -0.1736 -0.2126  0.7196
  172SAPE   H9R19493   1.644   6.315   7.175  0.1127 -0.6409  1.3183
  172SAPE  C21019494   1.783   6.397   7.325  0.3068  0.4797  0.8243
  172SAPE  H10R19495   1.805   6.501   7.357 -2.7130  2.4398 -2.5744
  172SAPE  H10S19496   1.878   6.341   7.330  0.8279  1.3154  0.4460
  172SAPE  C21119497   1.690   6.329   7.428 -0.6399 -0.2577  0.2345
  172SAPE  H11R19498   1.704   6.225   7.460 -2.1751 -0.3002  0.8429
  172SAPE  C21219499   1.593   6.392   7.495  0.5233 -0.2179 -1.2218
  172SAPE  H12R19500   1.542   6.338   7.576  0.3171 -0.0037 -1.2060
  172SAPE  C21319501   1.556   6.537   7.483  0.4978 -0.4089 -0.2679
  172SAPE  H13R19502   1.447   6.543   7.465  0.5756 -1.1531 -1.0555
  172SAPE  H13S19503   1.605   6.573   7.391  0.6989 -0.0629 -0.0289
  172SAPE  C21419504   1.599   6.625   7.598  0.8573 -0.4227  0.1784
  172SAPE  H14R19505   1.599   6.587   7.702 -0.3602 -0.0641  0.3247
  172SAPE  C21519506   1.653   6.750   7.593 -0.1678  0.2025 -0.3496
  172SAPE  H15R19507   1.704   6.788   7.683  1.5569  1.3041 -1.7263
  172SAPE  C21619508   1.668   6.833   7.469 -0.0122  0.3715 -0.0724
  172SAPE  H16R19509   1.626   6.936   7.477 -1.3897  0.0507 -2.2838
  172SAPE  H16S19510   1.611   6.787   7.385  2.1356 -1.2711 -0.7070
  172SAPE  C21719511   1.813   6.850   7.420  0.4464 -0.1676  0.4909
  172SAPE  H17R19512   1.827   6.921   7.336  0.0305  0.0960  0.6466
  172SAPE  H17S19513   1.849   6.753   7.378  1.3552  0.0558  0.7236
  172SAPE  C21819514   1.921   6.889   7.526 -0.6148 -0.3876 -0.5668
  172SAPE  H18R19515   1.920   6.806   7.600 -2.2038  2.2953  2.7068
  172SAPE  H18S19516   1.875   6.971   7.585 -1.0490 -1.6467  0.9273
  172SAPE  C21919517   2.059   6.922   7.474 -0.5491 -0.6691  0.8217
  172SAPE  H19R19518   2.110   6.847   7.409 -0.3469  0.2267 -0.0892
  172SAPE  H19S19519   2.124   6.934   7.563  0.0241 -1.2583  0.4985
  172SAPE  C22019520   2.066   7.061   7.397 -0.5523  0.4623 -0.0232
  172SAPE  H20R19521   2.172   7.094   7.406  0.0281 -1.6449  1.8104
  172SAPE  H20S19522   1.990   7.130   7.437  0.2389  1.8475 -0.8276
  172SAPE  H20T19523   2.035   7.045   7.291 -0.0136  1.0129 -0.2716
  172SAPE   C3319524   1.539   7.268   7.097  0.3402  0.3533 -0.5136
  172SAPE   H3X19525   1.524   7.157   7.101  0.7088  0.2297 -1.8942
  172SAPE   H3Y19526   1.444   7.315   7.063 -0.4595 -1.1084 -0.3911
  172SAPE   C3419527   1.596   7.326   7.232  0.4902  0.2055 -0.0211
  172SAPE   H4X19528   1.592   7.436   7.244 -2.5881 -0.1527  3.9090
  172SAPE   H4Y19529   1.701   7.289   7.239  1.3009  2.3931 -0.0544
  172SAPE   C3519530   1.519   7.267   7.352  0.3380 -0.2702 -0.6844
  172SAPE   H5X19531   1.522   7.156   7.364  0.6865 -0.0328  1.9212
  172SAPE   H5Y19532   1.411   7.284   7.333  0.1777  0.3805  0.6874
  172SAPE   C3619533   1.551   7.339   7.488  0.2675 -0.4740  0.8126
  172SAPE   H6X19534   1.460   7.352   7.550 -0.9779  0.5359 -1.1084
  172SAPE   H6Y19535   1.593   7.437   7.456 -1.2270 -0.5237 -1.6156
  172SAPE   C3719536   1.659   7.271   7.573  0.5217  0.9077  0.6121
  172SAPE   H7X19537   1.746   7.251   7.506 -1.3879 -3.5735 -0.9394
  172SAPE   H7Y19538   1.618   7.171   7.601  0.8797  0.5794 -0.0214
  172SAPE   C3819539   1.691   7.344   7.702  0.4891 -0.1747 -0.0079
  172SAPE   H8X19540   1.692   7.453   7.679  1.5219  0.1717  1.5350
  172SAPE   H8Y19541   1.794   7.331   7.743  1.0566  0.8963 -1.0417
  172SAPE   C3919542   1.611   7.307   7.827  0.5557 -0.3952 -0.6562
  172SAPE   H9X19543   1.620   7.196   7.830  1.8120 -0.3675 -2.2314
  172SAPE   H9Y19544   1.503   7.327   7.814  0.3494  0.7346  2.1393
  172SAPE  C31019545   1.655   7.363   7.963  0.0150  0.1227  0.3521
  172SAPE  H10X19546   1.630   7.471   7.964 -1.5331 -0.1996 -0.2492
  172SAPE  H10Y19547   1.761   7.352   7.993 -0.0481  0.3642  0.6661
  172SAPE  C31119548   1.570   7.301   8.071  0.5147  0.1318  0.0565
  172SAPE  H11X19549   1.552   7.192   8.063 -3.4824  0.7700 -2.4501
  172SAPE  H11Y19550   1.472   7.353   8.073  0.7201  0.5410 -0.3418
  172SAPE  C31219551   1.636   7.311   8.209  0.0779 -0.2894  0.5357
  172SAPE  H12X19552   1.741   7.275   8.196 -0.0177 -0.2733 -0.3207
  172SAPE  H12Y19553   1.582   7.250   8.285 -0.5893  0.3829  0.6072
  172SAPE  C31319554   1.628   7.453   8.266  0.6613 -0.0082 -0.3066
  172SAPE  H13X19555   1.523   7.475   8.292  0.0699 -3.6676  0.9645
  172SAPE  H13Y19556   1.655   7.520   8.182 -0.8374  1.1685  0.1236
  172SAPE  C31419557   1.700   7.477   8.394  0.2871 -0.6458  0.0387
  172SAPE  H14X19558   1.682   7.581   8.428  0.0973 -0.7748  0.3312
  172SAPE  H14Y19559   1.810   7.472   8.377  0.2695  1.0908 -0.8707
  172SAPE  C31519560   1.650   7.382   8.508  0.3673 -0.1510  0.4024
  172SAPE  H15X19561   1.693   7.283   8.479 -1.0423 -1.2849  2.0154
  172SAPE  H15Y19562   1.540   7.380   8.492  0.4961  2.6981 -1.3822
  172SAPE  C31619563   1.696   7.421   8.647  0.1718 -1.0978 -0.1925
  172SAPE  H16X19564   1.629   7.390   8.730  1.7484  0.6198  1.8288
  172SAPE  H16Y19565   1.669   7.529   8.649  1.3951 -0.6020 -3.5494
  172SAPE  C31719566   1.847   7.408   8.685  0.6013  0.2854 -0.6513
  172SAPE  H17X19567   1.878   7.457   8.779  0.6161 -2.4886  0.8957
  172SAPE  H17Y19568   1.900   7.459   8.602  2.8557 -0.2733  0.3877
  172SAPE  C31819569   1.875   7.257   8.701  0.4623 -0.9010  0.3285
  172SAPE  H18X19570   1.983   7.237   8.713  1.1890  0.8889 -2.4489
  172SAPE  H18Y19571   1.832   7.212   8.609 -2.8103  2.3352  0.0380
  172SAPE  H18Z19572   1.824   7.215   8.791 -1.3439  0.3233 -0.0556
  173SOPE     N19573   6.448   0.372  10.946 -0.1441  0.0984  0.1039
  173SOPE   HN119574   6.508   0.434  11.005  0.0773 -0.9305  0.9833
  173SOPE   HN219575   6.366   0.421  10.905 -0.7403 -0.7854  0.2119
  173SOPE   HN319576   6.421   0.299  11.015  1.6455  1.2708  2.1792
  173SOPE   C1219577   6.525   0.301  10.840  0.3285 -0.6078 -0.3736
  173SOPE  H12A19578   6.615   0.265  10.895  0.9835  0.1930 -0.8871
  173SOPE  H12B19579   6.547   0.374  10.759  0.7776 -1.1684 -0.7651
  173SOPE   C1119580   6.449   0.186  10.769 -0.3842 -0.4395 -0.3591
  173SOPE  H11A19581   6.520   0.127  10.707 -1.2234 -1.1851 -0.6220
  173SOPE  H11B19582   6.365   0.233  10.713 -0.5756  1.8445  1.6888
  173SOPE     P19583   6.276   0.014  10.830 -0.0856  0.0445 -0.5909
  173SOPE   O1319584   6.166   0.104  10.789  0.4774 -0.0824  0.2272
  173SOPE   O1419585   6.252  -0.074  10.948 -0.0510  0.2732 -0.5346
  173SOPE   O1219586   6.392   0.112  10.875 -0.2769  0.2665  0.5047
  173SOPE   O1119587   6.326  -0.071  10.715 -0.9057 -0.6592  0.5149
  173SOPE    C119588   6.447  -0.148  10.713  0.7987  0.5008 -0.4312
  173SOPE    HA19589   6.426  -0.246  10.760 -0.0309  0.0892 -1.6073
  173SOPE    HB19590   6.518  -0.084  10.770  0.5898  0.3726 -0.0247
  173SOPE    C219591   6.512  -0.166  10.580  1.3419 -0.0428 -0.0978
  173SOPE    HS19592   6.529  -0.071  10.525  1.4365 -0.6445 -1.1179
  173SOPE   O2119593   6.427  -0.257  10.504  0.3233  0.4830 -0.8050
  173SOPE   C2119594   6.321  -0.200  10.458 -0.0096 -0.0788 -0.0338
  173SOPE   O2219595   6.306  -0.079  10.438  0.4912  0.0575  0.0846
  173SOPE   C2219596   6.218  -0.308  10.406  0.2501 -0.6366 -0.1710
  173SOPE   H2R19597   6.146  -0.323  10.490  0.0915 -1.4567 -0.4383
  173SOPE   H2S19598   6.277  -0.401  10.387 -1.7647 -2.0049 -0.0893
  173SOPE    C319599   6.653  -0.221  10.593  0.0853  0.2828 -0.2772
  173SOPE    HX19600   6.652  -0.323  10.639 -2.6605  0.8284  1.0937
  173SOPE    HY19601   6.704  -0.152  10.664 -1.5332  3.0315 -1.6724
  173SOPE   O3119602   6.724  -0.218  10.469  0.3417  0.2397  0.2626
  173SOPE   C3119603   6.709  -0.324  10.393 -0.6612 -0.1369  0.1867
  173SOPE   O3219604   6.653  -0.433  10.422 -0.0641 -0.0687  0.1241
  173SOPE   C3219605   6.778  -0.312  10.252  0.5561 -0.5112  0.0516
  173SOPE   H2X19606   6.885  -0.343  10.260  0.7810 -0.2944 -1.7173
  173SOPE   H2Y19607   6.777  -0.203  10.229 -0.3130 -0.7202 -0.9586
  173SOPE   C2319608   6.159  -0.262  10.271 -0.2297  0.2993 -0.4659
  173SOPE   H3R19609   6.235  -0.248  10.191  1.4476  1.3925  1.2143
  173SOPE   H3S19610   6.113  -0.162  10.287  0.1864  0.7047 -1.6928
  173SOPE   C2419611   6.042  -0.342  10.223 -0.2008  0.4189  0.6935
  173SOPE   H4R19612   6.076  -0.447  10.215  1.9861  1.1374 -0.1065
  173SOPE   H4S19613   5.962  -0.354  10.299 -0.1481 -2.0065  0.4468
  173SOPE   C2519614   5.972  -0.299  10.094 -0.5140 -0.0437 -0.0746
  173SOPE   H5R19615   5.889  -0.370  10.072  0.9722 -1.9879  0.4146
  173SOPE   H5S19616   5.924  -0.200  10.112  1.6377  0.9575  0.4508
  173SOPE   C2619617   6.065  -0.295   9.975  0.3092  0.4499 -1.0463
  173SOPE   H6R19618   6.147  -0.224  10.000 -1.0094  1.7695 -0.3455
  173SOPE   H6S19619   6.120  -0.392   9.968 -1.1963 -0.4011 -1.5099
  173SOPE   C2719620   5.993  -0.254   9.844  0.0135  0.3070  0.1174
  173SOPE   H7R19621   5.925  -0.338   9.818  0.2207  0.5920 -1.4326
  173SOPE   H7S19622   5.930  -0.164   9.858 -0.6247 -0.0532 -0.3314
  173SOPE   C2819623   6.083  -0.230   9.722 -0.3302  0.1718 -0.1700
  173SOPE   H8R19624   6.024  -0.168   9.651  0.9052  1.7960  0.1631
  173SOPE   H8S19625   6.171  -0.174   9.759 -0.5194 -0.4944  1.3795
  173SOPE   C2919626   6.137  -0.350   9.653 -0.0946  0.0562 -1.4586
  173SOPE   H9119627   6.196  -0.419   9.716 -0.8422 -1.8364 -2.7197
  173SOPE  C21019628   6.115  -0.382   9.525  0.3137  0.0387  0.3482
  173SOPE  H10119629   6.171  -0.468   9.485 -2.1050 -0.8732 -1.2504
  173SOPE  C21119630   6.036  -0.307   9.425 -0.0939  0.1863 -0.4037
  173SOPE  H11R19631   6.027  -0.198   9.440  1.3100  0.8875 -3.7272
  173SOPE  H11S19632   5.933  -0.349   9.425 -0.2522  0.5633 -1.0592
  173SOPE  C21219633   6.080  -0.341   9.281 -0.6649 -0.3796  0.1143
  173SOPE  H12R19634   6.005  -0.278   9.228 -1.7749 -1.5794  0.2030
  173SOPE  H12S19635   6.051  -0.446   9.259 -0.4968  0.0341 -2.3682
  173SOPE  C21319636   6.226  -0.303   9.250  0.1213 -0.1405 -0.8540
  173SOPE  H13R19637   6.296  -0.343   9.326  0.1099  0.4363 -0.5396
  173SOPE  H13S19638   6.228  -0.192   9.255 -0.1834 -0.1398 -0.7061
  173SOPE  C21419639   6.242  -0.354   9.108  0.2396 -0.4624 -0.4761
  173SOPE  H14R19640   6.267  -0.462   9.119  2.3221  0.1204  1.1608
  173SOPE  H14S19641   6.333  -0.304   9.068 -0.3578 -0.3189 -1.7154
  173SOPE  C21519642   6.132  -0.335   9.005 -0.3360  0.0510  0.3028
  173SOPE  H15R19643   6.091  -0.232   8.993 -0.9055 -0.2357 -0.2446
  173SOPE  H15S19644   6.051  -0.404   9.035  1.2855 -1.4119  1.5208
  173SOPE  C21619645   6.164  -0.361   8.854 -0.4826 -0.3694  0.8796
  173SOPE  H16R19646   6.203  -0.465   8.846 -1.0080 -0.5035 -0.2516
  173SOPE  H16S19647   6.237  -0.283   8.823  0.1843 -1.2449  0.2041
  173SOPE  C21719648   6.044  -0.374   8.752  0.1621  0.8794  0.7517
  173SOPE  H17R19649   5.986  -0.279   8.754 -1.2891  0.0661 -0.5484
  173SOPE  H17S19650   5.980  -0.459   8.786 -0.9945  0.6871 -1.7129
  173SOPE  C21819651   6.088  -0.393   8.606 -0.2779 -0.3344  0.2874
  173SOPE  H18R19652   6.183  -0.451   8.597 -0.1069 -0.1790  1.0067
  173SOPE  H18S19653   6.101  -0.293   8.560  1.1443 -0.4536  0.3867
  173SOPE  H18T19654   6.009  -0.448   8.549 -0.3982  1.6326 -1.5832
  173SOPE   C3319655   6.708  -0.396  10.147 -0.0812  0.4397 -0.3722
  173SOPE   H3X19656   6.663  -0.495  10.168 -4.3431  1.9136 -1.3819
  173SOPE   H3Y19657   6.776  -0.417  10.062 -1.1696 -1.4537 -0.8416
  173SOPE   C3419658   6.583  -0.321  10.089 -0.8022 -0.5226  0.3435
  173SOPE   H4X19659   6.617  -0.228  10.040  1.4555 -0.0535  2.6280
  173SOPE   H4Y19660   6.515  -0.297  10.173 -0.3490 -1.5690  1.0288
  173SOPE   C3519661   6.503  -0.407   9.982 -0.6064 -0.2961 -0.3194
  173SOPE   H5X19662   6.400  -0.370   9.967  0.1310  2.6015  1.1153
  173SOPE   H5Y19663   6.499  -0.510  10.022  0.6210 -0.1358  0.2823
  173SOPE   C3619664   6.566  -0.414   9.841 -0.4567 -0.9182  0.0306
  173SOPE   H6X19665   6.516  -0.503   9.798 -1.0571 -0.4709 -0.2039
  173SOPE   H6Y19666   6.675  -0.438   9.838 -0.2024  0.3244 -1.3790
  173SOPE   C3719667   6.539  -0.297   9.753  0.0126 -0.2891  0.6592
  173SOPE   H7X19668   6.596  -0.211   9.794 -1.6682  0.8954  0.6150
  173SOPE   H7Y19669   6.431  -0.272   9.755 -0.1722 -0.8747 -0.5675
  173SOPE   C3819670   6.570  -0.333   9.608 -0.2340  0.0350  0.4566
  173SOPE   H8X19671   6.526  -0.432   9.582  0.0801  0.0148 -0.0066
  173SOPE   H8Y19672   6.677  -0.355   9.588 -0.2142  0.2551  0.3247
  173SOPE   C3919673   6.540  -0.211   9.514  0.1079  0.3318  0.4120
  173SOPE   H9X19674   6.590  -0.122   9.557  1.2891 -1.0260  1.9568
  173SOPE   H9Y19675   6.431  -0.189   9.514  0.3598  2.2507 -2.5025
  173SOPE  C31019676   6.595  -0.231   9.369 -0.5814  0.2671 -0.8211
  173SOPE  H10X19677   6.554  -0.327   9.333  0.2640 -1.0308  1.5039
  173SOPE  H10Y19678   6.705  -0.241   9.383 -1.0149 -2.7990  1.0970
  173SOPE  C31119679   6.551  -0.122   9.262  0.0985  0.6589  0.4193
  173SOPE  H11X19680   6.590  -0.025   9.301 -1.8884  1.8581 -0.3874
  173SOPE  H11Y19681   6.441  -0.111   9.268  0.0177  0.3592 -0.3641
  173SOPE  C31219682   6.593  -0.150   9.122  0.1962  0.4227  0.5183
  173SOPE  H12X19683   6.566  -0.249   9.080  0.9359  0.2881  0.3501
  173SOPE  H12Y19684   6.704  -0.148   9.119  0.2596 -0.4325  1.5665
  173SOPE  C31319685   6.529  -0.046   9.027  0.3933  0.2599  0.2571
  173SOPE  H13X19686   6.553   0.055   9.067  0.1437  1.0442 -1.4688
  173SOPE  H13Y19687   6.423  -0.076   9.032  0.8741 -1.9864 -1.5556
  173SOPE  C31419688   6.574  -0.052   8.872  0.1064  0.2680 -0.1161
  173SOPE  H14X19689   6.685  -0.050   8.864  0.6652  1.0336  4.6088
  173SOPE  H14Y19690   6.536   0.036   8.817  0.3091 -0.2337 -1.0777
  173SOPE  C31519691   6.524  -0.177   8.801 -0.1367  0.8142  0.6270
  173SOPE  H15X19692   6.414  -0.171   8.786 -0.1516  0.8520  0.7458
  173SOPE  H15Y19693   6.548  -0.269   8.859  0.4698  0.9474  0.5861
  173SOPE  C31619694   6.587  -0.203   8.663  0.3978  0.6969  0.4273
  173SOPE  H16X19695   6.698  -0.205   8.667  0.4397 -0.6990 -0.6905
  173SOPE  H16Y19696   6.567  -0.118   8.595  1.7031 -0.4445 -1.5005
  173SOPE  C31719697   6.534  -0.338   8.595 -0.4354 -0.1025  0.0439
  173SOPE  H17X19698   6.430  -0.316   8.565 -0.2907 -0.7681 -1.0263
  173SOPE  H17Y19699   6.541  -0.414   8.675  1.6893  0.2678  0.2840
  173SOPE  C31819700   6.615  -0.381   8.473 -0.1655 -0.0852 -0.0329
  173SOPE  H18X19701   6.717  -0.412   8.504 -0.5522 -1.9785 -0.5591
  173SOPE  H18Y19702   6.632  -0.296   8.403  0.0844 -0.7714 -0.8151
  173SOPE  H18Z19703   6.572  -0.459   8.407 -0.2477  0.8449 -1.1216
  174SOPE     N19704   6.665   4.924  11.192  0.3010 -0.3827 -0.1801
  174SOPE   HN119705   6.646   5.008  11.132  0.6769 -0.9419 -1.0971
  174SOPE   HN219706   6.609   4.850  11.146  0.6763 -0.3277 -0.7315
  174SOPE   HN319707   6.630   4.936  11.290  1.3932  0.3150  0.1414
  174SOPE   C1219708   6.812   4.904  11.199  0.0308 -1.1005  0.5754
  174SOPE  H12A19709   6.826   4.807  11.252 -4.0700 -2.8906 -1.2047
  174SOPE  H12B19710   6.855   4.984  11.262 -1.4665  2.4146 -2.4989
  174SOPE   C1119711   6.872   4.904  11.056  1.0652 -1.1350  0.7501
  174SOPE  H11A19712   6.977   4.870  11.069  1.3323 -0.5040  0.2507
  174SOPE  H11B19713   6.866   5.011  11.026 -0.6127 -0.9186  1.7156
  174SOPE     P19714   6.775   4.827  10.825 -0.5827  0.1118 -0.6182
  174SOPE   O1319715   6.629   4.839  10.811 -0.1712  0.4487 -0.0400
  174SOPE   O1419716   6.834   4.707  10.752  0.1652 -0.0651 -0.3547
  174SOPE   O1219717   6.800   4.808  10.979 -0.7031  0.1262  0.6853
  174SOPE   O1119718   6.855   4.957  10.789 -0.2773  0.3576 -0.1955
  174SOPE    C119719   6.784   5.065  10.718  0.3053  0.7012 -0.3528
  174SOPE    HA19720   6.843   5.156  10.742 -0.4598  0.8919  0.9176
  174SOPE    HB19721   6.681   5.078  10.758  0.8231  0.1947  1.2552
  174SOPE    C219722   6.803   5.050  10.564  0.0520 -0.0758  0.4035
  174SOPE    HS19723   6.762   5.142  10.516  0.4772 -0.5372 -0.8805
  174SOPE   O2119724   6.724   4.932  10.521 -0.1384  0.1409  0.7556
  174SOPE   C2119725   6.601   4.952  10.502 -0.2365 -0.2158 -0.0606
  174SOPE   O2219726   6.536   5.055  10.528  0.1524  0.1959  0.1841
  174SOPE   C2219727   6.534   4.827  10.443  0.0752  0.0501 -0.4208
  174SOPE   H2R19728   6.514   4.764  10.532 -2.9055  1.5184  0.0931
  174SOPE   H2S19729   6.607   4.783  10.373 -0.4336  1.0684 -1.6300
  174SOPE    C319730   6.942   5.041  10.520 -0.2702  0.4210 -0.0739
  174SOPE    HX19731   6.964   4.937  10.552  2.7580  0.8373 -0.5279
  174SOPE    HY19732   7.005   5.114  10.576  2.5049 -0.9008 -1.3033
  174SOPE   O3119733   6.954   5.032  10.372 -0.0543  0.0208 -0.6847
  174SOPE   C3119734   7.002   5.143  10.319 -0.3208 -0.4920 -0.0672
  174SOPE   O3219735   7.054   5.235  10.382 -0.4607  1.0801 -0.0063
  174SOPE   C3219736   7.004   5.138  10.163  0.5893  0.3109  0.2215
  174SOPE   H2X19737   6.903   5.116  10.123  0.7651  1.3868 -0.8955
  174SOPE   H2Y19738   7.076   5.059  10.133  4.3907  3.7710 -0.5626
  174SOPE   C2319739   6.396   4.858  10.380  0.4105  0.1625  0.1173
  174SOPE   H3R19740   6.331   4.917  10.448  0.7748  2.3328 -1.3303
  174SOPE   H3S19741   6.344   4.763  10.355 -0.6461  0.2290  1.8612
  174SOPE   C2419742   6.409   4.940  10.246 -0.3502 -0.9456 -0.2140
  174SOPE   H4R19743   6.307   4.933  10.202 -0.2938 -0.7944 -0.3675
  174SOPE   H4S19744   6.442   5.044  10.264  3.0319 -1.9909  0.3302
  174SOPE   C2519745   6.503   4.882  10.142  0.2104 -0.2531  0.4294
  174SOPE   H5R19746   6.610   4.909  10.160  1.3456 -1.7357 -3.1848
  174SOPE   H5S19747   6.498   4.771  10.145 -0.2889 -0.2195  0.9431
  174SOPE   C2619748   6.469   4.941  10.005 -0.6657 -0.7080  0.1400
  174SOPE   H6R19749   6.363   4.912   9.986 -1.1125  0.0711  1.3307
  174SOPE   H6S19750   6.469   5.052  10.001  0.0428 -0.7105  0.0170
  174SOPE   C2719751   6.565   4.887   9.904  0.5908 -0.3013 -0.0175
  174SOPE   H7R19752   6.668   4.929   9.918  0.5662 -0.1149 -0.3765
  174SOPE   H7S19753   6.571   4.776   9.900  2.1827 -0.2346 -3.3740
  174SOPE   C2819754   6.529   4.930   9.759 -0.3538  0.0178  0.0852
  174SOPE   H8R19755   6.421   4.913   9.737 -0.6962  1.8913  0.1567
  174SOPE   H8S19756   6.542   5.040   9.758 -0.1582  0.0038 -1.5662
  174SOPE   C2919757   6.630   4.863   9.659  0.4290  0.3787 -0.4915
  174SOPE   H9119758   6.648   4.758   9.688 -2.9417 -0.2554 -0.1749
  174SOPE  C21019759   6.692   4.913   9.556 -0.1900 -0.9025  0.2658
  174SOPE  H10119760   6.784   4.868   9.515  0.2805 -1.6634  2.0561
  174SOPE  C21119761   6.669   5.049   9.508 -0.6538  0.7500 -0.3859
  174SOPE  H11R19762   6.751   5.119   9.533  1.7824 -1.9216 -0.4206
  174SOPE  H11S19763   6.574   5.099   9.538 -0.2505  0.6910  1.0539
  174SOPE  C21219764   6.656   5.051   9.355 -0.1962 -0.2105  0.4448
  174SOPE  H12R19765   6.612   5.147   9.320  1.0679  0.0975 -0.3630
  174SOPE  H12S19766   6.592   4.965   9.329 -0.7449  0.6252 -1.1031
  174SOPE  C21319767   6.783   5.035   9.276 -0.2970  0.3694 -0.1511
  174SOPE  H13R19768   6.826   4.936   9.301  1.2984  1.0621 -0.0248
  174SOPE  H13S19769   6.856   5.113   9.307 -0.8765  0.8261  0.0985
  174SOPE  C21419770   6.750   5.038   9.125 -0.3138 -0.2708  0.6593
  174SOPE  H14R19771   6.673   5.114   9.101  0.0821 -0.1467 -0.2609
  174SOPE  H14S19772   6.708   4.937   9.103  3.5843 -1.3682 -3.2743
  174SOPE  C21519773   6.877   5.055   9.035  0.2352 -0.2308  0.4964
  174SOPE  H15R19774   6.928   4.957   9.020  1.8201  0.7699 -1.1814
  174SOPE  H15S19775   6.947   5.135   9.066 -0.1928  1.1788 -1.8687
  174SOPE  C21619776   6.853   5.095   8.885 -0.8142  0.2959  1.1858
  174SOPE  H16R19777   6.793   5.188   8.874  1.8844  1.9605 -0.5858
  174SOPE  H16S19778   6.785   5.017   8.844  0.9338 -1.0181  0.6412
  174SOPE  C21719779   6.979   5.094   8.795  0.4064  0.2037 -0.6489
  174SOPE  H17R19780   7.054   5.166   8.834  1.9845 -1.5949 -0.1913
  174SOPE  H17S19781   6.930   5.136   8.704 -1.7244  0.8179  0.7251
  174SOPE  C21819782   7.020   4.947   8.770  0.1962 -0.3953 -0.2385
  174SOPE  H18R19783   7.077   4.940   8.675 -1.3039 -1.8038 -1.0688
  174SOPE  H18S19784   6.938   4.874   8.752 -0.5889  0.6712 -1.1365
  174SOPE  H18T19785   7.081   4.905   8.853 -1.1040  1.3260  1.6851
  174SOPE   C3319786   7.044   5.265  10.094  0.2021  0.1851 -0.1215
  174SOPE   H3X19787   7.146   5.279  10.135 -0.5843  0.7547  1.7658
  174SOPE   H3Y19788   6.974   5.345  10.124  0.0638 -0.0211  0.1100
  174SOPE   C3419789   7.057   5.257   9.945 -0.1182  0.0548  0.4138
  174SOPE   H4X19790   6.950   5.258   9.915 -0.2183 -2.4628  0.4452
  174SOPE   H4Y19791   7.112   5.163   9.922  0.6091 -0.1847  2.9079
  174SOPE   C3519792   7.126   5.375   9.875  0.0435 -0.5731  0.4712
  174SOPE   H5X19793   7.234   5.369   9.900  0.1545  1.8780  0.7944
  174SOPE   H5Y19794   7.080   5.467   9.915  0.7421  1.1351 -2.3169
  174SOPE   C3619795   7.116   5.385   9.724  0.3295 -0.1397 -0.5163
  174SOPE   H6X19796   7.149   5.481   9.678  0.1130 -0.9553 -2.4516
  174SOPE   H6Y19797   7.013   5.363   9.687  0.6827 -0.2791 -1.4402
  174SOPE   C3719798   7.206   5.271   9.664  0.7785 -0.0007 -0.1987
  174SOPE   H7X19799   7.185   5.183   9.729 -1.1989 -0.8675 -1.8952
  174SOPE   H7Y19800   7.313   5.302   9.665 -0.1422  3.5560 -0.0337
  174SOPE   C3819801   7.151   5.238   9.515 -0.1144  0.8078 -0.6535
  174SOPE   H8X19802   7.048   5.197   9.518  0.7881 -1.7696 -2.0223
  174SOPE   H8Y19803   7.224   5.163   9.479 -1.0783 -0.3107 -0.3402
  174SOPE   C3919804   7.165   5.358   9.419 -0.0177  1.0573 -0.0416
  174SOPE   H9X19805   7.259   5.417   9.427 -1.3074  3.1571  0.3192
  174SOPE   H9Y19806   7.082   5.432   9.429 -0.9097  0.2198 -0.9714
  174SOPE  C31019807   7.158   5.314   9.272 -0.1505  0.5267  0.4153
  174SOPE  H10X19808   7.059   5.268   9.249 -0.0593  0.2707  0.5413
  174SOPE  H10Y19809   7.228   5.229   9.262 -1.8485 -0.9476  0.3739
  174SOPE  C31119810   7.192   5.428   9.178 -0.1676 -0.2080 -0.1411
  174SOPE  H11X19811   7.297   5.463   9.194 -0.6829  1.7414 -0.7121
  174SOPE  H11Y19812   7.127   5.515   9.201  0.6625  0.8822 -1.6908
  174SOPE  C31219813   7.185   5.393   9.036 -0.2721 -0.1917  0.6009
  174SOPE  H12X19814   7.080   5.369   9.011  0.2878 -1.3749 -0.7712
  174SOPE  H12Y19815   7.246   5.302   9.014  1.8429  1.2841  0.0274
  174SOPE  C31319816   7.240   5.505   8.947 -1.1528  0.5829 -0.3407
  174SOPE  H13X19817   7.236   5.473   8.841 -0.1561 -0.6124 -0.0334
  174SOPE  H13Y19818   7.347   5.513   8.975 -0.9201  2.1774 -1.5134
  174SOPE  C31419819   7.155   5.632   8.948  0.0365 -0.3519  0.7446
  174SOPE  H14X19820   7.146   5.666   9.054 -3.6832  1.4950  0.0024
  174SOPE  H14Y19821   7.051   5.611   8.916 -0.0094  1.9881 -0.8678
  174SOPE  C31519822   7.215   5.743   8.863  0.5654 -0.0559 -0.2571
  174SOPE  H15X19823   7.191   5.709   8.759 -1.1860 -1.8892  0.6734
  174SOPE  H15Y19824   7.326   5.745   8.855  0.5250 -0.4480 -1.0886
  174SOPE  C31619825   7.171   5.881   8.903  0.0309  0.0251  0.5822
  174SOPE  H16X19826   7.208   5.960   8.834 -1.2753  0.2411  0.1066
  174SOPE  H16Y19827   7.221   5.912   8.997  1.2188 -1.6483  0.5397
  174SOPE  C31719828   7.021   5.911   8.928  0.9642  0.1467  0.0540
  174SOPE  H17X19829   7.003   5.973   9.019 -3.1901 -0.0692 -0.4288
  174SOPE  H17Y19830   6.970   5.815   8.951  1.9685 -0.2445  0.7760
  174SOPE  C31819831   6.951   5.984   8.811 -0.1634 -0.1283  0.1286
  174SOPE  H18X19832   6.983   6.091   8.813 -2.7983  1.0472 -4.8655
  174SOPE  H18Y19833   6.840   5.987   8.808 -0.2411 -2.0812 -0.2688
  174SOPE  H18Z19834   6.971   5.940   8.711 -2.1549  0.2521 -0.4873
  175SOPE     N19835   3.100   2.639  10.711  0.2625 -0.3824 -0.0996
  175SOPE   HN119836   3.156   2.569  10.763  0.3301  1.9356  3.2235
  175SOPE   HN219837   3.141   2.660  10.618 -0.0527  0.9570  0.0504
  175SOPE   HN319838   3.107   2.726  10.768 -0.8584 -0.9410  0.9473
  175SOPE   C1219839   2.954   2.599  10.702 -0.3720  0.4987  0.6412
  175SOPE  H12A19840   2.899   2.692  10.731  2.4798  2.0242  1.5970
  175SOPE  H12B19841   2.935   2.522  10.780  0.6931 -1.2256 -0.7516
  175SOPE   C1119842   2.921   2.555  10.555  0.0331  0.1540  0.3371
  175SOPE  H11A19843   2.930   2.645  10.490  0.7274 -0.3093 -0.2176
  175SOPE  H11B19844   2.817   2.517  10.541  0.4526 -0.4049 -1.4625
  175SOPE     P19845   2.970   2.322  10.450  0.2730 -0.5044  0.0566
  175SOPE   O1319846   2.853   2.339  10.357  1.0344 -0.6643 -0.2204
  175SOPE   O1419847   2.956   2.233  10.568  0.5074  0.3653  0.0242
  175SOPE   O1219848   3.017   2.465  10.497  0.6834  0.1320  0.0797
  175SOPE   O1119849   3.088   2.270  10.367 -0.7225 -1.1723  0.4493
  175SOPE    C119850   3.161   2.349  10.275 -0.2510  1.3965  0.2318
  175SOPE    HA19851   3.267   2.349  10.309  0.4706  0.8863 -1.8730
  175SOPE    HB19852   3.113   2.448  10.269 -0.0266  1.5404  0.7780
  175SOPE    C219853   3.164   2.303  10.124  0.3022  0.4024 -0.0056
  175SOPE    HS19854   3.241   2.366  10.074 -0.3699  1.1549 -0.1098
  175SOPE   O2119855   3.028   2.309  10.072  0.0098  0.3328  0.3789
  175SOPE   C2119856   2.987   2.426  10.036 -0.5879 -0.6579  0.3362
  175SOPE   O2219857   3.059   2.524  10.014  0.8088  0.0538  0.6435
  175SOPE   C2219858   2.837   2.426  10.019  0.2558  0.2161 -0.7014
  175SOPE   H2R19859   2.783   2.515  10.057 -0.1328 -0.3819  0.1574
  175SOPE   H2S19860   2.793   2.343  10.077  0.2516  1.1259  0.6246
  175SOPE    C319861   3.209   2.151  10.121 -1.1973  0.0983  0.0615
  175SOPE    HX19862   3.143   2.093  10.188 -1.6681 -0.6647 -1.0230
  175SOPE    HY19863   3.311   2.137  10.161 -1.5068  2.5913  1.9452
  175SOPE   O3119864   3.191   2.096   9.990 -0.1689 -0.2284 -0.3947
  175SOPE   C3119865   3.270   2.139   9.898  0.1959 -0.0872  0.5780
  175SOPE   O3219866   3.364   2.218   9.905 -0.4742  0.2667  0.1312
  175SOPE   C3219867   3.216   2.076   9.767  0.4239  0.2430 -0.2018
  175SOPE   H2X19868   3.140   2.152   9.741 -0.3255 -0.1930  0.6684
  175SOPE   H2Y19869   3.156   1.986   9.790  1.3382 -0.1003  0.9729
  175SOPE   C2319870   2.780   2.427   9.875  0.0951 -0.2454  0.4416
  175SOPE   H3R19871   2.678   2.384   9.868 -0.4531  0.8010  1.4872
  175SOPE   H3S19872   2.850   2.378   9.804  1.0214  1.0811  0.3999
  175SOPE   C2419873   2.749   2.577   9.835  0.4347  0.1458  0.1582
  175SOPE   H4R19874   2.659   2.611   9.890 -0.3156  0.5857 -1.3168
  175SOPE   H4S19875   2.842   2.635   9.856  0.4717  0.8615 -1.7734
  175SOPE   C2519876   2.726   2.582   9.683 -0.5452 -0.5461 -0.1231
  175SOPE   H5R19877   2.627   2.536   9.658 -1.2256  1.4570 -1.3975
  175SOPE   H5S19878   2.711   2.685   9.644  0.4716 -1.3002 -2.6676
  175SOPE   C2619879   2.841   2.526   9.601  0.3373  0.0976  0.3860
  175SOPE   H6R19880   2.936   2.568   9.641 -0.6189  3.8217 -0.9256
  175SOPE   H6S19881   2.853   2.415   9.604  0.7756  0.1153 -0.3862
  175SOPE   C2719882   2.841   2.569   9.453  0.2039 -0.1630 -0.3969
  175SOPE   H7R19883   2.832   2.680   9.453 -0.3723 -0.1998 -1.3314
  175SOPE   H7S19884   2.946   2.557   9.419  1.5020 -0.2967  3.2655
  175SOPE   C2819885   2.745   2.491   9.362 -0.2333 -0.7109 -0.2510
  175SOPE   H8R19886   2.799   2.403   9.320  0.0714 -0.8412  0.4043
  175SOPE   H8S19887   2.659   2.452   9.419  0.0820 -0.2853  0.5240
  175SOPE   C2919888   2.689   2.576   9.253 -0.1872 -0.8091  0.3474
  175SOPE   H9119889   2.608   2.641   9.288  1.4254  0.1932  2.5087
  175SOPE  C21019890   2.726   2.577   9.121  0.5107  0.3135 -0.5599
  175SOPE  H10119891   2.689   2.644   9.044  1.3998  1.1773 -0.2591
  175SOPE  C21119892   2.828   2.483   9.064 -0.4514  0.8225 -0.4098
  175SOPE  H11R19893   2.895   2.442   9.143 -2.4566 -2.4342 -0.1891
  175SOPE  H11S19894   2.911   2.525   9.003  0.3546  0.4000  0.3701
  175SOPE  C21219895   2.775   2.361   8.994 -0.6598 -0.3854 -0.0733
  175SOPE  H12R19896   2.727   2.297   9.071  0.2682 -0.3879  0.5170
  175SOPE  H12S19897   2.856   2.297   8.953 -0.2653  0.3689 -0.4950
  175SOPE  C21319898   2.698   2.396   8.872  0.4430 -0.0379  0.1020
  175SOPE  H13R19899   2.623   2.472   8.904 -0.4778 -0.3472 -1.2235
  175SOPE  H13S19900   2.640   2.307   8.841  0.7735 -0.2589  0.1177
  175SOPE  C21419901   2.775   2.448   8.756 -0.0465 -0.2256 -1.2539
  175SOPE  H14R19902   2.860   2.382   8.730  0.2324 -0.0350 -0.8304
  175SOPE  H14S19903   2.817   2.547   8.782 -3.3627  1.7214 -2.6868
  175SOPE  C21519904   2.683   2.481   8.631 -0.0778  0.3856  0.3921
  175SOPE  H15R19905   2.620   2.571   8.649  1.4862  1.6126 -0.0121
  175SOPE  H15S19906   2.619   2.390   8.631  0.5423 -0.0547  0.9579
  175SOPE  C21619907   2.769   2.497   8.498 -0.0459  0.5744  0.0576
  175SOPE  H16R19908   2.709   2.499   8.405  0.4524 -1.2492 -0.3550
  175SOPE  H16S19909   2.834   2.407   8.491  0.1308  0.7723 -1.0279
  175SOPE  C21719910   2.851   2.626   8.511 -0.1899  0.2461  0.1287
  175SOPE  H17R19911   2.928   2.613   8.590 -0.1683  1.9233  0.4239
  175SOPE  H17S19912   2.787   2.711   8.545 -0.2308 -0.1323  1.0289
  175SOPE  C21819913   2.924   2.675   8.386 -0.1379  0.0330  0.1709
  175SOPE  H18R19914   2.853   2.695   8.303 -0.9862  0.5857  1.0153
  175SOPE  H18S19915   3.002   2.601   8.355  0.8921  1.1897 -0.0695
  175SOPE  H18T19916   2.976   2.772   8.397  0.1715 -0.1970  0.8103
  175SOPE   C3319917   3.313   2.038   9.644 -0.0497 -0.1407 -0.1990
  175SOPE   H3X19918   3.394   1.979   9.692 -1.3205  0.4579  2.8887
  175SOPE   H3Y19919   3.369   2.125   9.605 -2.8753  1.2107 -1.5343
  175SOPE   C3419920   3.245   1.949   9.536 -0.8335 -0.1816  0.6132
  175SOPE   H4X19921   3.140   1.986   9.535 -0.6753  0.2789 -0.1463
  175SOPE   H4Y19922   3.241   1.844   9.571  1.7502 -0.2091  0.9716
  175SOPE   C3519923   3.299   1.978   9.396  0.1281  0.6505 -0.1818
  175SOPE   H5X19924   3.407   1.953   9.399  0.0058  0.0966 -0.2738
  175SOPE   H5Y19925   3.293   2.087   9.375 -0.8113  0.9915  1.6671
  175SOPE   C3619926   3.236   1.899   9.285 -0.5924 -0.2819  1.2972
  175SOPE   H6X19927   3.132   1.934   9.266  0.4696  2.1119 -0.8303
  175SOPE   H6Y19928   3.219   1.795   9.320  0.3199 -0.6711  0.6335
  175SOPE   C3719929   3.325   1.910   9.152  0.4675  0.4599 -1.0372
  175SOPE   H7X19930   3.399   1.835   9.189  0.5464  1.2416  0.4966
  175SOPE   H7Y19931   3.368   2.012   9.147 -2.4345  1.8285 -0.0484
  175SOPE   C3819932   3.249   1.873   9.030  0.4924  0.0959 -0.8854
  175SOPE   H8X19933   3.196   1.778   9.051  0.1194  0.5322  0.2704
  175SOPE   H8Y19934   3.321   1.845   8.951 -0.7959 -0.0083 -2.0566
  175SOPE   C3919935   3.150   1.980   8.982  0.7682  0.2970  0.3284
  175SOPE   H9X19936   3.195   2.073   8.941 -0.0344  0.2847 -0.6266
  175SOPE   H9Y19937   3.088   2.012   9.069  0.9083 -0.2491  0.6346
  175SOPE  C31019938   3.063   1.908   8.881  0.2174 -0.4216  0.3735
  175SOPE  H10X19939   2.998   1.836   8.936 -3.8422  1.2118 -1.8066
  175SOPE  H10Y19940   3.126   1.859   8.805 -2.5056 -0.0799 -2.3142
  175SOPE  C31119941   2.965   2.003   8.812 -0.8037 -0.3457  0.2850
  175SOPE  H11X19942   2.931   2.075   8.890 -0.3047 -1.3812  1.4905
  175SOPE  H11Y19943   2.877   1.939   8.792  0.3353 -2.4898  1.7761
  175SOPE  C31219944   3.027   2.076   8.687  0.3643 -0.3789  1.2902
  175SOPE  H12X19945   3.089   2.004   8.629 -0.2668  1.1895 -1.5509
  175SOPE  H12Y19946   3.081   2.166   8.723 -1.6533  2.6252 -2.4745
  175SOPE  C31319947   2.917   2.131   8.589 -0.1626 -0.2822 -0.4569
  175SOPE  H13X19948   2.967   2.207   8.525  0.3149 -0.6339 -0.5087
  175SOPE  H13Y19949   2.831   2.181   8.638  0.4488 -0.0243  0.3813
  175SOPE  C31419950   2.847   2.033   8.499 -0.3812  0.6592  0.3711
  175SOPE  H14X19951   2.757   2.074   8.450 -0.2048 -1.3923 -1.8742
  175SOPE  H14Y19952   2.818   1.941   8.554  2.1388 -1.7008 -1.9481
  175SOPE  C31519953   2.930   1.994   8.379  0.1973  0.0174 -0.4145
  175SOPE  H15X19954   3.026   1.954   8.418 -1.7320 -3.6939  1.1051
  175SOPE  H15Y19955   2.943   2.083   8.315  2.1982 -0.2619 -0.4516
  175SOPE  C31619956   2.874   1.876   8.290 -0.0284  0.0227  0.8022
  175SOPE  H16X19957   2.772   1.902   8.252 -0.4615 -1.1312  1.1469
  175SOPE  H16Y19958   2.851   1.780   8.340 -2.9394  1.4224  2.4799
  175SOPE  C31719959   2.958   1.835   8.164 -0.4491 -0.5368 -0.4035
  175SOPE  H17X19960   3.013   1.741   8.186 -0.1924  0.1616  2.4298
  175SOPE  H17Y19961   3.027   1.921   8.148 -0.4288 -0.9406 -2.7728
  175SOPE  C31819962   2.878   1.804   8.031 -0.2262 -0.8072 -0.7520
  175SOPE  H18X19963   2.799   1.881   8.015  0.5694 -0.2588 -2.2455
  175SOPE  H18Y19964   2.828   1.705   8.026 -0.4746 -0.7929  0.9994
  175SOPE  H18Z19965   2.962   1.810   7.959 -0.8190  0.0901 -1.4000
  176SOPE     N19966   3.182   0.381  10.817  0.7006 -0.2988  0.3493
  176SOPE   HN119967   3.142   0.344  10.905  3.0947  0.5464  1.8841
  176SOPE   HN219968   3.267   0.322  10.808 -0.0381 -1.6917  1.9378
  176SOPE   HN319969   3.206   0.479  10.842 -1.1638  0.1051  0.7475
  176SOPE   C1219970   3.087   0.354  10.705 -0.2660 -0.2944  0.2066
  176SOPE  H12A19971   3.130   0.399  10.613 -1.3467 -0.9336 -0.6262
  176SOPE  H12B19972   2.992   0.406  10.728  0.0898 -0.3679  1.9969
  176SOPE   C1119973   3.057   0.203  10.677  0.3773 -0.0750 -0.4443
  176SOPE  H11A19974   3.146   0.144  10.644  1.6354  0.1898  2.2024
  176SOPE  H11B19975   3.000   0.195  10.582  0.5944 -0.3054 -0.5570
  176SOPE     P19976   2.850   0.128  10.821  0.1663  0.1259  0.2328
  176SOPE   O1319977   2.796   0.252  10.871 -0.2480  0.7174  0.0113
  176SOPE   O1419978   2.844   0.018  10.925 -0.2774  0.3319  0.8164
  176SOPE   O1219979   3.000   0.143  10.791 -0.5190 -0.0703 -0.7929
  176SOPE   O1119980   2.781   0.084  10.685  0.1619 -0.4698 -0.1990
  176SOPE    C119981   2.783  -0.042  10.630  0.6831  0.6517  1.4797
  176SOPE    HA19982   2.679  -0.072  10.604  0.5785  1.0989  1.3715
  176SOPE    HB19983   2.814  -0.117  10.706 -0.1738  0.4594  1.6550
  176SOPE    C219984   2.874  -0.054  10.501  0.2548  0.4706 -0.4321
  176SOPE    HS19985   2.968   0.003  10.510 -0.4255  1.9121 -1.9523
  176SOPE   O2119986   2.783  -0.019  10.398 -0.0060 -0.3688  0.3848
  176SOPE   C2119987   2.825   0.077  10.326  0.2359  0.0698 -0.0778
  176SOPE   O2219988   2.929   0.139  10.339 -0.0506 -0.0554 -0.0026
  176SOPE   C2219989   2.718   0.106  10.213 -0.0919 -0.0961  0.0199
  176SOPE   H2R19990   2.668   0.202  10.238 -0.8020 -0.4174 -0.1336
  176SOPE   H2S19991   2.645   0.022  10.218 -0.8061  0.4935 -0.4234
  176SOPE    C319992   2.924  -0.207  10.490  0.8226  0.3902  0.3042
  176SOPE    HX19993   2.840  -0.279  10.481  2.5996 -1.4982 -2.8248
  176SOPE    HY19994   2.978  -0.229  10.585 -0.7955 -0.0069  1.1833
  176SOPE   O3119995   3.010  -0.240  10.377 -0.4815 -0.7392 -0.0783
  176SOPE   C3119996   3.120  -0.169  10.372 -0.1033 -0.1545  0.3251
  176SOPE   O3219997   3.166  -0.092  10.457  0.0395 -0.7419  1.1993
  176SOPE   C3219998   3.185  -0.184  10.237 -0.1335  0.1373  0.0194
  176SOPE   H2X19999   3.114  -0.237  10.170  0.8965 -0.4602 -0.6167
  176SOPE   H2Y20000   3.267  -0.257  10.251 -0.8845 -1.1314 -1.8496
  176SOPE   C2320001   2.778   0.116  10.072  0.2125 -0.6064 -0.8260
  176SOPE   H3R20002   2.886   0.140  10.083  0.1016 -0.9379  1.3293
  176SOPE   H3S20003   2.735   0.200  10.013 -0.2185 -0.9878 -1.0652
  176SOPE   C2420004   2.779  -0.009   9.987  0.2799 -0.2796 -0.1217
  176SOPE   H4R20005   2.839  -0.085  10.043  0.7796 -0.2148 -0.5582
  176SOPE   H4S20006   2.672  -0.033   9.966  0.5180  0.4026 -2.4434
  176SOPE   C2520007   2.855   0.008   9.853  0.3490  0.3184  0.4813
  176SOPE   H5R20008   2.819   0.100   9.802 -0.6647 -0.7727 -0.8658
  176SOPE   H5S20009   2.962   0.013   9.885  0.0136 -0.2240  1.7611
  176SOPE   C2620010   2.847  -0.111   9.758  0.2257  0.4150  0.5671
  176SOPE   H6R20011   2.868  -0.195   9.828  0.4908  0.6319  0.7505
  176SOPE   H6S20012   2.748  -0.115   9.706 -0.0161  3.5081  0.6418
  176SOPE   C2720013   2.963  -0.120   9.655 -0.0927 -0.3946 -0.0006
  176SOPE   H7R20014   3.056  -0.143   9.712 -0.4338 -0.0340  0.7220
  176SOPE   H7S20015   2.942  -0.193   9.574  0.6973 -0.1636 -0.4205
  176SOPE   C2820016   2.979   0.017   9.577 -0.4584  0.1490 -0.7320
  176SOPE   H8R20017   3.033   0.098   9.630 -0.6402  0.4044 -0.9291
  176SOPE   H8S20018   3.060   0.000   9.502  1.4703  2.4065  0.7055
  176SOPE   C2920019   2.857   0.055   9.494 -0.3016  0.6397 -0.1068
  176SOPE   H9120020   2.783   0.114   9.550  0.8062  3.3310 -1.2986
  176SOPE  C21020021   2.823  -0.001   9.374 -1.1167  0.0891 -0.4520
  176SOPE  H10120022   2.724   0.021   9.330 -2.1480 -1.5625  0.8748
  176SOPE  C21120023   2.913  -0.098   9.294  0.0064 -0.7912 -0.3244
  176SOPE  H11R20024   2.888  -0.206   9.294  2.3776 -1.4081  0.2057
  176SOPE  H11S20025   3.015  -0.093   9.339 -1.5830  0.4765  3.5392
  176SOPE  C21220026   2.928  -0.058   9.150  0.4622 -0.3398 -0.6941
  176SOPE  H12R20027   3.017  -0.112   9.111  1.2179 -0.6922  1.3807
  176SOPE  H12S20028   2.951   0.051   9.139 -0.7909  0.0400  0.2119
  176SOPE  C21320029   2.806  -0.107   9.064 -0.0119 -0.5072 -0.5550
  176SOPE  H13R20030   2.705  -0.115   9.109 -0.9630 -0.6923 -2.6053
  176SOPE  H13S20031   2.832  -0.212   9.040  1.2472  0.2295 -2.7158
  176SOPE  C21420032   2.789  -0.026   8.931  0.0008 -0.2933 -0.0663
  176SOPE  H14R20033   2.875  -0.043   8.864  0.7100 -1.9010  1.2013
  176SOPE  H14S20034   2.777   0.078   8.968  1.1801 -0.2442  0.2186
  176SOPE  C21520035   2.663  -0.069   8.861  0.4079 -0.6998 -0.0922
  176SOPE  H15R20036   2.577  -0.060   8.930  0.9799  2.4856  0.3792
  176SOPE  H15S20037   2.674  -0.177   8.842 -0.5856 -1.2407  2.0868
  176SOPE  C21620038   2.636   0.003   8.728 -0.2355  0.1248  0.4139
  176SOPE  H16R20039   2.708  -0.043   8.658  0.2358 -0.3492  1.1994
  176SOPE  H16S20040   2.668   0.110   8.729 -0.9453  0.4071 -1.6752
  176SOPE  C21720041   2.486  -0.014   8.693  0.1712 -0.3531 -0.6896
  176SOPE  H17R20042   2.409   0.037   8.755  1.4069  0.8305 -0.0940
  176SOPE  H17S20043   2.482  -0.123   8.717  2.6389 -0.5013 -0.7257
  176SOPE  C21820044   2.454  -0.002   8.543 -0.2887 -0.6413  0.7973
  176SOPE  H18R20045   2.531  -0.065   8.494 -0.7162 -0.1146 -0.6013
  176SOPE  H18S20046   2.463   0.099   8.497  0.6487 -0.8901  0.4193
  176SOPE  H18T20047   2.353  -0.036   8.513 -0.2585  0.0644 -0.1504
  176SOPE   C3320048   3.230  -0.054  10.169  0.2857 -0.3689  0.3223
  176SOPE   H3X20049   3.297   0.007  10.233 -0.6771  1.5248 -0.3810
  176SOPE   H3Y20050   3.141   0.013  10.161  1.9868  2.0552  0.8576
  176SOPE   C3420051   3.314  -0.075  10.036 -0.7657 -0.1341  0.0132
  176SOPE   H4X20052   3.272  -0.169   9.995  2.8883 -2.9945  2.1798
  176SOPE   H4Y20053   3.412  -0.109  10.076 -0.9331  0.6676  1.1518
  176SOPE   C3520054   3.340   0.045   9.946 -1.0817  0.2130 -0.4974
  176SOPE   H5X20055   3.390   0.125  10.005  1.6315 -0.5869 -1.5874
  176SOPE   H5Y20056   3.245   0.098   9.922 -1.3548 -0.1120 -0.1614
  176SOPE   C3620057   3.438   0.015   9.823 -0.0435  0.3018 -0.5006
  176SOPE   H6X20058   3.507  -0.063   9.861 -0.7695  0.0673  0.3802
  176SOPE   H6Y20059   3.481   0.115   9.802 -0.7386  0.7011 -0.0683
  176SOPE   C3720060   3.368  -0.047   9.696  0.4105  0.0646  0.6143
  176SOPE   H7X20061   3.260  -0.025   9.694  0.4188  0.0504 -1.2485
  176SOPE   H7Y20062   3.372  -0.157   9.713 -0.3695 -0.8745 -3.9671
  176SOPE   C3820063   3.430  -0.012   9.559  0.5884  0.3283 -0.0610
  176SOPE   H8X20064   3.540   0.002   9.559  0.6056  0.1935  0.0834
  176SOPE   H8Y20065   3.373   0.080   9.534  0.5302  0.7642  1.5492
  176SOPE   C3920066   3.395  -0.118   9.465  0.8629  0.0051  0.2623
  176SOPE   H9X20067   3.295  -0.161   9.489 -0.0244  1.5257 -0.5102
  176SOPE   H9Y20068   3.462  -0.206   9.472  2.2132  0.9382 -0.5825
  176SOPE  C31020069   3.384  -0.060   9.323 -0.2507 -0.2515  0.4098
  176SOPE  H10X20070   3.342   0.042   9.340  0.6334  0.3031 -0.6676
  176SOPE  H10Y20071   3.311  -0.111   9.258  2.1166 -0.2770 -2.3900
  176SOPE  C31120072   3.512  -0.069   9.247  0.1027  0.1465 -1.0253
  176SOPE  H11X20073   3.507  -0.164   9.190 -0.3907 -0.3859 -0.1098
  176SOPE  H11Y20074   3.602  -0.074   9.312 -0.7170  0.7175  0.1862
  176SOPE  C31220075   3.545   0.038   9.143 -0.1268  0.0043  0.1977
  176SOPE  H12X20076   3.655   0.056   9.139  0.1504 -1.7004 -1.0330
  176SOPE  H12Y20077   3.485   0.127   9.171  0.0523  0.7612 -1.6419
  176SOPE  C31320078   3.509  -0.003   8.998  0.3137  0.3879  0.5398
  176SOPE  H13X20079   3.399  -0.016   8.998 -0.0440  2.8651  0.9577
  176SOPE  H13Y20080   3.563  -0.100   8.987 -2.3213 -0.9909 -1.2422
  176SOPE  C31420081   3.568   0.083   8.891  0.0325  0.5296 -0.3612
  176SOPE  H14X20082   3.676   0.100   8.914 -0.6377  1.8029  2.1766
  176SOPE  H14Y20083   3.516   0.181   8.889  0.5271  0.7878 -1.5850
  176SOPE  C31520084   3.547   0.020   8.754 -0.2832 -0.6628 -0.0938
  176SOPE  H15X20085   3.458  -0.045   8.739 -0.3489 -0.5402 -0.2387
  176SOPE  H15Y20086   3.627  -0.056   8.739 -1.1682 -1.8410  0.9666
  176SOPE  C31620087   3.556   0.121   8.641  0.7483 -0.3588  0.3943
  176SOPE  H16X20088   3.661   0.129   8.606  0.4347  2.6791 -0.1595
  176SOPE  H16Y20089   3.525   0.226   8.661  1.6055  0.4583 -2.1822
  176SOPE  C31720090   3.455   0.085   8.531  0.1727  0.0053 -0.2050
  176SOPE  H17X20091   3.459   0.155   8.446  0.3188 -0.2893 -0.4431
  176SOPE  H17Y20092   3.360   0.074   8.588  0.4563  0.9433  0.4795
  176SOPE  C31820093   3.470  -0.052   8.469 -0.1246  0.3408  0.3501
  176SOPE  H18X20094   3.576  -0.084   8.459 -0.4587 -0.7898  0.3527
  176SOPE  H18Y20095   3.437  -0.059   8.363  1.3805 -3.0238 -0.0273
  176SOPE  H18Z20096   3.424  -0.130   8.532 -2.6033  0.2124 -1.4521
  177SOPE     N20097   0.933   2.464  10.834 -0.3647  0.3771  0.6607
  177SOPE   HN120098   0.880   2.549  10.861 -0.2039 -0.2927  3.3436
  177SOPE   HN220099   1.002   2.450  10.911 -1.5045 -0.5450  1.5518
  177SOPE   HN320100   0.986   2.482  10.746  0.2671 -1.4081  0.6235
  177SOPE   C1220101   0.847   2.346  10.808  0.2933 -0.4251  0.3166
  177SOPE  H12A20102   0.792   2.335  10.903  1.2703  1.0906  1.0959
  177SOPE  H12B20103   0.900   2.251  10.788 -0.0634 -0.7018  0.6894
  177SOPE   C1120104   0.748   2.374  10.698  0.2965  0.1538  0.2264
  177SOPE  H11A20105   0.663   2.304  10.711  0.9488 -0.2745  2.5586
  177SOPE  H11B20106   0.779   2.364  10.592 -2.4980 -1.9802 -0.5054
  177SOPE     P20107   0.586   2.572  10.636  0.0753 -0.2641 -0.3013
  177SOPE   O1320108   0.598   2.719  10.628 -0.2045  0.5331  0.1019
  177SOPE   O1420109   0.462   2.522  10.699  0.0521  0.5413  0.3413
  177SOPE   O1220110   0.701   2.511  10.719  0.3909  0.1119  0.5839
  177SOPE   O1120111   0.601   2.507  10.496  0.1836  0.3279  0.4788
  177SOPE    C120112   0.679   2.546  10.386  0.3886 -0.1767  0.0739
  177SOPE    HA20113   0.729   2.454  10.350 -3.0011 -1.4906 -1.7083
  177SOPE    HB20114   0.750   2.625  10.418 -0.2859 -0.1888  1.7151
  177SOPE    C220115   0.599   2.600  10.275 -1.1733 -0.7939 -0.5401
  177SOPE    HS20116   0.536   2.679  10.321  1.4979  1.3130 -0.2732
  177SOPE   O2120117   0.540   2.491  10.211 -0.3696  0.2720  0.0028
  177SOPE   C2120118   0.425   2.513  10.160  0.4106 -0.1050 -0.2315
  177SOPE   O2220119   0.367   2.620  10.152 -0.4511 -0.2064  0.5753
  177SOPE   C2220120   0.356   2.391  10.098 -0.3482 -0.3915  0.1780
  177SOPE   H2R20121   0.249   2.411  10.081 -0.4000 -0.9933 -0.2418
  177SOPE   H2S20122   0.364   2.311  10.175  0.8519  2.9758  3.9058
  177SOPE    C320123   0.694   2.688  10.182  0.8405 -0.1925  0.4984
  177SOPE    HX20124   0.773   2.619  10.145  0.3710  0.4240 -1.7901
  177SOPE    HY20125   0.746   2.770  10.237  0.6153 -0.6349  1.3961
  177SOPE   O3120126   0.632   2.731  10.054  0.0286 -0.2438  0.1827
  177SOPE   C3120127   0.577   2.848  10.067 -0.5666 -0.7829 -0.0325
  177SOPE   O3220128   0.575   2.914  10.169  0.4133  0.1524 -0.5131
  177SOPE   C3220129   0.528   2.894   9.933 -0.2924 -0.3664  0.5608
  177SOPE   H2X20130   0.567   2.822   9.858 -1.8139  1.0251 -1.7294
  177SOPE   H2Y20131   0.576   2.994   9.921  0.8162 -0.4812  3.4624
  177SOPE   C2320132   0.429   2.351   9.968 -0.0464  0.7249 -0.0058
  177SOPE   H3R20133   0.401   2.244   9.962  0.8114  0.2897  2.4137
  177SOPE   H3S20134   0.538   2.352   9.990  0.7094 -4.4774 -1.9906
  177SOPE   C2420135   0.396   2.427   9.834  0.4103  0.5041  0.6667
  177SOPE   H4R20136   0.312   2.367   9.793  0.9666  0.7831 -0.9727
  177SOPE   H4S20137   0.362   2.530   9.857 -2.5231  0.3339 -2.0911
  177SOPE   C2520138   0.518   2.445   9.740  0.5307 -0.1915  0.0454
  177SOPE   H5R20139   0.588   2.505   9.802 -1.1843  1.7884  0.1713
  177SOPE   H5S20140   0.550   2.341   9.718 -4.1278 -1.5846 -1.5512
  177SOPE   C2620141   0.495   2.516   9.606  0.0780  0.0745 -0.2671
  177SOPE   H6R20142   0.469   2.623   9.618 -0.7302 -0.0760 -0.6491
  177SOPE   H6S20143   0.595   2.510   9.557 -0.5972 -2.3796 -1.4919
  177SOPE   C2720144   0.393   2.451   9.511  0.8792  0.0926  0.4065
  177SOPE   H7R20145   0.384   2.344   9.540  3.0242  1.0056  5.6180
  177SOPE   H7S20146   0.300   2.509   9.530  0.1863 -0.6155 -0.7016
  177SOPE   C2820147   0.430   2.454   9.363 -0.2139  0.5202 -0.1209
  177SOPE   H8R20148   0.470   2.553   9.332 -0.0584 -0.0042 -1.7375
  177SOPE   H8S20149   0.522   2.391   9.355 -0.4915  0.0728  0.2015
  177SOPE   C2920150   0.315   2.404   9.280 -0.5010 -0.8554 -0.0216
  177SOPE   H9120151   0.245   2.331   9.324 -2.4387  0.7280 -0.3402
  177SOPE  C21020152   0.292   2.455   9.156 -0.9579  0.4166  0.2056
  177SOPE  H10120153   0.199   2.425   9.107 -1.7911  0.7736  1.5034
  177SOPE  C21120154   0.363   2.552   9.076 -0.0816  0.2199 -0.3825
  177SOPE  H11R20155   0.446   2.595   9.136 -1.0606  0.4385  0.8704
  177SOPE  H11S20156   0.288   2.633   9.068  0.0016  0.7390  2.6722
  177SOPE  C21220157   0.411   2.509   8.939 -0.0587  0.6810  0.0801
  177SOPE  H12R20158   0.335   2.441   8.896  0.6144 -0.6617  0.9255
  177SOPE  H12S20159   0.497   2.438   8.937 -1.2729 -0.8695  0.3862
  177SOPE  C21320160   0.450   2.619   8.848  0.4068  0.1544  0.1005
  177SOPE  H13R20161   0.522   2.685   8.901 -0.9141  1.0426  0.8557
  177SOPE  H13S20162   0.367   2.691   8.830  0.5571 -0.0286 -1.4216
  177SOPE  C21420163   0.495   2.576   8.704  0.1440 -1.0605 -0.0356
  177SOPE  H14R20164   0.518   2.677   8.663  0.4015 -1.6227 -1.3463
  177SOPE  H14S20165   0.402   2.539   8.655 -0.3690  0.9957 -0.6921
  177SOPE  C21520166   0.605   2.473   8.696 -0.1129 -0.3559 -0.0642
  177SOPE  H15R20167   0.565   2.370   8.708  0.4415 -0.5559  0.0769
  177SOPE  H15S20168   0.677   2.495   8.777 -1.3232  1.7233  0.5209
  177SOPE  C21620169   0.653   2.467   8.551  0.0375  0.0279 -0.6713
  177SOPE  H16R20170   0.704   2.564   8.535 -0.9858  0.6889 -0.0193
  177SOPE  H16S20171   0.568   2.456   8.480 -0.4225  1.7922 -0.4221
  177SOPE  C21720172   0.757   2.354   8.534 -0.0590 -0.4043  0.5549
  177SOPE  H17R20173   0.712   2.252   8.533 -1.6005  0.2060  2.1893
  177SOPE  H17S20174   0.828   2.351   8.620  0.2368  0.4869  0.3538
  177SOPE  C21820175   0.824   2.366   8.399 -0.2016  0.0305 -0.4047
  177SOPE  H18R20176   0.870   2.465   8.382 -0.3137 -0.2023 -2.2397
  177SOPE  H18S20177   0.744   2.357   8.322 -1.5316  0.6247  0.8701
  177SOPE  H18T20178   0.889   2.278   8.381 -1.7957 -1.2969  0.0204
  177SOPE   C3320179   0.373   2.908   9.921  0.5465  0.3585 -0.2093
  177SOPE   H3X20180   0.327   2.938  10.018  0.8159 -1.6927  0.6264
  177SOPE   H3Y20181   0.340   2.803   9.904 -0.9550  0.8354 -0.4000
  177SOPE   C3420182   0.336   2.995   9.798  0.4129  0.0723  0.8084
  177SOPE   H4X20183   0.379   3.097   9.809 -1.2325  0.5757  3.3626
  177SOPE   H4Y20184   0.226   2.997   9.789  0.3958  0.8105  1.1504
  177SOPE   C3520185   0.388   2.945   9.664 -0.1583  0.0984 -0.5009
  177SOPE   H5X20186   0.366   2.837   9.654  2.7714 -0.6976  0.4247
  177SOPE   H5Y20187   0.499   2.953   9.654 -0.1578  0.8914  0.0544
  177SOPE   C3620188   0.320   3.021   9.548  0.2986  0.7231  0.1984
  177SOPE   H6X20189   0.351   3.126   9.565 -1.0712  1.0026  1.0916
  177SOPE   H6Y20190   0.210   3.015   9.562  0.5676  1.4865  3.3509
  177SOPE   C3720191   0.376   2.978   9.413  0.5577  0.5636  0.6971
  177SOPE   H7X20192   0.366   2.867   9.411 -0.7288  0.6417  1.5464
  177SOPE   H7Y20193   0.478   3.014   9.390  0.0370  1.4490 -0.2975
  177SOPE   C3820194   0.289   3.035   9.293  0.0088 -0.5302 -0.2019
  177SOPE   H8X20195   0.290   3.146   9.301  0.5268 -0.4838 -0.8110
  177SOPE   H8Y20196   0.187   2.992   9.307 -0.0289 -0.5747 -0.5828
  177SOPE   C3920197   0.357   2.994   9.157  0.4432  0.7900  0.2834
  177SOPE   H9X20198   0.343   2.884   9.158 -0.1074  0.8301 -1.1424
  177SOPE   H9Y20199   0.466   3.012   9.149  0.7447 -1.3010 -1.2279
  177SOPE  C31020200   0.294   3.062   9.037 -0.2928  0.0259 -0.0011
  177SOPE  H10X20201   0.306   3.172   9.052  2.0163 -0.3255  1.0134
  177SOPE  H10Y20202   0.187   3.031   9.033 -0.8754  1.7610  0.9532
  177SOPE  C31120203   0.365   3.006   8.917 -0.1744  0.4611  0.1586
  177SOPE  H11X20204   0.384   2.899   8.939  1.1871  1.0105  1.9568
  177SOPE  H11Y20205   0.468   3.046   8.903  1.0970 -2.8199 -0.6285
  177SOPE  C31220206   0.296   3.025   8.774 -0.2249  0.6937 -0.4686
  177SOPE  H12X20207   0.278   3.129   8.737 -1.6424 -0.1762 -2.4521
  177SOPE  H12Y20208   0.197   2.982   8.801  1.0061 -1.1095  1.4313
  177SOPE  C31320209   0.349   2.939   8.659 -0.2595 -0.1101  0.2559
  177SOPE  H13X20210   0.270   2.930   8.581 -0.6470 -0.4850  0.6871
  177SOPE  H13Y20211   0.373   2.837   8.694  0.1701 -0.3128 -0.6048
  177SOPE  C31420212   0.471   2.996   8.599 -0.1240  0.6398 -0.5344
  177SOPE  H14X20213   0.464   3.105   8.575 -1.3013  0.8128  0.5354
  177SOPE  H14Y20214   0.482   2.945   8.501  2.2489 -0.1139  0.0604
  177SOPE  C31520215   0.606   2.983   8.676 -0.4557  0.9952  0.4033
  177SOPE  H15X20216   0.608   2.875   8.702 -2.6010  1.0530  1.0464
  177SOPE  H15Y20217   0.612   3.021   8.780  0.7341 -2.2458  1.6734
  177SOPE  C31620218   0.733   3.002   8.592 -0.4416 -0.0491 -0.2189
  177SOPE  H16X20219   0.720   2.942   8.499 -2.6808  0.1151 -0.0524
  177SOPE  H16Y20220   0.830   2.969   8.635  1.5121  1.6593 -2.9821
  177SOPE  C31720221   0.773   3.146   8.552  0.3124 -0.0554  0.2163
  177SOPE  H17X20222   0.830   3.186   8.638  1.9012 -2.1091  0.2194
  177SOPE  H17Y20223   0.676   3.197   8.543 -1.2089 -2.1966  3.0003
  177SOPE  C31820224   0.849   3.152   8.418  0.0365 -0.5602  0.0286
  177SOPE  H18X20225   0.868   3.253   8.377 -0.2810 -0.4876  0.0602
  177SOPE  H18Y20226   0.790   3.102   8.338 -0.9043  2.0932 -1.0554
  177SOPE  H18Z20227   0.947   3.101   8.422  0.1605 -0.2631  0.8766
  178SOPE     N20228   3.839   0.448  10.672  0.6407 -0.1360  0.0665
  178SOPE   HN120229   3.770   0.525  10.689  1.2668  0.4447  0.0325
  178SOPE   HN220230   3.867   0.466  10.574  1.3764  2.8671  0.7031
  178SOPE   HN320231   3.788   0.358  10.683  0.0328  0.2736  0.7992
  178SOPE   C1220232   3.960   0.459  10.758 -0.0219  0.7902  0.7515
  178SOPE  H12A20233   4.032   0.384  10.717 -1.7723 -0.5557 -0.0022
  178SOPE  H12B20234   3.934   0.420  10.858 -0.2488  2.8048  1.5184
  178SOPE   C1120235   4.022   0.595  10.756 -0.6099  0.1219  0.0432
  178SOPE  H11A20236   4.058   0.634  10.658 -2.8858 -0.9985 -1.3205
  178SOPE  H11B20237   4.110   0.587  10.823  1.0457 -1.9146 -2.1791
  178SOPE     P20238   3.980   0.808  10.890  0.3186  0.0983  0.1421
  178SOPE   O1320239   4.024   0.760  11.023  0.3056 -0.3652  0.1011
  178SOPE   O1420240   3.868   0.908  10.877 -0.2065 -0.1354 -0.0821
  178SOPE   O1220241   3.932   0.691  10.801  0.4330  0.0602 -0.4831
  178SOPE   O1120242   4.102   0.864  10.805  0.3691  0.4419  0.1817
  178SOPE    C120243   4.094   0.995  10.746 -0.7324  0.5012  0.0728
  178SOPE    HA20244   4.202   1.022  10.749 -0.5801 -0.0973  2.6202
  178SOPE    HB20245   4.046   1.060  10.823 -0.4123 -0.6428  1.2740
  178SOPE    C220246   4.036   0.988  10.605  0.1760  0.0180  0.3483
  178SOPE    HS20247   3.932   0.950  10.617  1.0061 -3.1182 -1.3306
  178SOPE   O2120248   4.118   0.891  10.523  0.9249  0.1912  0.3311
  178SOPE   C2120249   4.046   0.843  10.420  0.5330 -0.1603 -0.0082
  178SOPE   O2220250   3.927   0.858  10.395 -0.1273  0.6588 -0.0946
  178SOPE   C2220251   4.146   0.780  10.327 -0.8998  0.3437  0.2297
  178SOPE   H2R20252   4.159   0.685  10.383  0.1329 -1.2365 -2.4902
  178SOPE   H2S20253   4.245   0.832  10.330 -0.6353 -0.2009  1.2781
  178SOPE    C320254   4.040   1.130  10.539  0.4851 -0.4993  0.2460
  178SOPE    HX20255   4.140   1.173  10.556  0.0884  0.6262 -0.2214
  178SOPE    HY20256   3.967   1.185  10.602 -1.7499 -0.7430 -1.9609
  178SOPE   O3120257   4.012   1.133  10.403 -0.5114 -0.4831  0.2294
  178SOPE   C3120258   3.888   1.180  10.375  0.1576  0.2609 -0.6136
  178SOPE   O3220259   3.793   1.190  10.459 -0.3108  0.3068  0.3181
  178SOPE   C3220260   3.877   1.197  10.227  0.5019  0.0414  0.3001
  178SOPE   H2X20261   3.914   1.111  10.167 -0.9317 -1.0043  0.8468
  178SOPE   H2Y20262   3.941   1.278  10.186  0.5326  0.2325  0.7204
  178SOPE   C2320263   4.077   0.770  10.198 -0.0113  0.9106 -0.2269
  178SOPE   H3R20264   3.968   0.751  10.203 -0.4604  3.1758 -0.5470
  178SOPE   H3S20265   4.120   0.677  10.154  1.1264  1.0518  0.5293
  178SOPE   C2420266   4.104   0.882  10.101 -0.6376 -0.6471 -0.0523
  178SOPE   H4R20267   4.088   0.977  10.156  1.2851 -0.8232  0.8993
  178SOPE   H4S20268   4.211   0.878  10.070 -0.4213 -1.7588  0.7735
  178SOPE   C2520269   4.010   0.873   9.972  0.1071  0.1671 -0.0377
  178SOPE   H5R20270   4.028   0.772   9.930 -0.0202 -0.1929  0.7500
  178SOPE   H5S20271   3.907   0.878  10.012  0.7679 -0.3254  1.8161
  178SOPE   C2620272   4.036   0.989   9.874  0.0138  0.3490 -0.6556
  178SOPE   H6R20273   3.953   0.990   9.801 -0.3160  1.4112 -0.2887
  178SOPE   H6S20274   4.035   1.082   9.936 -0.4687  0.3820 -0.7107
  178SOPE   C2720275   4.167   0.984   9.804 -0.4296  0.4050  0.2107
  178SOPE   H7R20276   4.249   0.999   9.877 -1.1691  0.8420  0.9649
  178SOPE   H7S20277   4.184   0.885   9.757  0.1008  0.2089  0.7874
  178SOPE   C2820278   4.167   1.097   9.698 -0.1027  0.1976 -0.5783
  178SOPE   H8R20279   4.146   1.189   9.757 -3.0946 -0.9359  0.3506
  178SOPE   H8S20280   4.272   1.116   9.669 -0.3808  2.9448 -0.0434
  178SOPE   C2920281   4.066   1.088   9.582 -0.4026 -0.8655  0.4087
  178SOPE   H9120282   3.961   1.091   9.615  0.2163  0.0085  2.4850
  178SOPE  C21020283   4.098   1.088   9.450  0.6526  0.3696  0.4557
  178SOPE  H10120284   4.008   1.083   9.387  0.7187 -0.4673  0.4147
  178SOPE  C21120285   4.227   1.094   9.384 -0.2390  0.5056 -0.7570
  178SOPE  H11R20286   4.315   1.072   9.449 -0.1668 -1.1223 -1.3689
  178SOPE  H11S20287   4.245   1.194   9.338  2.5342  0.6194  0.3446
  178SOPE  C21220288   4.253   0.996   9.267 -0.0754 -0.0329 -0.7246
  178SOPE  H12R20289   4.222   0.898   9.309 -1.3002  0.2980 -0.8057
  178SOPE  H12S20290   4.362   0.981   9.249  0.1767  0.6021  0.1888
  178SOPE  C21320291   4.169   1.043   9.146 -0.0389  0.6645 -0.5699
  178SOPE  H13R20292   4.202   1.148   9.133  1.0144  0.6058  1.2748
  178SOPE  H13S20293   4.063   1.030   9.177  1.0036 -2.9014  2.2243
  178SOPE  C21420294   4.197   0.955   9.016 -0.0596 -0.0906  0.1436
  178SOPE  H14R20295   4.159   1.004   8.924 -0.9222 -0.6577  0.1884
  178SOPE  H14S20296   4.135   0.863   9.013  0.6099 -0.5254 -2.0690
  178SOPE  C21520297   4.353   0.947   8.998  0.4611  0.3942 -0.3162
  178SOPE  H15R20298   4.393   0.881   9.077 -0.3201  0.3276  0.0333
  178SOPE  H15S20299   4.407   1.042   9.018  0.1338 -0.0598  3.3121
  178SOPE  C21620300   4.386   0.885   8.861 -0.2802 -0.5045  0.5435
  178SOPE  H16R20301   4.327   0.939   8.783 -1.0370 -0.1696  1.3314
  178SOPE  H16S20302   4.365   0.777   8.869 -2.1466 -0.1413  0.9427
  178SOPE  C21720303   4.539   0.903   8.829  0.3080  0.1917  0.8056
  178SOPE  H17R20304   4.583   0.837   8.907  0.6877 -1.9762 -1.1420
  178SOPE  H17S20305   4.562   1.006   8.862  1.8845  0.1878 -0.2071
  178SOPE  C21820306   4.580   0.880   8.686  0.1643 -0.0223 -0.1128
  178SOPE  H18R20307   4.686   0.909   8.671  0.4180  0.0391  1.5653
  178SOPE  H18S20308   4.519   0.945   8.619  1.2776 -0.1389 -1.2656
  178SOPE  H18T20309   4.551   0.778   8.652 -0.7955 -0.2230  1.1981
  178SOPE   C3320310   3.736   1.222  10.186  0.0541  0.8119  0.1063
  178SOPE   H3X20311   3.705   1.322  10.222  1.1291  0.4563  2.1705
  178SOPE   H3Y20312   3.669   1.146  10.232  1.4988 -1.5000 -1.3817
  178SOPE   C3420313   3.713   1.197  10.033  0.5564  0.2493 -0.5911
  178SOPE   H4X20314   3.604   1.200  10.010 -0.4153  0.3585  3.3587
  178SOPE   H4Y20315   3.759   1.097  10.018 -1.5120 -1.1981  2.0323
  178SOPE   C3520316   3.795   1.294   9.945 -0.5824 -0.6251 -0.4892
  178SOPE   H5X20317   3.901   1.285   9.975 -0.5215  1.0711 -0.0942
  178SOPE   H5Y20318   3.760   1.398   9.959 -0.9364 -0.1531 -3.9567
  178SOPE   C3620319   3.777   1.272   9.800  0.8253  0.2984  0.5162
  178SOPE   H6X20320   3.671   1.288   9.770  0.4653  0.6732  1.9116
  178SOPE   H6Y20321   3.799   1.165   9.780  3.4019  0.6229  1.2763
  178SOPE   C3720322   3.864   1.367   9.710  0.2804  0.2970 -0.0874
  178SOPE   H7X20323   3.969   1.334   9.729  0.0032  1.2322  3.9058
  178SOPE   H7Y20324   3.849   1.472   9.743 -1.4990  0.3356 -0.9127
  178SOPE   C3820325   3.821   1.353   9.561 -0.0815  0.4494 -0.0523
  178SOPE   H8X20326   3.717   1.389   9.547  0.7562  2.3837 -1.7938
  178SOPE   H8Y20327   3.831   1.248   9.527 -2.5305 -0.1196  0.7631
  178SOPE   C3920328   3.905   1.429   9.457  0.0964  0.2015  0.4403
  178SOPE   H9X20329   4.013   1.407   9.467 -0.0653 -0.4269  0.8602
  178SOPE   H9Y20330   3.901   1.540   9.462 -0.7593  0.3152 -1.6218
  178SOPE  C31020331   3.847   1.409   9.313  0.6750  0.0307 -0.6002
  178SOPE  H10X20332   3.757   1.473   9.298  1.3265  0.6115 -2.3442
  178SOPE  H10Y20333   3.806   1.308   9.295  1.9417 -0.2094 -2.4978
  178SOPE  C31120334   3.947   1.437   9.194  0.5573  0.1947 -0.3861
  178SOPE  H11X20335   4.027   1.360   9.191 -1.5948 -2.1516 -1.7918
  178SOPE  H11Y20336   3.988   1.539   9.200 -0.1688  0.4257  1.0918
  178SOPE  C31220337   3.862   1.412   9.067  0.6573 -0.3937 -0.4195
  178SOPE  H12X20338   3.775   1.480   9.051  1.0904  0.1663 -0.4101
  178SOPE  H12Y20339   3.826   1.307   9.077  1.7984 -0.7556  0.0316
  178SOPE  C31320340   3.941   1.430   8.934  0.9647 -0.0588 -0.1138
  178SOPE  H13X20341   4.038   1.375   8.937  0.8227 -0.3619 -0.9939
  178SOPE  H13Y20342   3.968   1.538   8.923 -2.0808  0.7112 -0.9850
  178SOPE  C31420343   3.862   1.389   8.809  0.3492 -0.6205  0.0747
  178SOPE  H14X20344   3.760   1.429   8.825  1.1340  0.8083  1.8656
  178SOPE  H14Y20345   3.852   1.278   8.806 -1.6342 -0.4622 -2.5450
  178SOPE  C31520346   3.922   1.441   8.675  0.2906 -0.8760 -0.0497
  178SOPE  H15X20347   4.025   1.400   8.663  0.7491  0.9415 -4.2351
  178SOPE  H15Y20348   3.930   1.551   8.688  0.7669 -0.9459  0.2907
  178SOPE  C31620349   3.835   1.398   8.555  0.0622  0.2406 -0.5321
  178SOPE  H16X20350   3.730   1.404   8.590  1.0608 -1.6132  3.4210
  178SOPE  H16Y20351   3.854   1.293   8.524 -0.3450  0.1720 -0.5577
  178SOPE  C31720352   3.846   1.469   8.427 -0.5234 -0.2816  0.0950
  178SOPE  H17X20353   3.813   1.572   8.451  1.0584 -0.2688  2.5653
  178SOPE  H17Y20354   3.786   1.425   8.344 -0.0688  1.2919 -1.1171
  178SOPE  C31820355   3.990   1.475   8.374 -0.6795 -0.1298 -0.0392
  178SOPE  H18X20356   4.030   1.373   8.353 -0.2049  0.5913 -3.2296
  178SOPE  H18Y20357   4.049   1.520   8.456 -1.8864 -0.3040  0.9499
  178SOPE  H18Z20358   3.992   1.534   8.280 -0.2724  1.1228  0.7294
  179SOPE     N20359   5.624   1.008   6.173 -0.1599  0.3881  0.7728
  179SOPE   HN120360   5.725   0.983   6.174 -0.4652 -1.2056 -1.1151
  179SOPE   HN220361   5.591   1.012   6.271  0.4332  0.8594  0.9555
  179SOPE   HN320362   5.582   0.930   6.118 -1.0834  0.5324  1.2547
  179SOPE   C1220363   5.619   1.142   6.102 -0.5007 -0.4891 -0.5830
  179SOPE  H12A20364   5.647   1.118   5.997 -0.7173 -2.1677 -0.2835
  179SOPE  H12B20365   5.692   1.206   6.157  0.0584 -1.2717 -0.4005
  179SOPE   C1120366   5.468   1.191   6.103 -1.1437 -0.0792 -0.2605
  179SOPE  H11A20367   5.403   1.115   6.054 -1.6068  1.9185 -2.9770
  179SOPE  H11B20368   5.465   1.282   6.039 -3.5903 -0.2104 -0.4154
  179SOPE     P20369   5.275   1.223   6.264 -0.0852 -0.1268  0.1539
  179SOPE   O1320370   5.222   1.105   6.197  0.1409  0.5356  0.0772
  179SOPE   O1420371   5.210   1.348   6.229  0.1301 -0.3069 -0.3502
  179SOPE   O1220372   5.427   1.224   6.234 -0.0968 -0.1869 -0.3921
  179SOPE   O1120373   5.272   1.206   6.422  0.0248  0.4536 -0.0743
  179SOPE    C120374   5.395   1.154   6.478 -0.4165  0.1663 -0.1816
  179SOPE    HA20375   5.484   1.219   6.464 -0.7993  0.5264 -1.0100
  179SOPE    HB20376   5.430   1.057   6.436  0.7802  0.5667 -0.1478
  179SOPE    C220377   5.375   1.152   6.626 -0.0315  0.7594  0.0900
  179SOPE    HS20378   5.467   1.126   6.681 -0.1055 -0.1665 -0.1969
  179SOPE   O2120379   5.270   1.050   6.646 -0.3737  0.1651 -0.0961
  179SOPE   C2120380   5.309   0.925   6.646 -0.1059 -0.1136  0.0117
  179SOPE   O2220381   5.421   0.886   6.630 -0.1771 -0.1817 -0.4932
  179SOPE   C2220382   5.191   0.836   6.688  0.0094  0.1894  0.5169
  179SOPE   H2R20383   5.172   0.767   6.603 -0.2156 -1.5832  1.9380
  179SOPE   H2S20384   5.100   0.899   6.700 -2.6206 -3.0760 -0.6090
  179SOPE    C320385   5.328   1.289   6.674 -0.0713 -0.7567 -0.4810
  179SOPE    HX20386   5.233   1.319   6.626 -0.2467 -2.2920 -1.1663
  179SOPE    HY20387   5.414   1.358   6.659 -1.7211  1.6793  0.6681
  179SOPE   O3120388   5.307   1.277   6.817 -0.0192 -0.7043  0.1700
  179SOPE   C3120389   5.188   1.249   6.862  0.4647 -0.0150 -0.1974
  179SOPE   O3220390   5.094   1.210   6.792  0.3640  0.3658  0.4089
  179SOPE   C3220391   5.174   1.271   7.008  0.3876 -0.5362 -0.1310
  179SOPE   H2X20392   5.085   1.206   7.016 -0.9812  1.1146 -1.1562
  179SOPE   H2Y20393   5.147   1.378   7.021  0.1625 -0.6946  0.7809
  179SOPE   C2320394   5.212   0.744   6.815  0.3636  0.7684  0.1532
  179SOPE   H3R20395   5.319   0.722   6.837 -0.3036 -0.5540  2.4328
  179SOPE   H3S20396   5.157   0.649   6.801 -1.1992  0.4639  5.8115
  179SOPE   C2420397   5.143   0.805   6.946 -0.6426 -0.0785  0.0941
  179SOPE   H4R20398   5.200   0.897   6.972 -3.1795  1.1960  1.4834
  179SOPE   H4S20399   5.040   0.829   6.911 -0.7315 -0.6990 -0.0845
  179SOPE   C2520400   5.133   0.704   7.059  0.2055  0.8410 -0.1035
  179SOPE   H5R20401   5.072   0.620   7.019  0.4393  0.4959  0.2584
  179SOPE   H5S20402   5.237   0.671   7.077 -1.1726 -4.0202  0.4343
  179SOPE   C2620403   5.079   0.767   7.186  0.3017  0.4273  0.4518
  179SOPE   H6R20404   5.129   0.860   7.223 -0.6682 -0.1152  3.3476
  179SOPE   H6S20405   4.969   0.776   7.169  0.4090 -1.4184 -1.6603
  179SOPE   C2720406   5.090   0.664   7.301 -0.1253  0.2262 -0.1257
  179SOPE   H7R20407   5.011   0.598   7.259  1.3338 -0.7625 -1.4212
  179SOPE   H7S20408   5.177   0.596   7.288 -2.8577 -3.3874 -1.1281
  179SOPE   C2820409   5.067   0.694   7.447 -0.6056  0.2276 -0.0744
  179SOPE   H8R20410   4.966   0.740   7.451 -0.8099 -0.1398 -0.8158
  179SOPE   H8S20411   5.056   0.596   7.499  0.0536  0.1721 -0.0311
  179SOPE   C2920412   5.168   0.772   7.517 -0.6017  0.3443 -0.7850
  179SOPE   H9120413   5.268   0.774   7.472  1.0045  0.8394  2.5306
  179SOPE  C21020414   5.144   0.854   7.623  0.1683 -0.3349 -0.4157
  179SOPE  H10120415   5.233   0.908   7.657  0.0088 -0.9665  1.0593
  179SOPE  C21120416   5.017   0.873   7.703  1.2074 -0.7685  0.0102
  179SOPE  H11R20417   4.925   0.824   7.666 -0.2703  1.6362  0.3067
  179SOPE  H11S20418   5.003   0.983   7.696  1.1315 -0.6924  1.2377
  179SOPE  C21220419   5.042   0.841   7.849 -0.4323  0.1900  0.1800
  179SOPE  H12R20420   4.986   0.910   7.915  0.2073  1.3934 -0.4830
  179SOPE  H12S20421   5.148   0.859   7.879  0.5154 -0.5241 -2.4417
  179SOPE  C21320422   5.008   0.699   7.886  0.1531  0.0848  0.5446
  179SOPE  H13R20423   5.064   0.642   7.808  0.4439  0.6600  0.3319
  179SOPE  H13S20424   4.901   0.679   7.866 -0.3151  0.9958  2.0168
  179SOPE  C21420425   5.040   0.641   8.021 -0.4027 -0.2450 -0.4152
  179SOPE  H14R20426   5.143   0.672   8.049 -1.1522  1.1700  0.9092
  179SOPE  H14S20427   5.028   0.531   8.024  1.3765 -0.4726 -0.4505
  179SOPE  C21520428   4.943   0.698   8.126  0.0791  0.3438  0.0526
  179SOPE  H15R20429   4.862   0.749   8.069  2.7571  3.3500 -1.4209
  179SOPE  H15S20430   5.007   0.777   8.170  1.3651 -0.8821  0.4307
  179SOPE  C21620431   4.895   0.603   8.230 -0.2857  0.4675  0.3700
  179SOPE  H16R20432   4.972   0.567   8.301 -0.3454  0.6434  0.5268
  179SOPE  H16S20433   4.860   0.514   8.173  2.5358 -0.6699  0.2458
  179SOPE  C21720434   4.771   0.662   8.296  0.3763 -0.5018 -0.2957
  179SOPE  H17R20435   4.694   0.683   8.219 -2.1952 -0.6660  2.0833
  179SOPE  H17S20436   4.794   0.757   8.349 -1.2688 -0.5711  0.5888
  179SOPE  C21820437   4.712   0.571   8.409  0.1701  0.2481 -0.3068
  179SOPE  H18R20438   4.633   0.628   8.463  0.8389  1.5149 -0.6229
  179SOPE  H18S20439   4.789   0.544   8.484 -0.3962 -1.2094 -0.2315
  179SOPE  H18T20440   4.661   0.475   8.387 -1.4307  0.7693  0.9432
  179SOPE   C3320441   5.287   1.214   7.099 -0.0654 -0.2398 -0.6566
  179SOPE   H3X20442   5.374   1.276   7.067 -0.4492  1.2094  0.9088
  179SOPE   H3Y20443   5.293   1.105   7.080 -1.2410 -0.1858 -1.4473
  179SOPE   C3420444   5.249   1.232   7.251 -0.5225 -0.3799 -1.0660
  179SOPE   H4X20445   5.221   1.340   7.260  2.6352  0.4382  0.3811
  179SOPE   H4Y20446   5.339   1.213   7.313 -1.9014 -0.4760  0.9883
  179SOPE   C3520447   5.132   1.152   7.301  0.3239 -0.5404 -0.3709
  179SOPE   H5X20448   5.161   1.053   7.344  0.6141 -1.0115 -1.5993
  179SOPE   H5Y20449   5.054   1.131   7.225 -1.8089  2.0648  0.9346
  179SOPE   C3620450   5.048   1.237   7.407  0.5300  0.5386  0.3388
  179SOPE   H6X20451   4.950   1.185   7.416  0.9727 -0.2891  0.4354
  179SOPE   H6Y20452   5.032   1.339   7.366  0.8313  1.5031  2.4894
  179SOPE   C3720453   5.111   1.230   7.542  0.1582 -0.7056  0.3909
  179SOPE   H7X20454   5.205   1.289   7.533 -1.3045  1.7705  0.3057
  179SOPE   H7Y20455   5.131   1.129   7.582 -0.6627 -0.6338  1.0172
  179SOPE   C3820456   5.030   1.304   7.643  0.3776 -0.7386  0.2630
  179SOPE   H8X20457   4.923   1.273   7.645 -0.3012  1.2628 -1.7080
  179SOPE   H8Y20458   5.025   1.409   7.608 -1.5926 -1.1170 -0.7771
  179SOPE   C3920459   5.085   1.294   7.784  0.1375  0.1774  0.1722
  179SOPE   H9X20460   5.191   1.328   7.787 -0.2895  1.4788  3.1426
  179SOPE   H9Y20461   5.082   1.185   7.807 -0.2153 -0.1446 -1.2608
  179SOPE  C31020462   5.005   1.376   7.886  0.4922 -0.4854 -0.7573
  179SOPE  H10X20463   4.917   1.425   7.840  0.5631  0.3170 -0.0664
  179SOPE  H10Y20464   5.074   1.453   7.928 -0.9566  0.7173 -0.4840
  179SOPE  C31120465   4.948   1.286   7.993 -1.2128 -0.8011  0.0617
  179SOPE  H11X20466   5.038   1.226   8.019 -0.6056 -0.6332 -1.5370
  179SOPE  H11Y20467   4.872   1.223   7.940 -1.4065 -0.2991 -0.2685
  179SOPE  C31220468   4.884   1.374   8.096  0.2099  0.3725  0.1280
  179SOPE  H12X20469   4.807   1.439   8.050  0.4891  1.3456  1.0063
  179SOPE  H12Y20470   4.955   1.445   8.143  0.7796  0.1518 -0.3993
  179SOPE  C31320471   4.814   1.299   8.214  0.1659  0.3868 -0.4960
  179SOPE  H13X20472   4.725   1.260   8.161  0.7623 -0.1529 -1.1041
  179SOPE  H13Y20473   4.776   1.371   8.290  2.7111  1.8108 -0.4577
  179SOPE  C31420474   4.879   1.179   8.276 -0.2232  0.3031 -0.3455
  179SOPE  H14X20475   4.906   1.105   8.198 -0.2712  1.5913 -1.6363
  179SOPE  H14Y20476   4.808   1.131   8.347 -0.1884  1.7131  0.6905
  179SOPE  C31520477   5.012   1.217   8.343  0.0251  0.8139  0.8879
  179SOPE  H15X20478   4.990   1.304   8.409  1.9381  2.0144  0.0383
  179SOPE  H15Y20479   5.081   1.257   8.266 -1.2201  2.0233  0.3846
  179SOPE  C31620480   5.084   1.102   8.423  0.1954  0.3313  0.1288
  179SOPE  H16X20481   5.094   1.009   8.363  0.2878  0.2066  0.3358
  179SOPE  H16Y20482   5.029   1.065   8.512  0.8971 -1.1177 -0.0100
  179SOPE  C31720483   5.224   1.147   8.476 -1.3805 -0.7204  0.3806
  179SOPE  H17X20484   5.271   1.195   8.387 -2.6813 -0.1951 -0.0438
  179SOPE  H17Y20485   5.294   1.063   8.494 -0.5110 -0.0294  0.3091
  179SOPE  C31820486   5.223   1.229   8.604  0.3204  0.2480 -0.0048
  179SOPE  H18X20487   5.162   1.320   8.588  1.3962  0.5296 -3.0683
  179SOPE  H18Y20488   5.327   1.257   8.631  0.4479  0.0167 -0.2546
  179SOPE  H18Z20489   5.180   1.169   8.687 -0.1134 -1.3208 -1.3042
  180SOPE     N20490   4.719   4.736   6.464  0.2189 -0.2502  0.0041
  180SOPE   HN120491   4.637   4.795   6.489  0.4901 -0.6216  1.9151
  180SOPE   HN220492   4.782   4.745   6.546 -0.1516 -0.2348  0.2870
  180SOPE   HN320493   4.755   4.774   6.374  0.3937 -2.0706 -0.7309
  180SOPE   C1220494   4.664   4.602   6.431 -0.4704  0.0893  0.4187
  180SOPE  H12A20495   4.617   4.557   6.521  1.5281  0.2298  1.5791
  180SOPE  H12B20496   4.743   4.531   6.398 -1.6317 -1.7531  1.4243
  180SOPE   C1120497   4.555   4.617   6.316 -0.5202  0.1152 -0.8213
  180SOPE  H11A20498   4.529   4.510   6.300  1.1227 -0.1545 -1.9671
  180SOPE  H11B20499   4.598   4.643   6.216 -1.1446  3.2604 -0.3662
  180SOPE     P20500   4.319   4.665   6.415 -0.0479 -0.2031 -0.0946
  180SOPE   O1320501   4.210   4.764   6.385  0.4488 -0.3310  0.6069
  180SOPE   O1420502   4.347   4.642   6.560  0.0372 -0.0636 -0.4817
  180SOPE   O1220503   4.455   4.704   6.345  0.5166  0.3455 -0.1623
  180SOPE   O1120504   4.286   4.520   6.344  0.0491 -0.0019  0.1568
  180SOPE    C120505   4.171   4.453   6.391  0.0550  0.4461  0.3759
  180SOPE    HA20506   4.118   4.412   6.302 -0.7090 -0.8246  1.3770
  180SOPE    HB20507   4.085   4.511   6.431 -0.8432 -0.6743  0.1458
  180SOPE    C220508   4.209   4.331   6.475 -0.3841 -0.1431  0.3050
  180SOPE    HS20509   4.115   4.272   6.481 -2.3299  2.5959 -1.2468
  180SOPE   O2120510   4.255   4.381   6.606  0.2700 -0.1672 -0.0395
  180SOPE   C2120511   4.154   4.429   6.680  0.4955 -0.1303  0.3429
  180SOPE   O2220512   4.038   4.424   6.647  0.7131  0.3904 -0.0878
  180SOPE   C2220513   4.207   4.501   6.806 -0.8976 -0.9536  0.1292
  180SOPE   H2R20514   4.139   4.584   6.832 -0.3299  0.1119 -1.6285
  180SOPE   H2S20515   4.308   4.542   6.781 -0.4575 -1.0188  1.6969
  180SOPE    C320516   4.328   4.245   6.403 -0.2862 -0.4520  0.2042
  180SOPE    HX20517   4.421   4.305   6.416 -0.1333 -0.2667 -1.5073
  180SOPE    HY20518   4.313   4.239   6.293 -0.0680  2.2630 -0.0323
  180SOPE   O3120519   4.353   4.115   6.476  0.5714  0.3512 -0.0101
  180SOPE   C3120520   4.272   4.019   6.434  0.1630 -0.2974  0.5960
  180SOPE   O3220521   4.179   4.032   6.360 -0.7382  0.2941  0.4299
  180SOPE   C3220522   4.318   3.891   6.508  0.0488  0.3781  0.3457
  180SOPE   H2X20523   4.335   3.911   6.616  3.0486 -0.5063  0.1435
  180SOPE   H2Y20524   4.421   3.869   6.472  0.2469 -0.1778  1.2421
  180SOPE   C2320525   4.217   4.399   6.922  0.1772 -0.3551 -0.1235
  180SOPE   H3R20526   4.271   4.305   6.897 -1.1242 -0.9144 -0.9266
  180SOPE   H3S20527   4.118   4.360   6.953 -0.1338  0.4405 -0.0909
  180SOPE   C2420528   4.282   4.460   7.039  0.6538 -0.1629 -0.6649
  180SOPE   H4R20529   4.381   4.501   7.009  0.3812  1.1006  0.0688
  180SOPE   H4S20530   4.216   4.545   7.066 -1.8896 -1.7567 -1.4996
  180SOPE   C2520531   4.297   4.366   7.161  1.0736  0.2986  0.2024
  180SOPE   H5R20532   4.194   4.354   7.200  1.5826  1.4912  2.0306
  180SOPE   H5S20533   4.346   4.268   7.143  1.2935  0.3522  0.4996
  180SOPE   C2620534   4.373   4.433   7.280 -0.1309  0.4273  0.2357
  180SOPE   H6R20535   4.482   4.441   7.258 -0.0309 -2.0337 -0.4477
  180SOPE   H6S20536   4.332   4.535   7.299  0.6024  0.5458  1.2921
  180SOPE   C2720537   4.344   4.354   7.412  0.0882  0.1524 -0.4454
  180SOPE   H7R20538   4.240   4.324   7.387  0.5627  0.3214 -2.8714
  180SOPE   H7S20539   4.397   4.257   7.411  1.0735  0.6559 -2.4002
  180SOPE   C2820540   4.364   4.420   7.547 -0.1366 -0.1551 -0.1372
  180SOPE   H8R20541   4.472   4.438   7.561 -0.1754 -0.0563  0.0317
  180SOPE   H8S20542   4.320   4.521   7.539 -2.4448 -0.9277  1.6610
  180SOPE   C2920543   4.308   4.347   7.664  0.0031 -0.4534  0.2573
  180SOPE   H9120544   4.207   4.304   7.666 -1.1127  2.0054  0.9022
  180SOPE  C21020545   4.373   4.333   7.782  0.1328  0.1898 -0.1188
  180SOPE  H10120546   4.327   4.287   7.871 -0.1991  1.3769  0.3513
  180SOPE  C21120547   4.518   4.375   7.813 -0.5493  0.1764  0.8834
  180SOPE  H11R20548   4.521   4.485   7.795 -2.1958 -0.2640 -3.1040
  180SOPE  H11S20549   4.595   4.334   7.744 -1.8809  2.0886 -1.9246
  180SOPE  C21220550   4.563   4.339   7.961  0.3866 -0.1420  0.5240
  180SOPE  H12R20551   4.672   4.363   7.955  0.1212  0.7881 -1.5794
  180SOPE  H12S20552   4.562   4.231   7.989  0.5862  0.1613  1.7747
  180SOPE  C21320553   4.495   4.430   8.062  0.3078  0.1153  0.1268
  180SOPE  H13R20554   4.384   4.434   8.048  0.4520  0.1484 -1.1351
  180SOPE  H13S20555   4.537   4.528   8.032  0.1276 -0.1407 -1.0354
  180SOPE  C21420556   4.525   4.385   8.196  0.3545 -0.0192 -0.1599
  180SOPE  H14R20557   4.635   4.371   8.210  0.1113 -0.4534  1.6048
  180SOPE  H14S20558   4.501   4.278   8.215  0.0645 -0.2722 -1.7915
  180SOPE  C21520559   4.460   4.477   8.308  0.0894 -0.4659  0.5862
  180SOPE  H15R20560   4.355   4.492   8.274 -0.2823 -0.3312  1.7696
  180SOPE  H15S20561   4.504   4.579   8.298 -2.6501  0.8259  0.8656
  180SOPE  C21620562   4.466   4.419   8.444 -0.7591 -0.3513 -0.3795
  180SOPE  H16R20563   4.459   4.502   8.518  0.7254 -0.6013  0.0731
  180SOPE  H16S20564   4.566   4.371   8.451  0.2544  1.8563  1.7049
  180SOPE  C21720565   4.357   4.323   8.468  0.7631 -0.1935 -0.1341
  180SOPE  H17R20566   4.348   4.295   8.575 -1.4519  0.3817 -0.1240
  180SOPE  H17S20567   4.371   4.224   8.419 -0.8059 -0.5015 -0.0236
  180SOPE  C21820568   4.204   4.353   8.421  0.4219  0.4366  0.0341
  180SOPE  H18R20569   4.164   4.447   8.465  0.8152  0.7511 -0.2683
  180SOPE  H18S20570   4.146   4.262   8.448  0.3747  0.5300  0.2483
  180SOPE  H18T20571   4.206   4.365   8.311  3.5577  2.9253  0.1993
  180SOPE   C3320572   4.244   3.759   6.484  0.5974 -0.5225  0.9010
  180SOPE   H3X20573   4.258   3.722   6.380  0.4186 -0.9902  1.0432
  180SOPE   H3Y20574   4.134   3.777   6.485  0.4441 -1.0033 -1.4170
  180SOPE   C3420575   4.280   3.640   6.576  0.5981 -0.5789  0.1451
  180SOPE   H4X20576   4.391   3.639   6.582  0.5306 -0.0887  2.4835
  180SOPE   H4Y20577   4.247   3.549   6.522 -1.6072 -0.1084  0.5759
  180SOPE   C3520578   4.201   3.646   6.711  0.8089  0.1577  0.5248
  180SOPE   H5X20579   4.225   3.545   6.751  0.5163 -0.7447 -1.4880
  180SOPE   H5Y20580   4.091   3.643   6.698  0.7811  0.3035  0.7081
  180SOPE   C3620581   4.246   3.755   6.816 -0.1474  0.0964  0.0330
  180SOPE   H6X20582   4.216   3.858   6.788 -1.3959  0.1475  1.4455
  180SOPE   H6Y20583   4.355   3.771   6.831 -0.1853 -0.0678  0.4968
  180SOPE   C3720584   4.184   3.739   6.957  0.1180  0.0880  0.5984
  180SOPE   H7X20585   4.219   3.645   7.005  2.2944 -0.6896 -2.2183
  180SOPE   H7Y20586   4.073   3.727   6.957  0.1268 -0.2948  2.3902
  180SOPE   C3820587   4.229   3.853   7.048  0.5636  0.2667 -0.1615
  180SOPE   H8X20588   4.202   3.950   7.003 -0.3403  0.5957  1.0290
  180SOPE   H8Y20589   4.340   3.847   7.054  0.5735  1.2087  0.9314
  180SOPE   C3920590   4.176   3.854   7.185  0.2599  0.2534  0.1965
  180SOPE   H9X20591   4.190   3.758   7.238 -1.8778 -1.8038 -2.6477
  180SOPE   H9Y20592   4.067   3.877   7.181  0.3608  0.8118  0.6133
  180SOPE  C31020593   4.224   3.976   7.269 -0.0772  0.0965 -0.4834
  180SOPE  H10X20594   4.184   4.066   7.218  0.0603  0.4771  0.0694
  180SOPE  H10Y20595   4.335   3.980   7.258  0.0593 -2.1546 -0.5316
  180SOPE  C31120596   4.180   3.978   7.418  0.2206  0.0174  0.2749
  180SOPE  H11X20597   4.080   3.931   7.431  1.1394 -1.5980  1.8592
  180SOPE  H11Y20598   4.180   4.086   7.447  1.7313  0.6482 -1.7860
  180SOPE  C31220599   4.275   3.881   7.504  0.4825  0.6144  0.1156
  180SOPE  H12X20600   4.382   3.911   7.505  1.0651 -1.3355  0.3472
  180SOPE  H12Y20601   4.274   3.779   7.461  1.6192  0.2347  0.9408
  180SOPE  C31320602   4.242   3.866   7.657  0.0085  0.0383  0.3240
  180SOPE  H13X20603   4.313   3.798   7.707 -0.4157 -0.2928  0.4741
  180SOPE  H13Y20604   4.140   3.822   7.670 -0.1086  0.4715  0.9245
  180SOPE  C31420605   4.246   4.002   7.720 -0.5431  0.3257  0.8030
  180SOPE  H14X20606   4.183   4.071   7.661  1.2152  0.4036 -1.0754
  180SOPE  H14Y20607   4.349   4.034   7.694 -0.6397  0.5858  0.7431
  180SOPE  C31520608   4.214   3.997   7.865 -0.5425 -0.3298 -0.5927
  180SOPE  H15X20609   4.268   4.084   7.910 -0.9655 -0.9566  1.2223
  180SOPE  H15Y20610   4.258   3.911   7.920 -2.3610 -1.2415 -0.5058
  180SOPE  C31620611   4.068   4.009   7.901 -0.4126 -0.0108 -0.8414
  180SOPE  H16X20612   4.007   3.937   7.843  0.1959  0.2886 -1.8950
  180SOPE  H16Y20613   4.018   4.108   7.892 -0.9163  0.0803  2.0676
  180SOPE  C31720614   4.053   3.980   8.056 -0.1250 -0.6952 -0.2211
  180SOPE  H17X20615   4.129   3.905   8.087 -0.9822 -1.1815  0.7270
  180SOPE  H17Y20616   3.951   3.944   8.080 -0.0220 -1.2234 -0.5604
  180SOPE  C31820617   4.073   4.104   8.141  0.1381  1.3347 -0.3104
  180SOPE  H18X20618   3.980   4.165   8.135 -0.4037  0.5300 -0.3877
  180SOPE  H18Y20619   4.150   4.165   8.090  2.3921 -0.4597  0.7432
  180SOPE  H18Z20620   4.109   4.074   8.242  2.2077 -1.8207 -1.8243
  181SOPE     N20621   3.475   6.643   6.225  0.1019 -0.0820  0.6508
  181SOPE   HN120622   3.555   6.691   6.178 -0.9412  2.1080  1.0103
  181SOPE   HN220623   3.437   6.711   6.293 -0.1453 -0.7527  1.1949
  181SOPE   HN320624   3.516   6.569   6.286  0.6780 -0.8740 -0.6367
  181SOPE   C1220625   3.361   6.592   6.138  0.1818 -0.1441 -0.1823
  181SOPE  H12A20626   3.297   6.527   6.202 -0.1778 -0.0470 -0.4433
  181SOPE  H12B20627   3.406   6.524   6.063 -0.6725  0.7225 -1.5075
  181SOPE   C1120628   3.287   6.719   6.088 -0.0954  0.5288 -0.4864
  181SOPE  H11A20629   3.206   6.677   6.024  0.4527 -0.9215 -0.2677
  181SOPE  H11B20630   3.355   6.786   6.031  1.3818 -1.8308 -1.6799
  181SOPE     P20631   3.110   6.888   6.177 -0.2097 -0.0482 -0.0937
  181SOPE   O1320632   2.998   6.810   6.115  0.2231 -0.2566 -0.1396
  181SOPE   O1420633   3.157   7.006   6.102 -0.7462  0.1974 -0.5285
  181SOPE   O1220634   3.233   6.790   6.197 -0.0385  0.5587  0.7021
  181SOPE   O1120635   3.049   6.922   6.325 -0.3395 -0.1222  0.0366
  181SOPE    C120636   3.020   6.820   6.417  0.4578 -0.1298  0.6623
  181SOPE    HA20637   3.031   6.857   6.521 -1.1651  1.3270  0.3537
  181SOPE    HB20638   3.096   6.739   6.408  1.4866  0.8901 -0.1996
  181SOPE    C220639   2.876   6.764   6.412  0.5305  0.7205 -0.0070
  181SOPE    HS20640   2.854   6.736   6.307 -3.6283  1.2089  0.5437
  181SOPE   O2120641   2.787   6.874   6.449  0.1535  0.4477 -0.2867
  181SOPE   C2120642   2.664   6.848   6.418  0.4994  0.1140 -0.6170
  181SOPE   O2220643   2.627   6.738   6.369  0.5694  0.3335  0.1751
  181SOPE   C2220644   2.572   6.966   6.438 -0.0195 -0.5015  0.0581
  181SOPE   H2R20645   2.540   6.986   6.334  0.7216  1.1618  0.1096
  181SOPE   H2S20646   2.630   7.046   6.490 -1.5990 -0.6285  2.1555
  181SOPE    C320647   2.859   6.643   6.514 -0.0170  0.4348 -0.1916
  181SOPE    HX20648   2.947   6.579   6.493 -0.6124 -0.6846  0.6068
  181SOPE    HY20649   2.768   6.584   6.489 -0.0638 -0.1799  1.2790
  181SOPE   O3120650   2.855   6.691   6.653  0.7783 -1.2832  0.1318
  181SOPE   C3120651   2.771   6.626   6.736 -0.0387 -0.4425  0.4226
  181SOPE   O3220652   2.694   6.542   6.689 -0.0444  0.5617  0.0176
  181SOPE   C3220653   2.777   6.675   6.883  0.0580 -0.6285  0.3722
  181SOPE   H2X20654   2.716   6.768   6.887  0.8596 -0.1032  0.5138
  181SOPE   H2Y20655   2.881   6.696   6.914  0.4110 -2.4896  0.5387
  181SOPE   C2320656   2.446   6.927   6.517  0.1725 -0.1392 -0.5711
  181SOPE   H3R20657   2.406   6.832   6.474  0.1621 -0.9743  1.2104
  181SOPE   H3S20658   2.384   7.018   6.506  0.6313  0.7053  2.8166
  181SOPE   C2420659   2.476   6.903   6.668  0.2288 -0.1497 -0.0860
  181SOPE   H4R20660   2.561   6.833   6.682  1.6287  0.8176 -3.0765
  181SOPE   H4S20661   2.504   7.001   6.713  0.8605 -1.0043  1.4685
  181SOPE   C2520662   2.343   6.855   6.748  0.0477  0.0072 -0.2654
  181SOPE   H5R20663   2.266   6.906   6.686 -0.7316  0.1383  0.7838
  181SOPE   H5S20664   2.338   6.746   6.728  1.6977 -0.7214  2.6745
  181SOPE   C2620665   2.333   6.896   6.894  0.2503 -0.1738  0.3411
  181SOPE   H6R20666   2.321   7.006   6.896 -0.8634 -0.2753 -0.1952
  181SOPE   H6S20667   2.252   6.851   6.956  0.9298  0.6717  1.9011
  181SOPE   C2720668   2.454   6.850   6.974 -0.2521  0.5288  1.3392
  181SOPE   H7R20669   2.489   6.746   6.957  1.3037  0.8206  2.5397
  181SOPE   H7S20670   2.540   6.912   6.942 -1.9602  2.7429  0.7647
  181SOPE   C2820671   2.426   6.863   7.121  0.1491  0.0987 -0.1141
  181SOPE   H8R20672   2.400   6.968   7.147 -1.2410 -0.6318  1.6995
  181SOPE   H8S20673   2.349   6.788   7.148  1.2966 -2.0830 -2.5650
  181SOPE   C2920674   2.559   6.839   7.186  0.8977 -0.4945 -0.1548
  181SOPE   H9120675   2.648   6.893   7.148  1.3665 -0.1109  1.4005
  181SOPE  C21020676   2.567   6.772   7.301 -0.4311  0.0528  0.3734
  181SOPE  H10120677   2.665   6.770   7.352  0.4839  3.4538 -0.9988
  181SOPE  C21120678   2.455   6.697   7.369 -0.4835  0.6865 -0.5943
  181SOPE  H11R20679   2.452   6.589   7.343 -1.8519  0.2005  1.3348
  181SOPE  H11S20680   2.355   6.743   7.353 -1.4148 -0.9838  0.1946
  181SOPE  C21220681   2.478   6.689   7.522 -0.6115  0.7951 -0.1721
  181SOPE  H12R20682   2.578   6.642   7.531  0.1587  2.5663  1.2948
  181SOPE  H12S20683   2.402   6.620   7.564 -0.3044  1.4273  1.5197
  181SOPE  C21320684   2.491   6.830   7.584  0.5601 -0.0728 -0.1081
  181SOPE  H13R20685   2.391   6.879   7.576  0.4826  0.5771  3.2983
  181SOPE  H13S20686   2.563   6.894   7.530  0.6565  0.1264  0.2505
  181SOPE  C21420687   2.525   6.830   7.736  0.4848 -0.2920 -0.5930
  181SOPE  H14R20688   2.515   6.938   7.763 -1.4203 -0.6543  0.3558
  181SOPE  H14S20689   2.628   6.792   7.751 -0.0140 -0.8373  1.9392
  181SOPE  C21520690   2.434   6.743   7.825 -0.4393  0.0925 -0.0456
  181SOPE  H15R20691   2.447   6.641   7.782  0.8906  0.4294 -0.4951
  181SOPE  H15S20692   2.330   6.779   7.817  0.0375  1.1874 -2.3804
  181SOPE  C21620693   2.484   6.736   7.973  0.3666  0.4794 -0.0281
  181SOPE  H16R20694   2.592   6.708   7.979  0.1985  0.0736  4.3534
  181SOPE  H16S20695   2.433   6.653   8.027  2.9050 -0.4025  1.1715
  181SOPE  C21720696   2.454   6.847   8.069 -0.2956 -0.3441  0.0220
  181SOPE  H17R20697   2.348   6.873   8.090 -0.3449 -0.6710  0.1844
  181SOPE  H17S20698   2.498   6.935   8.017 -2.4739  0.6467 -0.2695
  181SOPE  C21820699   2.520   6.830   8.206  0.0308  0.1935  0.0941
  181SOPE  H18R20700   2.482   6.730   8.236  0.0980  0.3106  0.5719
  181SOPE  H18S20701   2.482   6.905   8.278  2.1673  0.5712  0.8804
  181SOPE  H18T20702   2.631   6.834   8.206  0.0354  3.9668  1.9600
  181SOPE   C3320703   2.718   6.584   6.982 -0.0322  0.0974 -0.5506
  181SOPE   H3X20704   2.609   6.567   6.966 -0.1929 -0.4337  1.0080
  181SOPE   H3Y20705   2.719   6.625   7.085  1.8166 -0.4002 -0.3365
  181SOPE   C3420706   2.793   6.457   6.990 -0.4745 -0.3009 -0.3979
  181SOPE   H4X20707   2.895   6.482   7.026 -0.1993  3.0243 -3.0344
  181SOPE   H4Y20708   2.787   6.402   6.894 -0.4726 -1.2161  0.1165
  181SOPE   C3520709   2.725   6.366   7.094 -0.9602 -0.1981 -0.3341
  181SOPE   H5X20710   2.747   6.260   7.068 -2.1955 -0.3282 -0.9568
  181SOPE   H5Y20711   2.614   6.372   7.093 -1.1041 -1.6717  1.1146
  181SOPE   C3620712   2.757   6.392   7.241  0.0088  0.2416 -0.3791
  181SOPE   H6X20713   2.748   6.501   7.261 -0.0973  0.6352 -2.3408
  181SOPE   H6Y20714   2.860   6.355   7.261 -0.4301 -1.2377 -0.7600
  181SOPE   C3720715   2.663   6.334   7.350  0.1119  0.1003  0.1298
  181SOPE   H7X20716   2.657   6.225   7.328  1.2806  0.5018 -2.4696
  181SOPE   H7Y20717   2.566   6.389   7.342  0.9656  1.8063  0.9905
  181SOPE   C3820718   2.718   6.357   7.494 -0.1562  0.1192 -0.3660
  181SOPE   H8X20719   2.754   6.461   7.507 -1.1596  0.5781 -1.0812
  181SOPE   H8Y20720   2.798   6.283   7.516 -1.1282 -0.6163  0.8968
  181SOPE   C3920721   2.618   6.320   7.596 -0.4455 -0.5473 -0.2366
  181SOPE   H9X20722   2.588   6.218   7.564  0.5412 -1.3727  1.2959
  181SOPE   H9Y20723   2.530   6.387   7.604 -0.4160 -0.6294  1.1305
  181SOPE  C31020724   2.674   6.329   7.736 -0.3050 -0.0315  0.4611
  181SOPE  H10X20725   2.690   6.438   7.750 -2.1564  0.2409  0.7039
  181SOPE  H10Y20726   2.778   6.289   7.727 -0.3445  0.1930 -1.3983
  181SOPE  C31120727   2.579   6.263   7.833 -1.4853  0.2150  0.3366
  181SOPE  H11X20728   2.550   6.161   7.800  0.5812 -0.5627  0.7484
  181SOPE  H11Y20729   2.485   6.322   7.831 -1.9410 -0.2723 -4.5378
  181SOPE  C31220730   2.627   6.260   7.979 -0.4637  0.0200  0.0964
  181SOPE  H12X20731   2.714   6.191   7.987  1.2619  1.9337 -1.1429
  181SOPE  H12Y20732   2.547   6.213   8.040 -0.6234  1.4679  1.0505
  181SOPE  C31320733   2.657   6.398   8.033 -0.2645  0.4817 -0.0437
  181SOPE  H13X20734   2.568   6.465   8.037 -0.1803  0.5880  0.0589
  181SOPE  H13Y20735   2.732   6.448   7.969  0.3345  0.1518  0.3914
  181SOPE  C31420736   2.709   6.400   8.181  0.7913  0.2905  0.1156
  181SOPE  H14X20737   2.770   6.492   8.192 -2.3876  2.6482 -0.8312
  181SOPE  H14Y20738   2.773   6.309   8.190 -1.6954 -1.6811 -0.7707
  181SOPE  C31520739   2.596   6.410   8.288  0.1254 -0.0401  0.4627
  181SOPE  H15X20740   2.536   6.317   8.283 -0.0282  0.1079 -1.6638
  181SOPE  H15Y20741   2.533   6.499   8.269  1.1130  0.5894  0.0721
  181SOPE  C31620742   2.644   6.424   8.436 -0.7232  0.3174  0.0536
  181SOPE  H16X20743   2.698   6.520   8.450 -1.3366  0.5152  1.1619
  181SOPE  H16Y20744   2.717   6.342   8.454 -0.9115  0.2931  0.7271
  181SOPE  C31720745   2.523   6.425   8.531  0.0166  0.4210 -0.4858
  181SOPE  H17X20746   2.458   6.337   8.510 -0.9445  0.6764  1.3007
  181SOPE  H17Y20747   2.464   6.517   8.513  0.5146  0.5808 -1.3834
  181SOPE  C31820748   2.557   6.400   8.681 -0.5220  0.3947  0.6730
  181SOPE  H18X20749   2.621   6.483   8.718 -0.3314  0.2753  0.6121
  181SOPE  H18Y20750   2.613   6.307   8.705  1.6749  1.6025  0.5013
  181SOPE  H18Z20751   2.468   6.411   8.747 -0.7860 -0.5299  0.4898
  182SOPE     N20752   4.965   1.218   6.547  0.3385 -0.0529  0.0430
  182SOPE   HN120753   5.028   1.278   6.489  0.9934 -1.6948 -1.0344
  182SOPE   HN220754   4.867   1.249   6.562  0.4581 -0.7560  2.6979
  182SOPE   HN320755   5.008   1.216   6.641 -3.0778 -1.3819  1.7086
  182SOPE   C1220756   4.972   1.089   6.473 -0.0733  0.7492 -0.1036
  182SOPE  H12A20757   4.928   1.012   6.540  0.3269  1.2570  0.7604
  182SOPE  H12B20758   5.079   1.062   6.461  0.2079  0.7721  1.9176
  182SOPE   C1120759   4.895   1.101   6.339 -0.2389 -0.3854  0.1274
  182SOPE  H11A20760   4.908   1.003   6.289  0.9073 -0.8502  1.2904
  182SOPE  H11B20761   4.939   1.170   6.264 -1.4391  0.1606 -0.0989
  182SOPE     P20762   4.664   1.097   6.226 -0.3584  0.2697 -0.1836
  182SOPE   O1320763   4.659   0.950   6.205  0.0346  0.3653 -0.1389
  182SOPE   O1420764   4.725   1.173   6.111  0.5394 -0.0393 -0.3619
  182SOPE   O1220765   4.756   1.135   6.350 -0.2917  0.9318  0.1552
  182SOPE   O1120766   4.521   1.151   6.264  0.2007  0.1741 -0.4993
  182SOPE    C120767   4.509   1.275   6.349  0.1031  0.6046 -0.5083
  182SOPE    HA20768   4.428   1.341   6.311 -0.2341 -0.2286 -1.2950
  182SOPE    HB20769   4.609   1.322   6.345  0.5903 -0.4399 -1.3927
  182SOPE    C220770   4.486   1.241   6.500  0.2294  0.1553 -0.1348
  182SOPE    HS20771   4.547   1.148   6.504  0.8023  0.5536  0.9885
  182SOPE   O2120772   4.349   1.215   6.530 -0.2440  0.0552  0.2284
  182SOPE   C2120773   4.317   1.113   6.609  0.1295  0.7385  0.0810
  182SOPE   O2220774   4.393   1.027   6.653 -0.0936 -0.1741 -0.1294
  182SOPE   C2220775   4.162   1.102   6.630 -0.1748 -0.0031  0.1974
  182SOPE   H2R20776   4.144   1.100   6.739  1.1423 -1.5295  0.4283
  182SOPE   H2S20777   4.126   0.999   6.609 -0.2263  0.0195  0.1717
  182SOPE    C320778   4.535   1.348   6.605 -0.1057 -0.0538 -0.0931
  182SOPE    HX20779   4.475   1.440   6.588  2.5422  1.3304 -3.0087
  182SOPE    HY20780   4.635   1.387   6.576 -1.3389  2.0513 -1.8642
  182SOPE   O3120781   4.523   1.290   6.744 -0.5612 -0.5943  0.1085
  182SOPE   C3120782   4.632   1.216   6.772 -0.1276 -0.2833  0.0244
  182SOPE   O3220783   4.727   1.207   6.696 -0.6757  0.2017  0.4008
  182SOPE   C3220784   4.614   1.136   6.897 -0.2362 -0.4976 -0.6997
  182SOPE   H2X20785   4.551   1.051   6.865 -1.6426  0.5290 -0.7158
  182SOPE   H2Y20786   4.558   1.195   6.973  1.9730 -0.0516  0.6830
  182SOPE   C2320787   4.075   1.205   6.556 -0.0323 -0.1108 -0.0285
  182SOPE   H3R20788   3.989   1.143   6.522  1.4737 -0.9719 -2.5358
  182SOPE   H3S20789   4.131   1.246   6.469  0.9412  0.0003  0.6425
  182SOPE   C2420790   4.027   1.325   6.647  0.1243 -0.1307 -0.2769
  182SOPE   H4R20791   3.957   1.386   6.585  2.6505  0.5099 -2.6896
  182SOPE   H4S20792   3.977   1.292   6.741  1.0141  0.0708  0.2798
  182SOPE   C2520793   4.139   1.425   6.662  0.1973  0.7323 -0.6556
  182SOPE   H5R20794   4.187   1.425   6.562 -1.0161  0.6259 -1.2593
  182SOPE   H5S20795   4.099   1.528   6.677  0.6540  0.9389 -0.8286
  182SOPE   C2620796   4.231   1.398   6.779  0.0868  0.1496 -0.1104
  182SOPE   H6R20797   4.264   1.292   6.777  0.6175  0.3269 -0.9644
  182SOPE   H6S20798   4.319   1.463   6.759 -0.8246  1.2790 -0.5502
  182SOPE   C2720799   4.174   1.412   6.926  0.2862 -1.1910  0.8740
  182SOPE   H7R20800   4.124   1.511   6.931  0.0539 -1.1461 -1.3394
  182SOPE   H7S20801   4.097   1.332   6.932 -3.0877  1.8045  0.5056
  182SOPE   C2820802   4.276   1.388   7.029 -0.0368  0.6616  0.2445
  182SOPE   H8R20803   4.335   1.298   7.001  2.1207  1.1762  2.7231
  182SOPE   H8S20804   4.346   1.474   7.043  0.3094  0.1317  1.9761
  182SOPE   C2920805   4.220   1.365   7.165  0.3757 -0.3323  0.4089
  182SOPE   H9120806   4.116   1.331   7.157  0.3046  0.0012 -0.0865
  182SOPE  C21020807   4.269   1.409   7.280 -0.7594  0.2865 -0.5347
  182SOPE  H10120808   4.227   1.380   7.378  1.2057 -2.1589 -0.3050
  182SOPE  C21120809   4.393   1.483   7.286 -0.6097  0.0465 -0.0633
  182SOPE  H11R20810   4.396   1.574   7.223  0.9410 -0.3010 -0.5333
  182SOPE  H11S20811   4.477   1.420   7.251  0.9846  2.0644 -0.0945
  182SOPE  C21220812   4.435   1.557   7.422 -0.0782 -0.0315  0.0285
  182SOPE  H12R20813   4.354   1.631   7.441  0.5384  0.5069  0.6244
  182SOPE  H12S20814   4.532   1.608   7.409  0.3975 -1.2894 -1.6516
  182SOPE  C21320815   4.453   1.462   7.542 -0.0940 -0.8692  0.8097
  182SOPE  H13R20816   4.557   1.421   7.541  0.7133  1.0496  1.1457
  182SOPE  H13S20817   4.379   1.379   7.538  1.0736 -2.0458  2.2108
  182SOPE  C21420818   4.436   1.528   7.675 -0.7028 -0.4478 -0.1645
  182SOPE  H14R20819   4.333   1.569   7.673  0.4470  2.6576 -0.1978
  182SOPE  H14S20820   4.503   1.616   7.681  1.5811 -2.1460  0.7518
  182SOPE  C21520821   4.441   1.428   7.795 -0.7321 -0.1908  0.4875
  182SOPE  H15R20822   4.535   1.368   7.800  0.4934  1.5824 -0.2030
  182SOPE  H15S20823   4.353   1.363   7.778  0.0496 -1.2675  0.4619
  182SOPE  C21620824   4.403   1.496   7.926 -0.3224  0.3575  0.2517
  182SOPE  H16R20825   4.301   1.538   7.913  1.0354  4.0472  0.3841
  182SOPE  H16S20826   4.471   1.582   7.945  1.2359 -0.8394  0.2168
  182SOPE  C21720827   4.412   1.409   8.053 -0.6983  1.1563  0.6257
  182SOPE  H17R20828   4.501   1.343   8.061 -0.7849  0.8799 -0.5555
  182SOPE  H17S20829   4.323   1.344   8.038 -1.2607  1.5664  2.0276
  182SOPE  C21820830   4.407   1.498   8.181 -0.7931 -0.2888  0.0172
  182SOPE  H18R20831   4.311   1.552   8.201 -0.2777  0.5872  0.2011
  182SOPE  H18S20832   4.486   1.576   8.179 -2.4303  1.4605  0.0881
  182SOPE  H18T20833   4.424   1.436   8.271 -0.5113 -0.6521 -0.2863
  182SOPE   C3320834   4.747   1.070   6.934 -0.1597  0.3847 -1.1035
  182SOPE   H3X20835   4.833   1.139   6.928 -1.3171  1.9573 -0.2414
  182SOPE   H3Y20836   4.770   0.991   6.859 -1.9255 -3.1658  1.7474
  182SOPE   C3420837   4.748   1.001   7.070 -0.1013 -0.9948 -0.4400
  182SOPE   H4X20838   4.845   0.948   7.078 -1.4594 -3.5686  0.1758
  182SOPE   H4Y20839   4.669   0.922   7.067 -0.6968 -0.4131 -0.3076
  182SOPE   C3520840   4.725   1.095   7.185 -0.3643 -0.0411 -0.2435
  182SOPE   H5X20841   4.629   1.150   7.180 -0.1038  0.5038  0.5338
  182SOPE   H5Y20842   4.808   1.169   7.193 -0.6471  0.1087  2.5778
  182SOPE   C3620843   4.729   1.021   7.325  0.4609  0.2419  0.4793
  182SOPE   H6X20844   4.831   0.986   7.351 -0.0255 -1.9139 -0.3384
  182SOPE   H6Y20845   4.665   0.930   7.319  0.4381 -0.0237  3.2780
  182SOPE   C3720846   4.669   1.102   7.444 -0.2764  0.7170  0.3594
  182SOPE   H7X20847   4.563   1.127   7.425  0.1341  2.3397  0.0654
  182SOPE   H7Y20848   4.720   1.201   7.447  1.4962 -0.0116 -1.9281
  182SOPE   C3820849   4.694   1.046   7.587 -0.0997  0.3622 -0.5356
  182SOPE   H8X20850   4.804   1.037   7.594  0.3671  4.2453 -0.7060
  182SOPE   H8Y20851   4.633   0.953   7.596 -0.2537  0.4844 -0.3070
  182SOPE   C3920852   4.652   1.142   7.700 -0.3694 -0.2357 -0.1776
  182SOPE   H9X20853   4.559   1.202   7.692  0.2350  0.7200 -0.3096
  182SOPE   H9Y20854   4.737   1.209   7.725 -0.8656  0.7878 -1.1351
  182SOPE  C31020855   4.634   1.071   7.836  0.7511  0.2148  0.1050
  182SOPE  H10X20856   4.629   1.148   7.915 -2.4336 -0.4777  0.7392
  182SOPE  H10Y20857   4.711   0.995   7.859  0.9064  0.0806 -0.7973
  182SOPE  C31120858   4.491   1.014   7.850  0.3483 -0.1149  0.9658
  182SOPE  H11X20859   4.467   0.927   7.786  0.9637 -0.1125  0.7291
  182SOPE  H11Y20860   4.409   1.087   7.831  0.2430 -0.2636  0.8449
  182SOPE  C31220861   4.476   0.952   7.996 -0.3435 -0.0951  0.5345
  182SOPE  H12X20862   4.547   0.868   8.012  0.3019  0.5179  0.9632
  182SOPE  H12Y20863   4.371   0.918   8.007 -0.6973 -0.0924 -2.2061
  182SOPE  C31320864   4.505   1.049   8.119  0.4323 -0.1117 -0.0789
  182SOPE  H13X20865   4.454   1.147   8.110 -0.4536 -0.6867 -1.6879
  182SOPE  H13Y20866   4.613   1.076   8.125  0.0704  1.2575  0.6214
  182SOPE  C31420867   4.466   0.981   8.249 -0.1531  0.3321  0.4028
  182SOPE  H14X20868   4.501   1.023   8.346  4.5647  0.1374 -0.9435
  182SOPE  H14Y20869   4.525   0.887   8.257  0.8804  0.8528 -0.6821
  182SOPE  C31520870   4.310   0.981   8.267  0.0256 -1.1293 -0.3063
  182SOPE  H15X20871   4.273   0.928   8.177  1.3376 -0.4194 -1.3044
  182SOPE  H15Y20872   4.271   1.084   8.280  0.1856 -1.1865  0.6447
  182SOPE  C31620873   4.272   0.905   8.393  0.2403  0.6577  0.2154
  182SOPE  H16X20874   4.317   0.954   8.482 -1.4610 -1.9663  2.7202
  182SOPE  H16Y20875   4.321   0.806   8.399  0.3737  0.6816 -0.4548
  182SOPE  C31720876   4.118   0.878   8.413  0.1592 -0.1881  0.2906
  182SOPE  H17X20877   4.102   0.810   8.499 -0.8456 -0.8869 -0.4267
  182SOPE  H17Y20878   4.090   0.815   8.326  2.7680 -1.1381  0.0371
  182SOPE  C31820879   4.024   0.996   8.427 -0.4122  0.3993  0.0099
  182SOPE  H18X20880   4.039   1.083   8.358 -2.0258  0.5311 -0.2163
  182SOPE  H18Y20881   4.033   1.038   8.529 -0.3616  1.7979 -0.5382
  182SOPE  H18Z20882   3.921   0.957   8.413  0.3220 -1.3106 -0.9468
  183SOPE     N20883   0.730   5.721   5.998 -0.1523 -0.4569  0.6780
  183SOPE   HN120884   0.658   5.737   5.925 -0.2951 -1.0398  0.6805
  183SOPE   HN220885   0.817   5.721   5.941 -0.9917  1.1122 -0.6663
  183SOPE   HN320886   0.713   5.631   6.047 -1.3509  0.5611  2.2120
  183SOPE   C1220887   0.720   5.830   6.100 -0.9743  0.6692 -0.0609
  183SOPE  H12A20888   0.611   5.834   6.121 -1.2653 -0.9247 -1.1287
  183SOPE  H12B20889   0.744   5.928   6.053 -0.9657 -0.6164 -2.9218
  183SOPE   C1120890   0.812   5.797   6.216  0.0428  0.0227 -0.0621
  183SOPE  H11A20891   0.914   5.782   6.174 -1.0582 -2.8095 -2.0267
  183SOPE  H11B20892   0.782   5.702   6.266  0.8113 -0.0926  0.2057
  183SOPE     P20893   0.701   5.943   6.400 -0.1698 -0.0382  0.3207
  183SOPE   O1320894   0.570   5.955   6.327 -0.1388  0.0421 -0.0930
  183SOPE   O1420895   0.744   6.059   6.479  0.0701  0.3304 -0.1210
  183SOPE   O1220896   0.822   5.913   6.303  0.0719 -0.0157 -0.0223
  183SOPE   O1120897   0.706   5.814   6.486  0.2089  0.2310  0.5127
  183SOPE    C120898   0.598   5.732   6.532  0.4694  0.2580 -0.1000
  183SOPE    HA20899   0.638   5.632   6.557  1.1509  0.3942 -0.5939
  183SOPE    HB20900   0.528   5.712   6.448  0.7124  1.3250 -0.5866
  183SOPE    C220901   0.529   5.792   6.663  0.0080  0.1716 -0.0859
  183SOPE    HS20902   0.508   5.898   6.635  0.9673  0.5130  0.4498
  183SOPE   O2120903   0.626   5.781   6.767  0.7444 -0.4728  0.3339
  183SOPE   C2120904   0.630   5.888   6.852 -0.2030 -0.2558 -0.1207
  183SOPE   O2220905   0.551   5.981   6.843  0.3221 -0.5050 -0.2922
  183SOPE   C2220906   0.722   5.864   6.968  0.1480  0.1430  0.1480
  183SOPE   H2R20907   0.829   5.886   6.946  0.7751 -1.3702  1.4989
  183SOPE   H2S20908   0.712   5.756   6.992 -2.1106  0.3903  0.4790
  183SOPE    C320909   0.407   5.713   6.707  0.5565 -0.4325 -0.2410
  183SOPE    HX20910   0.438   5.607   6.719 -1.1421 -1.0451 -0.8380
  183SOPE    HY20911   0.332   5.717   6.625  0.2242 -0.5307  0.0555
  183SOPE   O3120912   0.344   5.745   6.836 -0.7898 -0.5583  0.4560
  183SOPE   C3120913   0.275   5.857   6.845 -0.5782 -0.3379 -0.2911
  183SOPE   O3220914   0.260   5.942   6.760 -0.0926  0.2485  0.0215
  183SOPE   C3220915   0.233   5.879   6.982  0.6671 -0.2571 -0.7635
  183SOPE   H2X20916   0.302   5.834   7.056 -1.9392  0.3936  2.2308
  183SOPE   H2Y20917   0.132   5.837   6.999  1.1801 -1.7733 -1.3526
  183SOPE   C2320918   0.678   5.954   7.083 -0.1302 -0.0289  0.1888
  183SOPE   H3R20919   0.568   5.967   7.084 -0.2346 -0.4898  2.9368
  183SOPE   H3S20920   0.718   6.056   7.069 -2.2520  0.9252  0.6911
  183SOPE   C2420921   0.721   5.893   7.225  0.1990  0.4274  0.2545
  183SOPE   H4R20922   0.653   5.808   7.245  1.4508 -0.2841  1.7421
  183SOPE   H4S20923   0.824   5.852   7.215  0.9061  1.9878  0.6851
  183SOPE   C2520924   0.700   6.003   7.331 -0.3560  0.0532  0.5366
  183SOPE   H5R20925   0.729   6.104   7.296 -0.9463 -0.8538 -2.8942
  183SOPE   H5S20926   0.592   6.016   7.352 -0.2743  0.9272  0.4546
  183SOPE   C2620927   0.778   5.946   7.453  0.1130 -0.5119 -0.2527
  183SOPE   H6R20928   0.760   5.837   7.441 -1.5901 -0.3462  0.5068
  183SOPE   H6S20929   0.889   5.942   7.450  0.2388 -1.4920  2.6361
  183SOPE   C2720930   0.728   6.003   7.584 -0.2220  0.4372  0.1666
  183SOPE   H7R20931   0.778   6.102   7.592  1.6068 -0.4978  1.1127
  183SOPE   H7S20932   0.618   6.011   7.576 -0.2080  1.3772  0.8460
  183SOPE   C2820933   0.766   5.898   7.695  0.1221 -0.7134 -0.2425
  183SOPE   H8R20934   0.693   5.815   7.683 -0.3542 -0.1220 -1.6466
  183SOPE   H8S20935   0.868   5.855   7.685  0.0573 -1.5242  1.9731
  183SOPE   C2920936   0.731   5.959   7.830  0.4186 -0.5833  0.0765
  183SOPE   H9120937   0.628   5.954   7.869  0.8003 -2.9278  0.9189
  183SOPE  C21020938   0.823   6.023   7.907  0.3185  0.1480  0.0655
  183SOPE  H10120939   0.792   6.061   8.006 -1.1761  1.9496 -1.0515
  183SOPE  C21120940   0.973   6.054   7.887 -0.3454  0.6149 -0.0435
  183SOPE  H11R20941   0.994   6.153   7.842  0.8806 -0.0340 -0.9512
  183SOPE  H11S20942   1.012   5.986   7.809  1.1973 -1.6549  2.4987
  183SOPE  C21220943   1.065   6.037   8.010  0.2418  0.3096  0.0947
  183SOPE  H12R20944   1.170   6.056   7.981  0.2051  2.3430  1.1447
  183SOPE  H12S20945   1.061   5.934   8.050  1.4234  0.0842 -0.3359
  183SOPE  C21320946   1.023   6.135   8.121  0.2080 -0.1455 -0.8428
  183SOPE  H13R20947   0.917   6.116   8.149 -0.2869 -0.6235 -2.8725
  183SOPE  H13S20948   1.013   6.237   8.077  1.2907  0.7970  1.0083
  183SOPE  C21420949   1.107   6.120   8.250 -0.3949 -0.1886 -0.1979
  183SOPE  H14R20950   1.211   6.096   8.217 -0.1968 -1.5710  1.3260
  183SOPE  H14S20951   1.076   6.023   8.293  1.8191 -1.2830 -0.9032
  183SOPE  C21520952   1.068   6.229   8.351  0.6166  0.2136 -0.0957
  183SOPE  H15R20953   1.087   6.184   8.451  0.8912  0.0796 -0.2066
  183SOPE  H15S20954   0.960   6.246   8.368  0.0634 -1.2435 -1.8484
  183SOPE  C21620955   1.138   6.360   8.336 -0.1145 -0.0443  0.2474
  183SOPE  H16R20956   1.210   6.346   8.253 -0.4249 -2.2286  0.2814
  183SOPE  H16S20957   1.192   6.395   8.427  1.0041  0.5000 -0.6000
  183SOPE  C21720958   1.054   6.473   8.284  0.2286  0.2937  0.1424
  183SOPE  H17R20959   0.972   6.504   8.352 -0.2469  3.3110 -1.6108
  183SOPE  H17S20960   1.010   6.436   8.189  1.9576 -0.7282 -0.3150
  183SOPE  C21820961   1.137   6.603   8.269  0.2446 -0.4828  0.3826
  183SOPE  H18R20962   1.069   6.689   8.250  0.6743  0.0637  1.2690
  183SOPE  H18S20963   1.196   6.584   8.177  0.6646  1.6430  0.1585
  183SOPE  H18T20964   1.206   6.615   8.355  0.8437 -2.0245  0.1519
  183SOPE   C3320965   0.232   6.028   7.025 -0.3466  0.1802  0.7106
  183SOPE   H3X20966   0.167   6.079   6.950 -1.0162 -0.1142  1.0780
  183SOPE   H3Y20967   0.336   6.067   7.023 -0.0330 -0.6466 -0.8568
  183SOPE   C3420968   0.160   6.056   7.161 -0.6616  0.7801 -0.1061
  183SOPE   H4X20969   0.071   5.989   7.167 -0.9313  0.8377 -2.4925
  183SOPE   H4Y20970   0.124   6.161   7.161 -1.3163  0.5643  0.0864
  183SOPE   C3520971   0.258   6.041   7.281  0.5630 -0.5116  0.2457
  183SOPE   H5X20972   0.333   6.123   7.273  0.2270 -0.2536 -0.3406
  183SOPE   H5Y20973   0.323   5.953   7.259 -0.1555 -1.1960  0.8279
  183SOPE   C3620974   0.195   6.027   7.411  0.2045  0.6138  0.4221
  183SOPE   H6X20975   0.134   5.935   7.422  0.2995  0.7052  1.9509
  183SOPE   H6Y20976   0.123   6.112   7.419  0.5796  1.1291 -1.1818
  183SOPE   C3720977   0.295   6.020   7.524  0.5175  0.3468 -0.3762
  183SOPE   H7X20978   0.334   6.124   7.535 -2.5461  1.5497  0.2678
  183SOPE   H7Y20979   0.382   5.959   7.492  0.5212  0.4398 -0.5444
  183SOPE   C3820980   0.229   5.959   7.649 -0.0954  1.0990  0.1013
  183SOPE   H8X20981   0.198   5.854   7.628 -0.5454  1.2951 -0.2388
  183SOPE   H8Y20982   0.135   6.017   7.662 -0.4223  0.7922 -0.7993
  183SOPE   C3920983   0.317   5.969   7.777  0.3134  0.0481  0.3535
  183SOPE   H9X20984   0.316   6.078   7.795  2.3521  0.2545 -0.4756
  183SOPE   H9Y20985   0.419   5.939   7.742  1.5572  1.9067  2.1278
  183SOPE  C31020986   0.268   5.882   7.893 -0.0364 -0.2680 -0.1158
  183SOPE  H10X20987   0.253   5.777   7.861 -2.2712  0.6096 -2.2690
  183SOPE  H10Y20988   0.164   5.902   7.926 -0.0423  0.3346 -0.4773
  183SOPE  C31120989   0.355   5.902   8.019 -0.1104  0.0848 -0.2161
  183SOPE  H11X20990   0.355   6.011   8.040  0.7882  0.0856 -0.1979
  183SOPE  H11Y20991   0.463   5.883   8.000  0.1269  1.4405 -0.3729
  183SOPE  C31220992   0.321   5.816   8.134  0.5072  0.4051 -0.0209
  183SOPE  H12X20993   0.348   5.713   8.103  0.6470  0.6642 -0.7993
  183SOPE  H12Y20994   0.214   5.820   8.162  1.6539  1.3064  5.4512
  183SOPE  C31320995   0.408   5.864   8.251 -0.0339  0.8016  0.9147
  183SOPE  H13X20996   0.346   5.939   8.304 -1.3872  0.2728  0.1280
  183SOPE  H13Y20997   0.503   5.908   8.215  0.0247 -0.9322 -1.3211
  183SOPE  C31420998   0.457   5.761   8.350  0.0373 -0.7361 -0.5381
  183SOPE  H14X20999   0.551   5.796   8.399  0.9884 -1.0683 -2.0746
  183SOPE  H14Y21000   0.471   5.669   8.291  0.2849  0.0492 -1.7416
  183SOPE  C31521001   0.357   5.730   8.471 -0.8814 -0.1907  0.1230
  183SOPE  H15X21002   0.335   5.813   8.542 -1.2063 -0.6771  0.5933
  183SOPE  H15Y21003   0.420   5.659   8.528  0.9743  0.2393 -1.2982
  183SOPE  C31621004   0.216   5.679   8.424 -0.5443 -0.7199  1.1823
  183SOPE  H16X21005   0.228   5.630   8.325  1.7741  1.6579  0.1734
  183SOPE  H16Y21006   0.167   5.775   8.398  1.5463  0.0785 -0.1197
  183SOPE  C31721007   0.146   5.603   8.528  0.7365 -0.7689  0.0930
  183SOPE  H17X21008   0.160   5.645   8.629  0.6991  0.1204 -0.2622
  183SOPE  H17Y21009   0.177   5.497   8.544 -0.8231 -0.8751  3.0692
  183SOPE  C31821010  -0.002   5.600   8.504  0.4505  0.9158  1.0763
  183SOPE  H18X21011  -0.046   5.569   8.601  0.0534 -2.7911 -0.1324
  183SOPE  H18Y21012  -0.028   5.538   8.416  1.8381 -0.0280  1.3018
  183SOPE  H18Z21013  -0.038   5.703   8.479  2.7444  1.7720  1.0930
  184SOPE     N21014   5.918   0.438   6.367 -0.8274 -0.0622  0.5994
  184SOPE   HN121015   5.944   0.341   6.338  0.1304  0.9348 -2.2944
  184SOPE   HN221016   6.007   0.492   6.361 -1.3430  0.7755  0.4841
  184SOPE   HN321017   5.890   0.433   6.466 -1.4106  1.7709  0.5637
  184SOPE   C1221018   5.814   0.500   6.272  0.0800  0.3097 -0.1870
  184SOPE  H12A21019   5.717   0.459   6.308  1.2574  0.0423  3.0156
  184SOPE  H12B21020   5.838   0.464   6.170 -0.2734  0.2871 -0.2631
  184SOPE   C1121021   5.817   0.648   6.295  1.1311  0.3746 -0.1207
  184SOPE  H11A21022   5.760   0.675   6.386 -0.8288  1.2254 -1.5332
  184SOPE  H11B21023   5.747   0.683   6.217  1.8234  0.7669 -0.5815
  184SOPE     P21024   5.962   0.858   6.307 -0.1874  0.2411  0.1501
  184SOPE   O1321025   5.866   0.934   6.226  0.2886 -0.3661  0.6341
  184SOPE   O1421026   6.103   0.892   6.277 -0.0966 -0.4883  0.1458
  184SOPE   O1221027   5.948   0.701   6.297 -0.2257  0.5769  0.1244
  184SOPE   O1121028   5.927   0.873   6.464  0.3438  0.0218  0.0037
  184SOPE    C121029   6.034   0.850   6.559  0.2323 -0.1246 -0.1156
  184SOPE    HA21030   6.095   0.943   6.557 -3.8996  2.8305 -0.8349
  184SOPE    HB21031   6.084   0.752   6.538 -0.4011 -0.2792 -0.9472
  184SOPE    C221032   5.990   0.841   6.710  0.1023  0.4132  0.0773
  184SOPE    HS21033   5.975   0.735   6.738 -0.3589  0.2340 -0.7963
  184SOPE   O2121034   5.866   0.914   6.728 -0.3999  0.0469  0.0326
  184SOPE   C2121035   5.789   0.893   6.838 -0.5231 -0.2674  0.0716
  184SOPE   O2221036   5.794   0.792   6.904  0.3441  0.0105  0.1322
  184SOPE   C2221037   5.696   1.010   6.856 -0.3138 -0.0251  0.3421
  184SOPE   H2R21038   5.634   1.004   6.764  0.5899 -1.3995 -0.2035
  184SOPE   H2S21039   5.746   1.109   6.846  1.0310 -0.7859 -0.9567
  184SOPE    C321040   6.099   0.883   6.815 -0.7458 -0.6214 -0.0216
  184SOPE    HX21041   6.121   0.990   6.795 -1.4039 -0.1081  1.7861
  184SOPE    HY21042   6.188   0.821   6.790  0.3615  1.0923 -0.4581
  184SOPE   O3121043   6.063   0.883   6.957 -0.3305  0.3308  0.4857
  184SOPE   C3121044   6.090   0.778   7.023  0.0989  0.2090 -0.3942
  184SOPE   O3221045   6.143   0.674   6.986 -0.1266  0.6726 -0.5027
  184SOPE   C3221046   6.046   0.815   7.173 -0.5578  0.3984  0.7318
  184SOPE   H2X21047   5.937   0.833   7.186 -1.0333 -1.1741 -0.6536
  184SOPE   H2Y21048   6.104   0.907   7.194  0.1319  0.3400 -0.7391
  184SOPE   C2321049   5.613   1.004   6.985 -0.3365 -0.0692 -0.4252
  184SOPE   H3R21050   5.583   0.899   7.005 -1.5982 -0.1760 -2.6337
  184SOPE   H3S21051   5.530   1.079   6.982  1.0859  1.6499  0.8406
  184SOPE   C2421052   5.691   1.050   7.108  0.1428  0.4862  0.2819
  184SOPE   H4R21053   5.772   0.973   7.115 -1.0729 -0.9246 -0.4990
  184SOPE   H4S21054   5.739   1.147   7.085 -2.3039  1.7028  0.0667
  184SOPE   C2521055   5.608   1.039   7.236 -0.4548 -0.5635 -0.1409
  184SOPE   H5R21056   5.676   1.047   7.323 -2.1781 -1.6966  1.3697
  184SOPE   H5S21057   5.550   1.134   7.241  0.2985 -0.1716  3.4377
  184SOPE   C2621058   5.519   0.912   7.257 -0.7771 -0.4786  0.4963
  184SOPE   H6R21059   5.481   0.911   7.362 -0.9103 -2.1582  0.4649
  184SOPE   H6S21060   5.428   0.906   7.193  0.4529  0.8842 -1.4827
  184SOPE   C2721061   5.611   0.781   7.251 -0.5786 -0.2484 -0.0295
  184SOPE   H7R21062   5.658   0.772   7.151  2.9368  1.1570  1.3247
  184SOPE   H7S21063   5.698   0.808   7.316 -0.8731  0.0971  0.2323
  184SOPE   C2821064   5.544   0.652   7.303 -0.1071  0.0194  0.2269
  184SOPE   H8R21065   5.486   0.689   7.390  0.0502  1.6139 -0.3199
  184SOPE   H8S21066   5.473   0.625   7.222  0.4967  2.3457 -1.1650
  184SOPE   C2921067   5.632   0.540   7.338  0.0108 -0.0712  0.0382
  184SOPE   H9121068   5.695   0.508   7.254 -2.0248  1.2832 -2.1107
  184SOPE  C21021069   5.642   0.475   7.456  0.0087 -0.8766  0.2742
  184SOPE  H10121070   5.718   0.397   7.471  1.0436 -0.0051 -0.3485
  184SOPE  C21121071   5.578   0.525   7.577  0.3640  0.0869 -0.5962
  184SOPE  H11R21072   5.587   0.636   7.575 -0.2770  0.2621  2.0502
  184SOPE  H11S21073   5.630   0.495   7.671  1.5094  2.8660 -0.2140
  184SOPE  C21221074   5.430   0.482   7.587  0.1875 -0.0461 -0.1889
  184SOPE  H12R21075   5.419   0.372   7.596 -0.2188 -0.1124 -1.3008
  184SOPE  H12S21076   5.387   0.503   7.487 -2.5111 -4.1292 -0.1252
  184SOPE  C21321077   5.350   0.549   7.701 -0.1263 -0.0465 -0.0401
  184SOPE  H13R21078   5.239   0.545   7.691 -0.4698 -2.1352  3.1639
  184SOPE  H13S21079   5.382   0.655   7.705  0.2132 -0.0237 -2.1699
  184SOPE  C21421080   5.384   0.474   7.825 -0.2391 -0.0297 -0.2045
  184SOPE  H14R21081   5.340   0.529   7.911  2.0276 -0.2950  1.1954
  184SOPE  H14S21082   5.492   0.471   7.849 -0.4615 -0.6317  0.7875
  184SOPE  C21521083   5.330   0.333   7.837 -0.0381  0.3732 -0.5773
  184SOPE  H15R21084   5.380   0.258   7.771  0.1953 -1.8738  1.9548
  184SOPE  H15S21085   5.223   0.319   7.812  0.1372 -2.2115 -0.2046
  184SOPE  C21621086   5.344   0.277   7.982 -0.5630 -0.0335 -0.1800
  184SOPE  H16R21087   5.256   0.291   8.048 -1.2003  0.7995 -1.1697
  184SOPE  H16S21088   5.428   0.334   8.027  2.5507 -2.4948 -2.4422
  184SOPE  C21721089   5.387   0.129   7.984  0.0023  0.4573 -0.2845
  184SOPE  H17R21090   5.489   0.133   7.939  0.3127  0.5943  0.4138
  184SOPE  H17S21091   5.319   0.071   7.918  1.4682 -1.8252  0.1031
  184SOPE  C21821092   5.382   0.075   8.131 -0.8144  0.1052  0.1870
  184SOPE  H18R21093   5.411  -0.029   8.156  0.8215  0.8877  1.7720
  184SOPE  H18S21094   5.279   0.082   8.173 -1.1345 -0.0711 -0.5634
  184SOPE  H18T21095   5.448   0.140   8.192 -1.1049  0.6337 -0.0552
  184SOPE   C3321096   6.083   0.703   7.268  0.1719  0.5610 -0.0100
  184SOPE   H3X21097   6.193   0.684   7.271  0.1480  0.5214  0.9417
  184SOPE   H3Y21098   6.033   0.604   7.259  0.4323  0.4291 -0.0224
  184SOPE   C3421099   6.040   0.750   7.413  0.9510  0.1114  0.6744
  184SOPE   H4X21100   5.931   0.738   7.430  0.8381  0.2314  0.0404
  184SOPE   H4Y21101   6.066   0.858   7.413  0.2484  0.3596 -2.4120
  184SOPE   C3521102   6.112   0.672   7.526  0.2470 -0.1875  0.2269
  184SOPE   H5X21103   6.210   0.652   7.480 -1.0245 -1.4868 -2.0847
  184SOPE   H5Y21104   6.061   0.573   7.528  1.1147 -0.6316  1.4246
  184SOPE   C3621105   6.125   0.741   7.662  0.1405  0.0404  0.0284
  184SOPE   H6X21106   6.023   0.765   7.700  0.3414 -0.6425  1.0332
  184SOPE   H6Y21107   6.175   0.838   7.641  1.4054 -0.0637  2.3049
  184SOPE   C3721108   6.189   0.656   7.776 -0.4687  0.2378 -0.3177
  184SOPE   H7X21109   6.292   0.620   7.752  0.1750 -0.0626  2.5110
  184SOPE   H7Y21110   6.138   0.557   7.774 -0.2109  0.0169  1.7466
  184SOPE   C3821111   6.167   0.720   7.913  0.8877 -0.7113 -0.2289
  184SOPE   H8X21112   6.060   0.748   7.923  1.1060  0.7828 -1.7246
  184SOPE   H8Y21113   6.218   0.818   7.924  0.8250 -0.7735  0.7037
  184SOPE   C3921114   6.232   0.631   8.022 -0.1233 -0.4769  0.4421
  184SOPE   H9X21115   6.341   0.617   8.007 -0.4843 -1.3996 -1.6516
  184SOPE   H9Y21116   6.196   0.526   8.017  0.7513 -0.7526 -0.3719
  184SOPE  C31021117   6.207   0.672   8.172  0.0727  0.2736  0.2573
  184SOPE  H10X21118   6.097   0.681   8.181  0.0267 -0.8646  1.2262
  184SOPE  H10Y21119   6.249   0.771   8.198  1.4906  0.0085 -0.8856
  184SOPE  C31121120   6.271   0.577   8.266  0.9593 -0.0948  0.0702
  184SOPE  H11X21121   6.375   0.542   8.251  2.2316  3.5991 -0.7569
  184SOPE  H11Y21122   6.215   0.482   8.260  1.6511 -0.7548  2.6741
  184SOPE  C31221123   6.246   0.626   8.406 -0.0309 -0.0852  0.2497
  184SOPE  H12X21124   6.136   0.633   8.410 -0.1516 -1.9531  1.1306
  184SOPE  H12Y21125   6.295   0.723   8.429  0.5480  0.2845 -2.2428
  184SOPE  C31321126   6.289   0.524   8.514 -0.2975 -0.2553 -0.5617
  184SOPE  H13X21127   6.266   0.570   8.613 -4.3223 -0.4540 -1.2168
  184SOPE  H13Y21128   6.397   0.503   8.504  0.2564 -1.0639  4.4120
  184SOPE  C31421129   6.214   0.386   8.504  0.2508 -0.6898 -0.8766
  184SOPE  H14X21130   6.266   0.336   8.419  1.1845 -2.4767  0.6520
  184SOPE  H14Y21131   6.112   0.410   8.468  0.8500  0.1511 -2.0687
  184SOPE  C31521132   6.214   0.295   8.625 -0.1524  0.2587  0.0306
  184SOPE  H15X21133   6.228   0.355   8.718  2.2483  1.7981 -1.2159
  184SOPE  H15Y21134   6.307   0.234   8.619  1.3248  2.4879 -1.9359
  184SOPE  C31621135   6.092   0.205   8.624  0.7686 -0.3390 -0.1165
  184SOPE  H16X21136   6.086   0.134   8.539 -1.7716 -0.2154 -0.1259
  184SOPE  H16Y21137   6.003   0.271   8.620  0.0723 -1.2789 -0.6625
  184SOPE  C31721138   6.078   0.136   8.763 -0.3946 -0.5626 -0.3940
  184SOPE  H17X21139   5.972   0.105   8.774 -0.3034 -0.9177 -0.5135
  184SOPE  H17Y21140   6.083   0.206   8.849 -3.3031 -0.8015  0.0910
  184SOPE  C31821141   6.174   0.018   8.783  0.1025 -0.1321 -0.3906
  184SOPE  H18X21142   6.276   0.060   8.767 -0.4681  0.6877 -2.0713
  184SOPE  H18Y21143   6.141  -0.058   8.709  2.0655 -1.6648  0.2272
  184SOPE  H18Z21144   6.179  -0.024   8.886 -0.9896  3.7387  1.4476
  185SAPI   C1221145   2.374   5.175  10.901 -0.3783 -0.3383 -0.6797
  185SAPI    H221146   2.336   5.112  10.818 -0.4496 -0.4660 -0.5507
  185SAPI    O221147   2.356   5.315  10.873  0.1655  0.1615 -0.2423
  185SAPI   HO221148   2.408   5.341  10.796 -2.4039  1.5395 -1.6889
  185SAPI   C1321149   2.282   5.131  11.012 -0.4617  0.2538  0.1563
  185SAPI    H321150   2.301   5.023  11.027 -4.5984 -0.8273 -1.0645
  185SAPI    O321151   2.146   5.145  10.969 -0.2796 -0.3875 -0.0010
  185SAPI   HO321152   2.130   5.239  10.975 -1.9472 -0.6209 -0.0982
  185SAPI   C1421153   2.308   5.205  11.142  0.8101  0.0522  0.1697
  185SAPI    H421154   2.298   5.315  11.131  1.0153  0.3724  2.6131
  185SAPI    O421155   2.206   5.163  11.236 -0.3821 -0.3712 -0.2124
  185SAPI   HO421156   2.215   5.208  11.320  1.1159  0.4362 -0.7737
  185SAPI   C1521157   2.445   5.164  11.182 -0.5338 -0.4981  0.1502
  185SAPI    H521158   2.445   5.054  11.195 -0.0730 -0.4642  0.4552
  185SAPI    O521159   2.485   5.212  11.312  0.0096  0.3277 -0.2186
  185SAPI   HO521160   2.577   5.195  11.332 -0.6925 -2.1455  1.3305
  185SAPI   C1621161   2.548   5.206  11.071  0.2134  0.0499 -0.2513
  185SAPI    H621162   2.531   5.316  11.064 -0.1148 -0.0915 -3.2591
  185SAPI    O621163   2.680   5.179  11.111 -0.4585 -0.6142 -0.2348
  185SAPI   HO621164   2.714   5.266  11.088 -3.5875  0.8629  0.1332
  185SAPI   C1121165   2.514   5.141  10.942 -0.2444  0.7267  0.6193
  185SAPI    H121166   2.516   5.032  10.962  0.3871  0.2993 -1.4647
  185SAPI     P21167   2.727   5.061  10.801  0.1350  0.3740 -0.0399
  185SAPI   O1321168   2.715   4.934  10.874 -0.0701  0.4307  0.1753
  185SAPI   O1421169   2.857   5.128  10.825  0.2813  0.4254  0.0998
  185SAPI   O1221170   2.611   5.173  10.836 -0.0948 -0.5804  0.7707
  185SAPI   O1121171   2.704   5.036  10.653  0.3085 -0.2039 -0.0769
  185SAPI    C121172   2.568   5.003  10.599 -0.1868 -0.5089 -0.5285
  185SAPI    HA21173   2.496   4.961  10.673 -0.6252 -0.3653 -0.8652
  185SAPI    HB21174   2.517   5.097  10.571 -0.8010 -0.5056  0.5314
  185SAPI    C221175   2.571   4.926  10.463  0.0153  0.1099 -0.3281
  185SAPI    HS21176   2.570   4.818  10.491  2.2511  0.1580  0.1897
  185SAPI   O2121177   2.691   4.956  10.394  0.5614 -0.1287 -0.3721
  185SAPI   C2121178   2.795   4.875  10.401 -0.7978 -0.4266 -0.3553
  185SAPI   O2221179   2.807   4.774  10.468 -0.1231 -0.1339 -0.1366
  185SAPI   C2221180   2.909   4.925  10.302  0.4321  0.1523 -0.3606
  185SAPI   H2R21181   2.879   5.018  10.249  1.6100  0.2147 -0.9559
  185SAPI   H2S21182   2.991   4.939  10.376  0.7216  0.0831 -0.6644
  185SAPI    C321183   2.451   4.967  10.375 -0.2097  0.8492  0.1419
  185SAPI    HX21184   2.459   5.075  10.348  0.4724  0.7972  0.1345
  185SAPI    HY21185   2.358   4.947  10.432  0.1655  0.9437  0.7956
  185SAPI   O3121186   2.441   4.883  10.256 -0.0419 -0.1888  0.1119
  185SAPI   C3121187   2.358   4.938  10.168 -0.3114  0.1041  1.0159
  185SAPI   O3221188   2.294   5.040  10.177 -0.1214 -0.2809 -0.6887
  185SAPI   C3221189   2.334   4.840  10.060  0.0888 -0.0559  0.2164
  185SAPI   H2X21190   2.278   4.756  10.105 -0.7582  0.3957  0.0289
  185SAPI   H2Y21191   2.437   4.802  10.042  0.0350  0.3783 -1.0928
  185SAPI   C2321192   2.963   4.818  10.207 -0.5413 -0.3875 -0.2512
  185SAPI   H3R21193   2.888   4.810  10.125 -0.6256  1.1165 -0.3445
  185SAPI   H3S21194   2.979   4.725  10.267  0.4210 -0.6437 -0.8869
  185SAPI   C2421195   3.098   4.851  10.143 -0.6725  0.8761 -0.1615
  185SAPI   H4R21196   3.133   4.760  10.091 -1.0109 -1.4326  3.3314
  185SAPI   H4S21197   3.166   4.851  10.231 -2.3145 -2.5606  1.2773
  185SAPI   C2521198   3.096   4.960  10.045  0.7258 -0.0147 -0.5450
  185SAPI   H5R21199   3.146   5.053  10.075  1.9860 -0.4619 -1.1925
  185SAPI   C2621200   3.051   4.943   9.916 -0.4510  0.4994  0.0043
  185SAPI   H6R21201   3.065   5.030   9.849 -0.9514  0.5101 -0.0854
  185SAPI   C2721202   2.996   4.821   9.845 -0.0462 -0.4258  0.2749
  185SAPI   H7R21203   2.899   4.860   9.808 -1.0007  2.2940  4.8304
  185SAPI   H7S21204   2.971   4.751   9.928 -1.5368 -0.8105 -0.4576
  185SAPI   C2821205   3.085   4.766   9.736  0.1193  0.3703  0.4161
  185SAPI   H8R21206   3.181   4.733   9.777  0.2827 -0.8629 -0.8798
  185SAPI   C2921207   3.055   4.748   9.606  0.0229  0.6765  1.1305
  185SAPI   H9R21208   3.138   4.699   9.554 -0.7952  0.5350 -0.0807
  185SAPI  C21021209   2.930   4.780   9.533  0.9374 -0.2816  0.1447
  185SAPI  H10R21210   2.839   4.790   9.596  2.2858 -0.8582  2.2787
  185SAPI  H10S21211   2.900   4.700   9.463  2.2981 -1.0554  0.4196
  185SAPI  C21121212   2.947   4.905   9.456 -0.0168 -0.0387 -0.8083
  185SAPI  H11R21213   2.938   4.997   9.515  0.3290 -1.2353  1.2070
  185SAPI  C21221214   2.958   4.911   9.328  0.2697  0.3679 -0.3288
  185SAPI  H12R21215   2.977   5.007   9.277 -1.5174 -0.1515 -2.0996
  185SAPI  C21321216   2.961   4.797   9.232  0.0713  0.2302 -0.1400
  185SAPI  H13R21217   2.859   4.767   9.203 -0.1285  0.2205  0.5726
  185SAPI  H13S21218   2.997   4.696   9.260 -0.8319 -1.1248 -3.3982
  185SAPI  C21421219   3.029   4.824   9.102 -0.0491 -0.1756  0.1604
  185SAPI  H14R21220   3.130   4.782   9.095 -0.5110 -1.5044  1.0834
  185SAPI  C21521221   2.973   4.882   8.993  0.4437 -0.5126 -0.4615
  185SAPI  H15R21222   3.026   4.884   8.897  0.8882  1.5039 -0.2119
  185SAPI  C21621223   2.834   4.936   8.983 -0.2646  0.0681  0.1826
  185SAPI  H16R21224   2.832   5.047   8.987  1.1267  0.2273 -1.9236
  185SAPI  H16S21225   2.770   4.905   9.068  1.6709 -1.2386  1.2398
  185SAPI  C21721226   2.761   4.886   8.851 -0.5499  0.7052 -0.4120
  185SAPI  H17R21227   2.820   4.920   8.764  2.2003 -0.9785  0.6695
  185SAPI  H17S21228   2.662   4.937   8.855 -0.2897  1.1305  1.8581
  185SAPI  C21821229   2.747   4.735   8.844 -0.2119 -0.0395  0.0899
  185SAPI  H18R21230   2.670   4.709   8.920  0.5413  0.4830  1.0528
  185SAPI  H18S21231   2.843   4.687   8.871 -0.8090 -1.6759 -0.6127
  185SAPI  C21921232   2.699   4.680   8.710  0.0005  0.1491  0.4130
  185SAPI  H19R21233   2.601   4.727   8.687  0.6439  0.8552 -1.0319
  185SAPI  H19S21234   2.690   4.569   8.706 -0.7882  0.0782  2.5375
  185SAPI  C22021235   2.790   4.716   8.591 -0.1094 -0.4677 -0.1950
  185SAPI  H20R21236   2.753   4.677   8.494  0.9281  0.0418 -0.8011
  185SAPI  H20S21237   2.892   4.680   8.616  0.2622  0.8452  0.2814
  185SAPI  H20T21238   2.815   4.822   8.571 -2.5100 -0.1225 -1.7138
  185SAPI   C3321239   2.256   4.895   9.939 -0.0657  0.3057  0.2007
  185SAPI   H3X21240   2.309   4.984   9.899 -1.6935  0.6426 -1.3274
  185SAPI   H3Y21241   2.152   4.928   9.961 -1.0112 -1.5489 -1.1557
  185SAPI   C3421242   2.224   4.793   9.833  0.4236  0.5614  0.2259
  185SAPI   H4X21243   2.169   4.704   9.870 -0.1202  0.3921 -0.9321
  185SAPI   H4Y21244   2.323   4.750   9.805  0.1619 -0.0236  0.1702
  185SAPI   C3521245   2.142   4.859   9.720 -0.1709 -0.7243  0.1648
  185SAPI   H5X21246   2.077   4.941   9.758  1.9622  0.3125  1.7994
  185SAPI   H5Y21247   2.085   4.784   9.660 -0.7340  0.8434 -1.3416
  185SAPI   C3621248   2.233   4.933   9.619 -0.3231 -0.2208 -0.4530
  185SAPI   H6X21249   2.294   4.848   9.582 -2.3966 -1.4510 -1.2137
  185SAPI   H6Y21250   2.285   5.005   9.687 -1.9459 -0.4387  1.0984
  185SAPI   C3721251   2.156   4.997   9.505 -0.4768  0.6933 -0.0275
  185SAPI   H7X21252   2.225   5.057   9.442 -0.2935 -1.4540 -1.9764
  185SAPI   H7Y21253   2.084   5.070   9.548  0.3903  0.7957  1.3329
  185SAPI   C3821254   2.079   4.889   9.416 -0.0304 -0.9905 -0.6725
  185SAPI   H8X21255   2.011   4.841   9.490  0.6301 -1.1985 -0.1941
  185SAPI   H8Y21256   2.156   4.816   9.383 -0.1306 -1.6353  0.4749
  185SAPI   C3921257   2.005   4.954   9.293 -0.4480  0.3491 -0.3034
  185SAPI   H9X21258   2.081   4.986   9.219 -0.6028 -1.7598 -1.4449
  185SAPI   H9Y21259   1.943   5.035   9.338 -0.8075 -0.9217  1.6290
  185SAPI  C31021260   1.905   4.848   9.222  0.9383  0.4923 -0.7515
  185SAPI  H10X21261   1.854   4.887   9.132 -1.9397  0.0065  0.5399
  185SAPI  H10Y21262   1.825   4.823   9.295  2.5086  0.9221  1.2138
  185SAPI  C31121263   1.979   4.726   9.170  0.1038 -0.0942  0.0902
  185SAPI  H11X21264   2.025   4.680   9.260 -1.8039 -2.5521 -0.0758
  185SAPI  H11Y21265   2.058   4.749   9.095 -1.5269 -0.7663 -1.9537
  185SAPI  C31221266   1.887   4.623   9.107 -0.8175  1.2678 -0.1276
  185SAPI  H12X21267   1.807   4.593   9.178  0.5705  1.4130  1.5691
  185SAPI  H12Y21268   1.956   4.537   9.101  1.3043  2.6657  2.1925
  185SAPI  C31321269   1.832   4.655   8.965 -0.1491  0.0478 -0.4612
  185SAPI  H13X21270   1.918   4.682   8.900 -0.4536  0.6032 -0.6416
  185SAPI  H13Y21271   1.790   4.755   8.992  0.2801  0.5068 -1.4296
  185SAPI  C31421272   1.729   4.562   8.909 -0.0143 -0.0077 -0.2099
  185SAPI  H14X21273   1.648   4.536   8.980 -0.0902  1.6305  0.3461
  185SAPI  H14Y21274   1.774   4.461   8.897 -0.2491 -0.1561  0.1415
  185SAPI  C31521275   1.676   4.591   8.772  0.5411 -0.8336 -0.7830
  185SAPI  H15X21276   1.596   4.667   8.786  2.1632  1.0468 -1.2438
  185SAPI  H15Y21277   1.626   4.499   8.737 -0.0500 -0.6451 -0.4439
  185SAPI  C31621278   1.779   4.640   8.669  0.1406 -0.0629  0.1656
  185SAPI  H16X21279   1.870   4.579   8.688 -0.1284  0.1448  2.5319
  185SAPI  H16Y21280   1.816   4.744   8.673  0.7301 -0.3034  2.2683
  185SAPI  C31721281   1.719   4.613   8.531  0.1785  0.3925  0.1236
  185SAPI  H17X21282   1.622   4.666   8.530 -0.4197 -0.5946  1.9533
  185SAPI  H17Y21283   1.713   4.502   8.533  3.0263  0.1590  2.4008
  185SAPI  C31821284   1.811   4.657   8.417  0.2807  0.1258  0.0338
  185SAPI  H18X21285   1.826   4.767   8.431 -1.3352  0.3892 -0.1228
  185SAPI  H18Y21286   1.774   4.653   8.312  1.0954  2.1767 -0.3814
  185SAPI  H18Z21287   1.907   4.602   8.427 -0.3204 -0.6731  1.9050
  186SAPI   C1221288   1.471   3.712  11.045 -0.4800 -0.4852  0.3565
  186SAPI    H221289   1.497   3.774  11.135  1.3009  0.7160 -0.9115
  186SAPI    O221290   1.584   3.721  10.960  0.3260 -0.3731 -0.3518
  186SAPI   HO221291   1.582   3.808  10.919 -0.0910  0.6591  1.7436
  186SAPI   C1321292   1.440   3.571  11.098 -0.4214  0.1324 -0.5328
  186SAPI    H321293   1.375   3.581  11.187  1.2853 -1.0205  0.9123
  186SAPI    O321294   1.562   3.526  11.164  0.5931  0.6498 -0.5858
  186SAPI   HO321295   1.628   3.499  11.100  0.8524  2.3411 -1.0760
  186SAPI   C1421296   1.397   3.478  10.984  0.1403 -0.1502  0.1239
  186SAPI    H421297   1.478   3.467  10.909  0.6099  1.9102  0.2888
  186SAPI    O421298   1.367   3.348  11.039 -0.6729  0.3623 -0.3110
  186SAPI   HO421299   1.400   3.277  10.984 -2.5443 -1.1816  0.4317
  186SAPI   C1521300   1.273   3.530  10.921 -0.2889 -0.2694  0.7337
  186SAPI    H521301   1.192   3.536  10.997  0.7303  0.7467  1.7639
  186SAPI    O521302   1.221   3.439  10.819  0.4177  0.6536 -0.0011
  186SAPI   HO521303   1.252   3.458  10.730  0.3391 -1.7669 -0.6190
  186SAPI   C1621304   1.303   3.665  10.858 -0.5131 -0.3300 -0.0778
  186SAPI    H621305   1.388   3.659  10.786  0.5145  0.2844  1.0347
  186SAPI    O621306   1.181   3.718  10.796  0.4961 -0.0851 -0.0320
  186SAPI   HO621307   1.210   3.786  10.735 -2.1470  1.6699  0.5052
  186SAPI   C1121308   1.348   3.761  10.976  0.1547  0.1625 -0.5080
  186SAPI    H121309   1.260   3.759  11.044 -0.6348 -0.7180 -1.5225
  186SAPI     P21310   1.280   4.012  10.876  0.0539  0.0010  0.2330
  186SAPI   O1321311   1.352   4.139  10.879  0.1433 -0.3164  0.1305
  186SAPI   O1421312   1.138   4.011  10.928 -0.1798 -0.5166 -0.3852
  186SAPI   O1221313   1.378   3.901  10.955 -0.3465 -0.3159  0.6060
  186SAPI   O1121314   1.275   3.950  10.726 -0.5450  0.3195  0.0296
  186SAPI    C121315   1.394   3.917  10.644  0.0850 -0.6721 -0.4531
  186SAPI    HA21316   1.484   3.904  10.707 -1.2937  0.9111  1.9966
  186SAPI    HB21317   1.376   3.823  10.587 -0.9441 -0.1046 -1.0994
  186SAPI    C221318   1.410   4.024  10.527  0.3615  0.2865 -0.4987
  186SAPI    HS21319   1.417   4.117  10.586  0.5527  0.0341 -0.1211
  186SAPI   O2121320   1.290   4.032  10.443  0.2038 -0.1075  0.3294
  186SAPI   C2121321   1.293   4.135  10.363 -0.7273 -1.0452 -0.2665
  186SAPI   O2221322   1.374   4.224  10.371  0.2381 -0.3224 -0.2443
  186SAPI   C2221323   1.179   4.129  10.266 -0.3142 -0.0850 -0.1545
  186SAPI   H2R21324   1.159   4.029  10.221 -0.6795  0.2021 -0.6450
  186SAPI   H2S21325   1.086   4.166  10.314 -0.5457  1.3540 -1.6237
  186SAPI    C321326   1.552   4.004  10.464 -0.0876 -0.1687 -1.0726
  186SAPI    HX21327   1.638   4.004  10.534 -0.9874 -0.8216  0.0831
  186SAPI    HY21328   1.563   4.091  10.397 -1.0802 -0.5236 -1.7259
  186SAPI   O3121329   1.573   3.869  10.415 -0.9511  0.0275 -0.4064
  186SAPI   C3121330   1.523   3.843  10.293  0.0150  0.0774  0.4621
  186SAPI   O3221331   1.461   3.922  10.226 -0.0377 -0.0754  0.3907
  186SAPI   C3221332   1.551   3.698  10.255  0.3870 -0.1208  0.6330
  186SAPI   H2X21333   1.521   3.629  10.336 -0.2604 -0.5098  0.0655
  186SAPI   H2Y21334   1.657   3.687  10.223  0.0459  1.9244 -1.4946
  186SAPI   C2321335   1.213   4.212  10.140 -0.2119 -0.4715  0.2259
  186SAPI   H3R21336   1.303   4.163  10.097  0.3326 -0.3399  1.1900
  186SAPI   H3S21337   1.247   4.316  10.162  1.0589  0.7878 -5.8130
  186SAPI   C2421338   1.098   4.233  10.040  0.3160  0.0149 -0.1407
  186SAPI   H4R21339   1.052   4.134  10.023  2.0863 -1.2065  1.7027
  186SAPI   H4S21340   1.134   4.274   9.943 -0.1347 -0.3876 -0.4787
  186SAPI   C2521341   0.995   4.332  10.104 -0.0583  0.1668 -0.1251
  186SAPI   H5R21342   1.034   4.424  10.149 -2.0318  0.2345  1.5926
  186SAPI   C2621343   0.865   4.312  10.100  0.0845 -0.1802  0.2730
  186SAPI   H6R21344   0.801   4.376  10.163  0.9101 -2.1559  3.3263
  186SAPI   C2721345   0.788   4.195  10.045 -0.0367  0.4825 -0.4758
  186SAPI   H7R21346   0.829   4.164   9.946  0.3505  0.6014 -0.3533
  186SAPI   H7S21347   0.699   4.251  10.008  0.1627  0.8094 -0.4617
  186SAPI   C2821348   0.731   4.071  10.117 -0.0339 -0.8192 -0.7637
  186SAPI   H8R21349   0.689   4.078  10.219  0.5660  0.9873 -0.6056
  186SAPI   C2921350   0.700   3.959  10.051  0.1089  0.5571  0.2909
  186SAPI   H9R21351   0.658   3.872  10.104  0.6092 -0.7857 -1.4030
  186SAPI  C21021352   0.722   3.920   9.907  0.2984 -0.5137  0.2246
  186SAPI  H10R21353   0.781   3.827   9.896  2.1509  0.5518  0.7374
  186SAPI  H10S21354   0.779   3.998   9.853 -1.5402  0.4809 -0.3973
  186SAPI  C21121355   0.587   3.904   9.838  0.2355 -0.3130  0.3271
  186SAPI  H11R21356   0.503   3.877   9.904 -1.2316 -0.6845 -1.5905
  186SAPI  C21221357   0.559   3.921   9.707 -0.2586 -0.2222 -0.0394
  186SAPI  H12R21358   0.460   3.896   9.665  0.4201  0.0942 -1.9126
  186SAPI  C21321359   0.652   3.975   9.599  0.3995 -0.8817 -0.1040
  186SAPI  H13R21360   0.735   4.032   9.645 -0.0485 -0.3497  0.0519
  186SAPI  H13S21361   0.597   4.052   9.540 -2.1948  0.0547  3.2030
  186SAPI  C21421362   0.722   3.869   9.517 -0.0354  0.4683 -0.0971
  186SAPI  H14R21363   0.797   3.811   9.572 -0.3945 -0.1752 -0.2725
  186SAPI  C21521364   0.723   3.868   9.386  0.0461 -0.2702  0.1994
  186SAPI  H15R21365   0.777   3.786   9.334 -0.5525 -0.9607  0.6530
  186SAPI  C21621366   0.649   3.964   9.295 -0.1246 -0.1533 -0.7051
  186SAPI  H16R21367   0.718   4.037   9.246 -1.9239  2.2739  0.1314
  186SAPI  H16S21368   0.570   4.024   9.346  0.8530 -0.2536  0.9803
  186SAPI  C21721369   0.575   3.904   9.169 -0.0388  0.1474 -0.0679
  186SAPI  H17R21370   0.496   3.840   9.215 -0.2716  1.7325  1.8696
  186SAPI  H17S21371   0.647   3.827   9.134  1.7762  2.1365 -0.8678
  186SAPI  C21821372   0.523   4.001   9.067  0.2429 -0.1136 -0.9171
  186SAPI  H18R21373   0.610   4.055   9.025  0.3321  0.4082 -0.0925
  186SAPI  H18S21374   0.462   4.078   9.119  0.4678  0.1458 -1.0369
  186SAPI  C21921375   0.434   3.936   8.958  0.4636 -0.0455 -0.5021
  186SAPI  H19R21376   0.327   3.943   8.988  0.8604 -1.2481  1.4006
  186SAPI  H19S21377   0.464   3.830   8.954  0.6655 -0.0395  0.5493
  186SAPI  C22021378   0.443   3.999   8.818  0.6730 -0.2041 -0.6927
  186SAPI  H20R21379   0.350   3.984   8.760 -0.8841  4.2050  0.2558
  186SAPI  H20S21380   0.527   3.957   8.758  1.5746 -1.7040  1.5048
  186SAPI  H20T21381   0.445   4.109   8.834  1.7912 -0.4692  1.4061
  186SAPI   C3321382   1.459   3.671  10.133 -0.4015 -1.0028 -0.5678
  186SAPI   H3X21383   1.450   3.747  10.052  0.3473  1.7965  1.8217
  186SAPI   H3Y21384   1.356   3.669  10.175  0.4848 -0.1956  1.7971
  186SAPI   C3421385   1.468   3.533  10.072 -0.2632 -0.3223  0.5643
  186SAPI   H4X21386   1.432   3.467  10.154 -0.4859 -1.9508 -0.7967
  186SAPI   H4Y21387   1.574   3.510  10.046 -0.7378  0.4798 -2.4188
  186SAPI   C3521388   1.386   3.496   9.945 -0.4402 -0.2992  0.0439
  186SAPI   H5X21389   1.451   3.515   9.856 -1.1590  3.6122  0.1452
  186SAPI   H5Y21390   1.303   3.568   9.930 -2.4971 -2.3313  1.1384
  186SAPI   C3621391   1.330   3.360   9.951  0.9201  0.1774  0.0108
  186SAPI   H6X21392   1.257   3.363  10.034 -0.8501 -0.6799 -1.4366
  186SAPI   H6Y21393   1.422   3.302   9.975  0.9318  0.5464  0.8914
  186SAPI   C3721394   1.246   3.325   9.828  0.0655  0.1801  0.1621
  186SAPI   H7X21395   1.310   3.316   9.738 -0.7501  1.8650 -0.6337
  186SAPI   H7Y21396   1.160   3.393   9.809 -1.1574 -1.3867 -0.1209
  186SAPI   C3821397   1.175   3.187   9.836  0.2153  0.6954  0.3607
  186SAPI   H8X21398   1.108   3.171   9.924 -2.6272 -1.5758 -1.9949
  186SAPI   H8Y21399   1.252   3.108   9.844  0.3512  0.8314  0.3954
  186SAPI   C3921400   1.084   3.157   9.709 -0.3890 -0.5701  0.2745
  186SAPI   H9X21401   1.005   3.235   9.703 -0.0315 -0.0471  2.0095
  186SAPI   H9Y21402   1.041   3.055   9.723  1.8162 -1.4029  1.4034
  186SAPI  C31021403   1.176   3.162   9.576  0.8115  0.4280  0.0534
  186SAPI  H10X21404   1.269   3.102   9.591  0.0084 -1.0009 -0.5324
  186SAPI  H10Y21405   1.201   3.266   9.548  0.3069  0.5659  0.1104
  186SAPI  C31121406   1.110   3.083   9.455  0.4116 -0.1261  0.1152
  186SAPI  H11X21407   1.004   3.112   9.442  0.9498  1.0120 -2.2457
  186SAPI  H11Y21408   1.111   2.980   9.496  0.3146 -0.0571  0.2915
  186SAPI  C31221409   1.190   3.088   9.330 -0.4637 -0.5760  0.3661
  186SAPI  H12X21410   1.289   3.042   9.350  0.7183  1.4855 -0.5047
  186SAPI  H12Y21411   1.217   3.193   9.308  3.0325 -1.2654  0.9137
  186SAPI  C31321412   1.115   3.015   9.219  0.4668 -1.0572 -0.2332
  186SAPI  H13X21413   1.014   3.060   9.208  0.7049 -0.8108 -1.6378
  186SAPI  H13Y21414   1.094   2.912   9.253 -0.3861 -0.8195  0.0047
  186SAPI  C31421415   1.172   3.023   9.080 -0.0515  0.4439  0.3293
  186SAPI  H14X21416   1.265   2.966   9.062  1.3137  2.5979  0.1187
  186SAPI  H14Y21417   1.198   3.127   9.052  0.7412 -0.4946 -2.7118
  186SAPI  C31521418   1.066   2.976   8.975 -0.5105 -0.1834 -0.5296
  186SAPI  H15X21419   0.974   3.036   8.988  0.3128  1.0481 -0.2369
  186SAPI  H15Y21420   1.055   2.867   8.994 -1.0056  0.0654  0.7519
  186SAPI  C31621421   1.102   3.007   8.829 -0.6190 -0.5660  0.0545
  186SAPI  H16X21422   1.034   2.949   8.763 -0.0418 -2.1273  0.7909
  186SAPI  H16Y21423   1.201   2.960   8.812  0.2990  1.1336  0.4305
  186SAPI  C31721424   1.102   3.151   8.795  0.3244  0.6640  0.5868
  186SAPI  H17X21425   1.156   3.216   8.868 -0.2462  0.9826  0.7250
  186SAPI  H17Y21426   1.003   3.198   8.811 -0.7900 -1.1370 -0.7104
  186SAPI  C31821427   1.141   3.186   8.651 -0.5970  0.1691  0.3044
  186SAPI  H18X21428   1.074   3.139   8.576 -1.0561  1.5803 -0.2047
  186SAPI  H18Y21429   1.247   3.161   8.629 -0.8001 -1.7546  1.2612
  186SAPI  H18Z21430   1.135   3.295   8.633  1.1905  0.0300 -1.5343
  187SAPI   C1221431   1.008   4.908   6.207  0.1162 -0.3364 -0.9580
  187SAPI    H221432   1.086   4.846   6.257 -1.3317 -0.9880  0.5741
  187SAPI    O221433   0.928   4.945   6.318  0.3220  0.2813 -0.0908
  187SAPI   HO221434   0.855   4.883   6.320  0.0132  0.6476  1.6598
  187SAPI   C1321435   1.079   5.020   6.138 -0.5289 -0.4448 -0.5276
  187SAPI    H321436   1.155   4.991   6.063  1.5353  2.2221  0.3570
  187SAPI    O321437   1.168   5.082   6.234 -0.4054 -0.1261 -0.0424
  187SAPI   HO321438   1.121   5.149   6.285 -2.1331  0.2116 -1.9374
  187SAPI   C1421439   0.977   5.116   6.064 -0.1949 -0.5210 -0.0963
  187SAPI    H421440   0.924   5.169   6.145  2.4074  0.8266  0.8594
  187SAPI    O421441   1.051   5.217   6.004  0.1424 -0.2442 -0.8845
  187SAPI   HO421442   0.995   5.247   5.932  0.4367  0.5878 -0.7748
  187SAPI   C1521443   0.890   5.048   5.968 -0.0046  0.2928  0.0506
  187SAPI    H521444   0.949   4.998   5.887  1.5483 -0.3241  1.4948
  187SAPI    O521445   0.807   5.139   5.884 -0.1663  0.2501 -0.7362
  187SAPI   HO521446   0.763   5.201   5.942 -1.7615 -1.2429 -0.2678
  187SAPI   C1621447   0.817   4.941   6.043 -0.3691 -0.6589 -0.4775
  187SAPI    H621448   0.760   4.989   6.124  3.0332  3.1871 -0.0789
  187SAPI    O621449   0.727   4.877   5.956 -0.1133 -0.1952  0.3026
  187SAPI   HO621450   0.640   4.891   5.994 -0.1310 -1.5354  0.8229
  187SAPI   C1121451   0.922   4.838   6.099 -0.2845  0.5511  0.1277
  187SAPI    H121452   0.977   4.811   6.006 -1.7864  1.3578 -1.0299
  187SAPI     P21453   0.947   4.587   6.175  0.0815 -0.1579 -0.2177
  187SAPI   O1321454   1.041   4.570   6.061 -0.1123 -0.0249  0.2621
  187SAPI   O1421455   0.861   4.470   6.204  0.1790 -0.6704  0.0762
  187SAPI   O1221456   0.854   4.720   6.157 -0.3129 -0.2248  0.5554
  187SAPI   O1121457   1.031   4.618   6.302 -0.0527 -0.8790 -0.2927
  187SAPI    C121458   0.979   4.591   6.432 -0.2056  0.6381  0.1255
  187SAPI    HA21459   0.896   4.662   6.452 -0.4908  0.2529  0.3476
  187SAPI    HB21460   0.945   4.485   6.434  2.5530 -0.3827 -1.0853
  187SAPI    C221461   1.087   4.617   6.538  0.0960 -0.8583 -0.8374
  187SAPI    HS21462   1.158   4.532   6.530 -0.0828 -1.2940  1.4181
  187SAPI   O2121463   1.026   4.610   6.665  0.0773  0.2808 -0.1607
  187SAPI   C2121464   1.095   4.551   6.760 -0.2327  0.3491 -0.1074
  187SAPI   O2221465   1.210   4.516   6.753 -0.6694  0.1005 -0.1897
  187SAPI   C2221466   1.007   4.523   6.876  0.4538 -0.1656 -0.3699
  187SAPI   H2R21467   0.901   4.504   6.849  0.5160 -2.9037  0.9791
  187SAPI   H2S21468   1.047   4.433   6.928 -4.4925 -1.5171  1.6930
  187SAPI    C321469   1.163   4.747   6.518  0.1027  0.1015 -0.2142
  187SAPI    HX21470   1.099   4.838   6.516  1.0256  0.7682  0.3490
  187SAPI    HY21471   1.212   4.748   6.418  1.8513 -0.1054  0.6153
  187SAPI   O3121472   1.262   4.759   6.618  0.5698 -0.8900 -0.3850
  187SAPI   C3121473   1.382   4.718   6.591 -0.3460  0.1182  0.1494
  187SAPI   O3221474   1.414   4.662   6.489  0.3166  0.1190  0.4068
  187SAPI   C3221475   1.489   4.775   6.690 -1.2120  0.1983  0.4820
  187SAPI   H2X21476   1.489   4.886   6.679 -2.3194  0.0665 -1.3635
  187SAPI   H2Y21477   1.582   4.740   6.640 -1.9890 -0.4566 -0.5378
  187SAPI   C2321478   1.013   4.629   6.997  0.4790 -0.6495  0.1873
  187SAPI   H3R21479   0.948   4.714   6.965  1.7521  0.8918  1.4714
  187SAPI   H3S21480   1.112   4.673   7.023  1.6788 -1.9363 -1.9558
  187SAPI   C2421481   0.949   4.580   7.128 -0.1030 -0.1205  0.6118
  187SAPI   H4R21482   1.007   4.496   7.174  0.6577  0.4335  0.6896
  187SAPI   H4S21483   0.851   4.535   7.104  0.2012 -0.2800 -0.3712
  187SAPI   C2521484   0.923   4.698   7.218  0.0828  0.4088  0.1599
  187SAPI   H5R21485   0.844   4.762   7.176  0.3231  0.1380 -0.7243
  187SAPI   C2621486   0.984   4.732   7.333 -0.4170  0.0856 -0.5855
  187SAPI   H6R21487   0.949   4.823   7.385 -1.1663 -0.2948 -0.4117
  187SAPI   C2721488   1.095   4.652   7.400 -0.2649  0.2333 -0.4178
  187SAPI   H7R21489   1.157   4.717   7.465  1.6442 -3.1885  1.4839
  187SAPI   H7S21490   1.157   4.594   7.328 -0.8761 -3.2951  1.6538
  187SAPI   C2821491   1.039   4.532   7.483  0.2386 -0.6914 -0.2774
  187SAPI   H8R21492   0.974   4.468   7.421  1.0820  0.3953 -2.4035
  187SAPI   C2921493   1.065   4.514   7.614 -0.2749 -0.2899  0.1621
  187SAPI   H9R21494   1.018   4.431   7.668  1.7694 -1.7781 -0.2351
  187SAPI  C21021495   1.163   4.588   7.697 -0.0437  0.1413  0.2883
  187SAPI  H10R21496   1.259   4.590   7.641  0.5259 -1.1945  1.1753
  187SAPI  H10S21497   1.193   4.522   7.781  2.1493  0.7512  0.0575
  187SAPI  C21121498   1.129   4.731   7.740 -0.1650 -0.7188 -0.2819
  187SAPI  H11R21499   1.109   4.808   7.664 -0.3797  0.4996  0.9527
  187SAPI  C21221500   1.126   4.784   7.863  0.4129  0.1092 -0.2758
  187SAPI  H12R21501   1.093   4.887   7.884 -0.0728 -0.2926  0.9918
  187SAPI  C21321502   1.141   4.715   7.996 -0.9981  0.1733 -0.3728
  187SAPI  H13R21503   1.168   4.609   7.980 -1.3634  0.1667 -1.0037
  187SAPI  H13S21504   1.043   4.726   8.046 -0.7950  1.1358 -0.1695
  187SAPI  C21421505   1.247   4.782   8.083  0.1519  0.1234 -0.5538
  187SAPI  H14R21506   1.259   4.890   8.070  3.2209 -0.1066 -0.2431
  187SAPI  C21521507   1.326   4.734   8.180  0.8732  0.2509 -0.3728
  187SAPI  H15R21508   1.400   4.797   8.232  0.4235 -0.8685  1.7431
  187SAPI  C21621509   1.327   4.598   8.244  0.6489  0.3443 -0.9828
  187SAPI  H16R21510   1.425   4.548   8.225 -0.1654 -1.2013 -1.3262
  187SAPI  H16S21511   1.245   4.543   8.192 -0.0203  0.6740 -0.3039
  187SAPI  C21721512   1.288   4.595   8.394  0.2420 -0.2699 -0.3334
  187SAPI  H17R21513   1.365   4.653   8.449  0.9232 -2.3175  1.0116
  187SAPI  H17S21514   1.292   4.487   8.421 -1.9660 -0.8937 -2.1605
  187SAPI  C21821515   1.151   4.647   8.411 -0.8480 -0.9569  0.0954
  187SAPI  H18R21516   1.096   4.621   8.319  1.2624 -0.5481 -1.3600
  187SAPI  H18S21517   1.159   4.757   8.421 -2.2529 -0.6979 -1.2810
  187SAPI  C21921518   1.080   4.597   8.528  0.3831  0.3160 -0.1349
  187SAPI  H19R21519   1.054   4.489   8.517 -1.5969  0.8887 -1.5258
  187SAPI  H19S21520   0.982   4.648   8.538  0.3149  0.0546  0.6279
  187SAPI  C22021521   1.153   4.608   8.659  0.4732 -0.7339 -0.2789
  187SAPI  H20R21522   1.187   4.712   8.677  1.1608 -1.1217  0.7554
  187SAPI  H20S21523   1.242   4.542   8.665  0.7969 -0.6075 -2.6648
  187SAPI  H20T21524   1.086   4.582   8.744  0.3526  1.9081  0.5281
  187SAPI   C3321525   1.458   4.728   6.836 -0.7190 -0.4932 -0.0884
  187SAPI   H3X21526   1.350   4.735   6.862 -0.6136  1.5701 -0.0213
  187SAPI   H3Y21527   1.495   4.805   6.907 -2.6137 -0.4565  0.9319
  187SAPI   C3421528   1.512   4.589   6.875 -0.3322 -0.4290 -0.5626
  187SAPI   H4X21529   1.622   4.584   6.866 -0.3773 -2.6503 -0.3112
  187SAPI   H4Y21530   1.460   4.517   6.808  1.8008 -1.5425 -1.1160
  187SAPI   C3521531   1.472   4.545   7.017 -0.4420  0.1599  0.4458
  187SAPI   H5X21532   1.480   4.434   7.013  0.2752  0.2421 -1.0267
  187SAPI   H5Y21533   1.368   4.573   7.044  0.4101  1.7253  2.3170
  187SAPI   C3621534   1.552   4.613   7.124 -0.1970 -0.8298 -0.4009
  187SAPI   H6X21535   1.532   4.721   7.107 -2.4307 -1.4345 -2.0866
  187SAPI   H6Y21536   1.660   4.597   7.106  0.7308  1.9947  1.8546
  187SAPI   C3721537   1.523   4.558   7.261  1.4993 -0.3426  0.4017
  187SAPI   H7X21538   1.563   4.454   7.267  0.3938 -0.7067  2.6902
  187SAPI   H7Y21539   1.417   4.537   7.285  1.4328  0.2643  0.6509
  187SAPI   C3821540   1.604   4.636   7.361  0.2958 -0.8235  0.2039
  187SAPI   H8X21541   1.561   4.738   7.361 -0.8607 -1.2922  0.1635
  187SAPI   H8Y21542   1.707   4.648   7.321 -0.1263 -0.7011 -0.8751
  187SAPI   C3921543   1.598   4.581   7.502  0.0182  0.0457 -0.0694
  187SAPI   H9X21544   1.597   4.470   7.508 -1.1365  0.0986  1.1004
  187SAPI   H9Y21545   1.505   4.609   7.555  0.3708  3.3743 -0.9815
  187SAPI  C31021546   1.723   4.628   7.579 -0.1311  0.0632  0.4520
  187SAPI  H10X21547   1.730   4.736   7.601  1.3039  0.1448 -0.2814
  187SAPI  H10Y21548   1.799   4.598   7.503 -0.5132 -0.7621  0.3757
  187SAPI  C31121549   1.732   4.547   7.710 -0.3901  0.8300  0.3974
  187SAPI  H11X21550   1.831   4.563   7.759  1.1874 -1.8044 -1.6454
  187SAPI  H11Y21551   1.733   4.439   7.686  0.0484  0.4845  1.8627
  187SAPI  C31221552   1.616   4.572   7.811  0.0364 -0.2217  0.4387
  187SAPI  H12X21553   1.518   4.543   7.767 -1.3389 -0.0107  3.1671
  187SAPI  H12Y21554   1.617   4.683   7.818  2.7778 -0.0677 -1.1167
  187SAPI  C31321555   1.631   4.503   7.947  1.0528  0.2800 -0.4446
  187SAPI  H13X21556   1.565   4.554   8.020  0.7003  1.5648 -1.6189
  187SAPI  H13Y21557   1.739   4.505   7.974  1.1892  2.8954 -0.9583
  187SAPI  C31421558   1.577   4.356   7.935 -0.4117  0.1070  0.0559
  187SAPI  H14X21559   1.625   4.317   7.843  1.5373  0.9709  0.6635
  187SAPI  H14Y21560   1.466   4.361   7.928 -0.3935 -0.0597 -0.3916
  187SAPI  C31521561   1.624   4.267   8.058  0.0313 -1.1229  0.2072
  187SAPI  H15X21562   1.734   4.268   8.068  0.1764 -1.7682 -1.1488
  187SAPI  H15Y21563   1.589   4.167   8.022 -1.3862 -0.4069 -0.5087
  187SAPI  C31621564   1.551   4.302   8.190  0.3702 -0.0547 -0.3674
  187SAPI  H16X21565   1.444   4.326   8.172  0.3238 -0.7305 -1.0401
  187SAPI  H16Y21566   1.585   4.394   8.243 -0.3481  0.1846 -0.3152
  187SAPI  C31721567   1.561   4.184   8.292 -0.1844 -0.4346 -0.2595
  187SAPI  H17X21568   1.668   4.155   8.304 -0.0111  0.2466 -0.1212
  187SAPI  H17Y21569   1.508   4.091   8.262 -4.1746  1.4953  0.2203
  187SAPI  C31821570   1.505   4.220   8.430  1.2992 -0.0892 -0.3927
  187SAPI  H18X21571   1.535   4.147   8.508  0.7005 -1.7947 -1.6776
  187SAPI  H18Y21572   1.395   4.228   8.419  0.9518 -1.2059  1.7244
  187SAPI  H18Z21573   1.539   4.321   8.461 -2.0194  0.6778  1.2035
  188SAPI   C1221574   2.302   0.886   5.993 -0.7793  0.2206  0.9161
  188SAPI    H221575   2.331   0.787   6.035 -1.1562 -0.6130 -0.6879
  188SAPI    O221576   2.418   0.956   5.947 -0.7323  0.8517  0.1517
  188SAPI   HO221577   2.426   0.947   5.852 -0.6783  0.7103  0.1691
  188SAPI   C1321578   2.211   0.853   5.876  0.0504 -0.1818  0.0516
  188SAPI    H321579   2.135   0.785   5.919 -1.8374  2.1129  0.5752
  188SAPI    O321580   2.276   0.795   5.763 -0.2397  0.8300  0.3391
  188SAPI   HO321581   2.216   0.731   5.724  0.0971  0.3940  0.5279
  188SAPI   C1421582   2.138   0.987   5.830 -0.5401  0.2738 -0.2642
  188SAPI    H421583   2.203   1.065   5.784 -2.2532  1.2412 -1.1545
  188SAPI    O421584   2.041   0.951   5.730 -0.6481 -0.2817 -0.5851
  188SAPI   HO421585   1.953   0.953   5.769  0.0482  3.6502  1.3033
  188SAPI   C1521586   2.079   1.067   5.948  0.1381 -0.1039  0.3869
  188SAPI    H521587   1.990   1.011   5.983 -0.1202  0.5109  0.7393
  188SAPI    O521588   2.043   1.200   5.893  0.3807 -0.1249 -0.5680
  188SAPI   HO521589   2.047   1.193   5.798  2.1808 -1.3296 -0.4560
  188SAPI   C1621590   2.176   1.095   6.058 -0.4720  0.1706  0.2873
  188SAPI    H621591   2.262   1.152   6.015  0.5119  0.5159  2.5566
  188SAPI    O621592   2.126   1.175   6.167  0.2691  0.0705 -0.5374
  188SAPI   HO621593   2.082   1.107   6.220 -0.2992  0.1419 -0.9024
  188SAPI   C1121594   2.233   0.961   6.112  0.1043  0.0627 -0.5698
  188SAPI    H121595   2.152   0.895   6.151  0.2753 -0.2272 -0.6939
  188SAPI     P21596   2.346   0.860   6.337  0.3236  0.4827  0.2090
  188SAPI   O1321597   2.472   0.881   6.415  0.6637  0.0037 -0.4511
  188SAPI   O1421598   2.322   0.720   6.288 -0.1549  0.1960 -0.3168
  188SAPI   O1221599   2.343   0.968   6.213  0.6152 -0.2893  0.7644
  188SAPI   O1121600   2.230   0.917   6.426  0.0358  0.3945  0.6632
  188SAPI    C121601   2.208   1.055   6.455  0.1980 -0.2971  0.1716
  188SAPI    HA21602   2.276   1.115   6.390 -1.7977 -0.7108 -2.4439
  188SAPI    HB21603   2.104   1.080   6.426  0.0599  0.0445  0.9491
  188SAPI    C221604   2.224   1.076   6.608  0.2803 -0.3888 -0.5002
  188SAPI    HS21605   2.212   1.184   6.631 -0.6254 -0.3411 -1.1470
  188SAPI   O2121606   2.347   1.026   6.668  0.0869  0.2871  0.0424
  188SAPI   C2121607   2.450   1.108   6.643  0.1002  0.4263 -0.2426
  188SAPI   O2221608   2.445   1.209   6.570  0.4794 -0.3911 -0.5651
  188SAPI   C2221609   2.569   1.055   6.721 -0.4720 -0.3893  0.7268
  188SAPI   H2R21610   2.551   0.953   6.760 -0.5702  0.1356  2.0974
  188SAPI   H2S21611   2.660   1.073   6.660 -0.0479  2.2130  2.0021
  188SAPI    C321612   2.110   1.012   6.684  0.7877  0.8807  0.2039
  188SAPI    HX21613   2.134   0.903   6.684 -0.0691  0.6813  0.6267
  188SAPI    HY21614   2.011   1.028   6.637  1.2062  0.7571 -0.7497
  188SAPI   O3121615   2.107   1.060   6.818  0.1991 -0.0826 -0.2177
  188SAPI   C3121616   2.007   1.007   6.890  0.0747 -0.3298  0.0042
  188SAPI   O3221617   1.920   0.941   6.843  0.0525 -0.8881 -0.0439
  188SAPI   C3221618   2.025   1.034   7.041 -0.5652  0.1374 -0.5240
  188SAPI   H2X21619   2.084   1.128   7.048 -1.7254  1.0145 -1.8187
  188SAPI   H2Y21620   2.080   0.954   7.094 -0.9739  0.5959  0.6170
  188SAPI   C2321621   2.598   1.141   6.840 -0.2273 -0.3944  0.1554
  188SAPI   H3R21622   2.542   1.237   6.839 -0.4154 -0.4855  1.1045
  188SAPI   H3S21623   2.708   1.154   6.825 -0.2689 -1.9986 -2.1622
  188SAPI   C2421624   2.571   1.071   6.976  0.0451  0.2974  0.4463
  188SAPI   H4R21625   2.637   1.122   7.050  1.0897 -2.3626  1.4627
  188SAPI   H4S21626   2.618   0.970   6.974 -1.2558 -0.3156 -0.7102
  188SAPI   C2521627   2.429   1.049   7.017 -0.7491  0.4740 -0.5564
  188SAPI   H5R21628   2.388   0.962   6.963  2.6253 -1.1607 -0.7786
  188SAPI   C2621629   2.365   1.105   7.121  0.4134 -0.3725  0.0240
  188SAPI   H6R21630   2.260   1.080   7.141  0.1775 -0.4545 -1.2439
  188SAPI   C2721631   2.424   1.213   7.204  0.6697 -0.2158 -0.3109
  188SAPI   H7R21632   2.341   1.281   7.234  0.1477 -0.6588 -0.7432
  188SAPI   H7S21633   2.483   1.281   7.138 -0.0740  1.1977  0.4265
  188SAPI   C2821634   2.527   1.178   7.312 -0.2950  0.3734 -0.7321
  188SAPI   H8R21635   2.633   1.173   7.283  0.1127  0.1865  0.6932
  188SAPI   C2921636   2.507   1.179   7.448 -0.0974  0.1949  0.9823
  188SAPI   H9R21637   2.586   1.152   7.520 -0.6728 -1.6676  0.9723
  188SAPI  C21021638   2.378   1.208   7.519 -0.3132 -0.4088 -0.3426
  188SAPI  H10R21639   2.306   1.275   7.467 -2.2459 -2.1971 -0.1232
  188SAPI  H10S21640   2.412   1.264   7.608  1.5839  0.0589 -1.3156
  188SAPI  C21121641   2.293   1.088   7.560 -0.1771 -0.0338  1.5948
  188SAPI  H11R21642   2.272   1.017   7.478 -1.9551  1.0569  1.0335
  188SAPI  C21221643   2.224   1.069   7.672  0.2818  0.2514 -0.2471
  188SAPI  H12R21644   2.167   0.975   7.674  0.2105  0.2765 -0.8539
  188SAPI  C21321645   2.214   1.160   7.792  0.2072  0.2496  0.3858
  188SAPI  H13R21646   2.153   1.111   7.872  2.2130 -1.9208  0.7031
  188SAPI  H13S21647   2.152   1.249   7.771  0.3121  0.2821  0.2136
  188SAPI  C21421648   2.350   1.199   7.857 -0.4190  0.1839 -0.7223
  188SAPI  H14R21649   2.395   1.288   7.809  1.3962 -0.8606 -1.0444
  188SAPI  C21521650   2.420   1.122   7.944  0.5066 -0.5243 -0.2080
  188SAPI  H15R21651   2.517   1.166   7.971  1.2638 -0.3414 -2.9367
  188SAPI  C21621652   2.388   0.988   7.991 -0.3262 -0.1608 -0.5253
  188SAPI  H16R21653   2.341   0.920   7.917 -0.4168  0.1283 -0.7348
  188SAPI  H16S21654   2.320   1.003   8.078  1.2660 -0.7729  0.8847
  188SAPI  C21721655   2.512   0.905   8.011  0.3801 -0.7092 -0.4406
  188SAPI  H17R21656   2.572   0.938   8.099  1.9641  1.0541 -2.0922
  188SAPI  H17S21657   2.585   0.909   7.927  1.1791 -2.0878  0.1405
  188SAPI  C21821658   2.475   0.758   8.008 -0.3596  0.3501 -0.3109
  188SAPI  H18R21659   2.469   0.727   7.901  0.3276 -0.1389 -0.2160
  188SAPI  H18S21660   2.376   0.727   8.047 -0.0833 -0.9164 -0.5633
  188SAPI  C21921661   2.585   0.662   8.063 -0.4761 -0.3698 -0.1791
  188SAPI  H19R21662   2.645   0.718   8.138  0.7716 -1.0148 -0.6628
  188SAPI  H19S21663   2.661   0.638   7.986  0.2984  1.5223 -0.0608
  188SAPI  C22021664   2.534   0.535   8.120  0.4661 -0.0463 -0.2796
  188SAPI  H20R21665   2.468   0.572   8.202 -0.1779  0.5990 -1.0678
  188SAPI  H20S21666   2.605   0.461   8.163 -0.8669 -0.7422  0.8344
  188SAPI  H20T21667   2.476   0.471   8.050  2.2430 -0.9614 -0.9537
  188SAPI   C3321668   1.884   1.057   7.110 -0.2831 -0.0246 -0.0844
  188SAPI   H3X21669   1.818   0.968   7.115 -2.0224  1.1375 -1.4609
  188SAPI   H3Y21670   1.830   1.129   7.045 -1.2558 -3.1469 -3.0226
  188SAPI   C3421671   1.886   1.112   7.251  0.0609 -0.0756  0.3247
  188SAPI   H4X21672   1.783   1.149   7.269 -0.2697 -0.3017 -0.9835
  188SAPI   H4Y21673   1.964   1.191   7.262 -0.6298  0.5257  1.0064
  188SAPI   C3521674   1.908   1.009   7.363  0.3427  0.0245 -0.3709
  188SAPI   H5X21675   2.011   0.968   7.351  1.1721  1.5552  1.0760
  188SAPI   H5Y21676   1.837   0.924   7.362 -0.9389  0.9745  2.2602
  188SAPI   C3621677   1.889   1.069   7.498 -0.3837 -0.3644  0.5100
  188SAPI   H6X21678   1.808   1.144   7.505  0.3933  0.5726 -0.2970
  188SAPI   H6Y21679   1.976   1.128   7.532  1.2275 -2.2776 -0.1002
  188SAPI   C3721680   1.862   0.963   7.611 -0.5748 -0.1995 -0.3726
  188SAPI   H7X21681   1.942   0.886   7.612  0.7129  1.0718 -1.3013
  188SAPI   H7Y21682   1.765   0.912   7.591  0.0023 -2.2163  1.5407
  188SAPI   C3821683   1.843   1.016   7.756  0.4071 -0.5456 -0.4672
  188SAPI   H8X21684   1.742   1.063   7.766  0.2130 -1.3375  1.7071
  188SAPI   H8Y21685   1.919   1.097   7.759  1.2582 -1.3703  1.2614
  188SAPI   C3921686   1.876   0.909   7.859 -0.3404 -0.6508 -0.1925
  188SAPI   H9X21687   1.981   0.887   7.827  0.6301  3.2404 -0.2075
  188SAPI   H9Y21688   1.812   0.820   7.843 -1.1636 -0.5802  2.2781
  188SAPI  C31021689   1.856   0.960   8.004 -0.0440  0.1652  0.0049
  188SAPI  H10X21690   1.745   0.970   8.010 -0.2686 -1.4387 -0.7850
  188SAPI  H10Y21691   1.891   1.063   8.026  0.5817 -0.4291  2.1044
  188SAPI  C31121692   1.909   0.868   8.116  0.0237  0.6662  0.3175
  188SAPI  H11X21693   1.866   0.769   8.091 -0.1769  1.2919 -2.1022
  188SAPI  H11Y21694   1.879   0.907   8.215 -0.8780 -0.0881  0.3532
  188SAPI  C31221695   2.066   0.859   8.118  0.1156  0.5953  0.0722
  188SAPI  H12X21696   2.096   0.965   8.108  0.5678  0.3353 -1.6334
  188SAPI  H12Y21697   2.099   0.821   8.019  2.6534  1.6126  0.4633
  188SAPI  C31321698   2.143   0.793   8.239 -0.7718  0.0783 -0.4455
  188SAPI  H13X21699   2.098   0.821   8.337  1.2218 -2.2020  1.2389
  188SAPI  H13Y21700   2.247   0.832   8.242  0.1969 -2.4375  1.3873
  188SAPI  C31421701   2.159   0.636   8.234 -0.5197 -0.1554 -0.2022
  188SAPI  H14X21702   2.251   0.609   8.178 -0.3052 -1.0997  0.5759
  188SAPI  H14Y21703   2.068   0.592   8.186 -1.0172  0.7426 -0.0957
  188SAPI  C31521704   2.195   0.576   8.373 -0.1392 -0.5809 -0.0991
  188SAPI  H15X21705   2.106   0.589   8.440 -0.3456 -0.4095 -0.4032
  188SAPI  H15Y21706   2.280   0.628   8.422 -0.1828 -0.9569  0.3831
  188SAPI  C31621707   2.225   0.423   8.374 -0.7606  0.0850 -0.6589
  188SAPI  H16X21708   2.308   0.401   8.302 -0.5637 -1.4199 -0.0128
  188SAPI  H16Y21709   2.128   0.384   8.336 -1.3000  0.3804  0.3959
  188SAPI  C31721710   2.266   0.364   8.507  0.0588  0.3619 -0.0317
  188SAPI  H17X21711   2.272   0.253   8.513 -0.1217  0.4236  2.2324
  188SAPI  H17Y21712   2.191   0.399   8.582  0.2144  0.2171  0.1897
  188SAPI  C31821713   2.409   0.399   8.539  0.0462 -0.0497 -0.9981
  188SAPI  H18X21714   2.471   0.371   8.451  1.3216 -1.0273  0.1665
  188SAPI  H18Y21715   2.457   0.356   8.629  0.6004  0.2650 -1.1421
  188SAPI  H18Z21716   2.406   0.508   8.560  0.6634 -0.5857  2.4067
  189POPC     N21717   5.925   0.683  10.937  0.0874 -0.4102 -0.0576
  189POPC   C1221718   5.996   0.553  10.914 -0.4268 -0.7596  0.1389
  189POPC  H12A21719   5.951   0.479  10.979  0.1725 -0.0633  1.3819
  189POPC  H12B21720   6.099   0.570  10.939 -1.0554  1.6347  1.4060
  189POPC   C1321721   5.972   0.788  10.833 -0.6526  0.6093 -0.5347
  189POPC  H13A21722   5.955   0.749  10.733  0.4596 -2.8083  0.4807
  189POPC  H13B21723   5.927   0.885  10.848  1.9261  1.8863 -0.5400
  189POPC  H13C21724   6.079   0.799  10.841 -0.8079  3.7680 -1.6330
  189POPC   C1421725   5.778   0.669  10.936  1.0215  0.1815 -0.0625
  189POPC  H14A21726   5.736   0.759  10.977  1.0735 -0.4520  1.4504
  189POPC  H14B21727   5.738   0.645  10.838 -0.1390 -1.2453  0.7079
  189POPC  H14C21728   5.743   0.589  11.000 -3.5569  1.8029 -0.1192
  189POPC   C1521729   5.955   0.741  11.068 -1.0349 -0.5841 -0.3957
  189POPC  H15A21730   6.056   0.774  11.087 -1.5140 -0.1795  1.7223
  189POPC  H15B21731   5.933   0.669  11.145 -0.5362  0.7970  1.0943
  189POPC  H15C21732   5.896   0.828  11.092  1.3677  0.5421  1.9134
  189POPC   C1121733   5.986   0.506  10.771  0.0215 -0.5310  0.1146
  189POPC  H11A21734   5.885   0.489  10.727  0.4785 -1.9676 -0.4167
  189POPC  H11B21735   6.017   0.400  10.763 -1.6659 -1.0292 -0.1323
  189POPC     P21736   6.217   0.568  10.694 -0.3966  0.1311 -0.0475
  189POPC   O1321737   6.256   0.514  10.821  0.2467  0.4098 -0.6519
  189POPC   O1421738   6.288   0.690  10.641  0.3397  0.0250 -0.7977
  189POPC   O1221739   6.059   0.583  10.675 -0.2814 -0.0582  0.3917
  189POPC   O1121740   6.244   0.459  10.586 -0.6461 -0.1044 -0.6851
  189POPC    C121741   6.184   0.443  10.460  0.0291  0.0885 -0.1934
  189POPC    HA21742   6.115   0.528  10.440 -1.7245 -0.5621  2.5663
  189POPC    HB21743   6.117   0.355  10.468  0.9030 -0.5703  0.0348
  189POPC    C221744   6.296   0.417  10.357 -0.2539 -0.3671 -0.1382
  189POPC    HS21745   6.374   0.496  10.367  0.3914 -0.8993 -0.7850
  189POPC   O2121746   6.230   0.424  10.230 -0.3118 -0.6144  0.1346
  189POPC   C2121747   6.228   0.545  10.174  0.0862 -0.3247 -0.8828
  189POPC   O2221748   6.262   0.645  10.233  0.2412  0.3725 -0.1759
  189POPC   C2221749   6.176   0.531  10.025  0.5456 -0.4905  0.0085
  189POPC   H2R21750   6.074   0.489  10.013  0.8843 -0.7368 -2.5784
  189POPC   H2S21751   6.228   0.441   9.987 -0.4413 -2.0732  2.2016
  189POPC    C321752   6.361   0.283  10.388  0.6289  0.0007  0.2149
  189POPC    HX21753   6.279   0.210  10.374  0.5223  0.1820 -0.1099
  189POPC    HY21754   6.390   0.280  10.496 -1.3824  0.7282  0.8189
  189POPC   O3121755   6.458   0.247  10.295 -0.3912  0.7349 -0.0300
  189POPC   C3121756   6.583   0.244  10.349 -0.0327 -0.4743 -0.7778
  189POPC   O3221757   6.613   0.293  10.455 -0.3293 -0.4025  0.0099
  189POPC   C3221758   6.673   0.155  10.266  0.5181 -1.2919  0.4495
  189POPC   H2X21759   6.622   0.156  10.167  2.8012  2.3159 -0.8712
  189POPC   H2Y21760   6.670   0.051  10.305  0.4802 -0.5336  2.5703
  189POPC   C2321761   6.188   0.660   9.946  0.1858 -0.1217 -0.4624
  189POPC   H3R21762   6.289   0.703   9.965  1.6111 -2.7565 -1.5430
  189POPC   H3S21763   6.104   0.730   9.961 -1.6038 -1.2723 -4.0163
  189POPC   C2421764   6.192   0.622   9.795  0.2380 -0.8126  0.4710
  189POPC   H4R21765   6.098   0.566   9.779  0.1118 -0.3701 -0.3644
  189POPC   H4S21766   6.273   0.548   9.778  0.5630 -0.1703 -0.9048
  189POPC   C2521767   6.207   0.735   9.696 -0.2023  0.5739  0.2981
  189POPC   H5R21768   6.287   0.807   9.724  1.3144 -1.8324  2.7358
  189POPC   H5S21769   6.117   0.799   9.706 -0.3689  0.4595 -0.4522
  189POPC   C2621770   6.214   0.678   9.551  0.0564 -0.5538  0.5681
  189POPC   H6R21771   6.118   0.623   9.538 -0.6297  0.2959  1.8245
  189POPC   H6S21772   6.301   0.609   9.546  0.2499 -0.2852  0.2595
  189POPC   C2721773   6.217   0.800   9.450 -0.8378 -0.8246  0.2719
  189POPC   H7R21774   6.300   0.871   9.469  0.2974 -1.9188 -0.4089
  189POPC   H7S21775   6.128   0.862   9.470  1.4112  1.9667  2.5513
  189POPC   C2821776   6.207   0.760   9.302 -0.0658 -0.7411 -0.5988
  189POPC   H8R21777   6.134   0.678   9.285 -3.4519  2.4222 -2.7943
  189POPC   H8S21778   6.310   0.721   9.288  0.1622 -0.1815 -0.4945
  189POPC   C2921779   6.172   0.870   9.210 -0.4767 -0.1054 -0.4023
  189POPC   H9121780   6.182   0.970   9.255 -0.3361 -0.6404  0.7987
  189POPC  C21021781   6.118   0.863   9.088 -0.0618 -0.2409 -0.4712
  189POPC  H10121782   6.087   0.952   9.030  1.6474  0.3778 -0.4982
  189POPC  C21121783   6.088   0.735   9.016 -0.0174 -0.6983  0.4527
  189POPC  H11R21784   5.978   0.727   9.001  0.1325  0.8098 -2.0561
  189POPC  H11S21785   6.126   0.641   9.061  0.7796 -0.9692 -0.7234
  189POPC  C21221786   6.155   0.742   8.878  0.1868  0.3237  0.6963
  189POPC  H12R21787   6.189   0.645   8.836  2.2929  0.5228  1.8106
  189POPC  H12S21788   6.250   0.800   8.887  0.9416 -0.3657 -1.8937
  189POPC  C21321789   6.076   0.803   8.755 -0.4123 -0.1711 -0.4612
  189POPC  H13R21790   6.143   0.805   8.666  0.1549  0.8196 -0.0294
  189POPC  H13S21791   6.048   0.907   8.783 -1.1760  0.0895 -2.0267
  189POPC  C21421792   5.944   0.726   8.730 -0.1724  0.0870 -0.1356
  189POPC  H14R21793   5.884   0.736   8.823 -1.3343 -0.3578 -0.8193
  189POPC  H14S21794   5.967   0.618   8.719  0.1152  0.1299  0.0123
  189POPC  C21521795   5.880   0.769   8.597 -0.2309  0.3571  0.2878
  189POPC  H15R21796   5.802   0.699   8.560 -0.3190  0.6665 -0.1203
  189POPC  H15S21797   5.967   0.766   8.527  0.0428  0.2202  0.6301
  189POPC  C21621798   5.808   0.897   8.595 -0.7019 -0.0948  0.0885
  189POPC  H16R21799   5.878   0.977   8.627 -2.2213  0.4715  2.1202
  189POPC  H16S21800   5.722   0.896   8.664  1.8341 -0.6817  3.4874
  189POPC  C21721801   5.748   0.941   8.455  0.6393  0.3381 -0.6382
  189POPC  H17R21802   5.663   0.873   8.433 -0.0991  0.3733  1.8428
  189POPC  H17S21803   5.829   0.917   8.383  0.7688 -1.5181  0.0581
  189POPC  C21821804   5.700   1.096   8.446  0.3494  0.6122 -0.4519
  189POPC  H18R21805   5.607   1.118   8.502  0.3604 -1.0366  0.2861
  189POPC  H18S21806   5.682   1.108   8.337 -0.6084 -2.4158 -0.7148
  189POPC  H18T21807   5.777   1.167   8.484 -2.1103  2.9261  0.4662
  189POPC   C3321808   6.820   0.191  10.253 -0.9638  0.1616  0.2015
  189POPC   H3X21809   6.860   0.171  10.355 -2.9182  0.0658  0.9928
  189POPC   H3Y21810   6.839   0.298  10.230  2.3643 -0.4110 -0.0987
  189POPC   C3421811   6.899   0.114  10.145 -0.4516 -0.8208 -0.5125
  189POPC   H4X21812   6.873   0.006  10.156 -0.2651 -1.2005 -3.2426
  189POPC   H4Y21813   7.008   0.123  10.164 -0.7795 -1.5010  2.1816
  189POPC   C3521814   6.867   0.157  10.006 -0.2315  0.2929 -0.1043
  189POPC   H5X21815   6.864   0.268  10.002 -2.2684  0.2593 -0.7200
  189POPC   H5Y21816   6.762   0.130   9.985 -0.0057  1.5330 -3.3803
  189POPC   C3621817   6.962   0.101   9.901  0.0681 -0.1966  0.0739
  189POPC   H6X21818   6.948  -0.008   9.919 -0.7685 -0.1763 -0.3768
  189POPC   H6Y21819   7.064   0.140   9.922  0.1712  1.7306 -3.2816
  189POPC   C3721820   6.933   0.139   9.757  0.3663 -0.1754 -0.3954
  189POPC   H7X21821   6.945   0.249   9.748  1.2694 -0.2154  0.0862
  189POPC   H7Y21822   6.826   0.116   9.738  0.4645 -4.9787  3.0511
  189POPC   C3821823   7.023   0.063   9.670  0.4143 -0.2741  0.1808
  189POPC   H8X21824   7.026  -0.043   9.706  1.3273 -0.0123  0.9090
  189POPC   H8Y21825   7.126   0.103   9.671  0.1484  0.4366 -0.5348
  189POPC   C3921826   6.969   0.042   9.531  0.1436  0.4731  0.1082
  189POPC   H9X21827   6.951   0.139   9.479  2.0699  1.3108  0.9204
  189POPC   H9Y21828   6.873  -0.014   9.541 -1.7295  3.0096 -2.1611
  189POPC  C31021829   7.065  -0.040   9.443  0.2314 -0.8355  0.7082
  189POPC  H10X21830   7.098  -0.134   9.492  2.7297  0.0368  0.8277
  189POPC  H10Y21831   7.159   0.017   9.433 -0.6506  0.4754 -0.3329
  189POPC  C31121832   7.006  -0.075   9.307 -0.2757  0.1951  0.2296
  189POPC  H11X21833   6.897  -0.096   9.316 -0.2948  0.5823  0.9798
  189POPC  H11Y21834   7.037  -0.175   9.270 -0.4027  0.6331 -1.0987
  189POPC  C31221835   7.031   0.032   9.203 -0.2756  0.3591  0.0561
  189POPC  H12X21836   7.132   0.009   9.164 -0.3466 -1.1181  0.6533
  189POPC  H12Y21837   7.021   0.131   9.253 -0.7086  0.4799 -0.2707
  189POPC  C31321838   6.937   0.028   9.081 -0.3395 -0.2257  0.1615
  189POPC  H13X21839   6.830   0.044   9.105 -0.8963 -1.5653 -1.2694
  189POPC  H13Y21840   6.950  -0.072   9.035 -0.0007  1.9117 -5.0645
  189POPC  C31421841   6.964   0.139   8.980  0.0177 -0.2030 -0.3212
  189POPC  H14X21842   7.063   0.133   8.931  0.2449 -1.9731  0.2567
  189POPC  H14Y21843   6.960   0.234   9.038 -0.2987 -1.1271  1.2596
  189POPC  C31521844   6.863   0.140   8.854  0.4392 -0.2176  0.1428
  189POPC  H15X21845   6.766   0.168   8.900  0.1376  0.7420 -1.0240
  189POPC  H15Y21846   6.854   0.037   8.814  0.6031 -1.2018  2.4884
  189POPC  C31621847   6.904   0.243   8.752 -0.3697  0.0210  0.8877
  189POPC  H16X21848   7.003   0.225   8.706 -0.3031  2.1127  0.1071
  189POPC  H16Y21849   6.922   0.342   8.798 -0.8452 -0.0256  1.1810
  189POPC  H16Z21850   6.833   0.251   8.666 -0.7803  1.5920  1.3406
  190POPC     N21851   3.581   5.518  11.014  0.4151  0.0852  0.5490
  190POPC   C1221852   3.581   5.461  10.869  0.1317 -0.0324 -0.1964
  190POPC  H12A21853   3.667   5.395  10.868 -1.7329 -2.6499  1.1067
  190POPC  H12B21854   3.607   5.541  10.802  1.1214  0.8677  1.1837
  190POPC   C1321855   3.495   5.430  11.106 -0.6178  0.3243  0.0145
  190POPC  H13A21856   3.540   5.333  11.120  1.2352  1.1103 -0.1283
  190POPC  H13B21857   3.494   5.474  11.204  3.1478  1.1258 -0.1350
  190POPC  H13C21858   3.396   5.412  11.067  0.5488 -3.7147 -1.7060
  190POPC   C1421859   3.721   5.507  11.061 -0.0567 -0.1640  0.1391
  190POPC  H14A21860   3.788   5.564  10.999  1.1958 -1.3040  0.4002
  190POPC  H14B21861   3.725   5.541  11.164 -0.4909 -1.8733  0.7670
  190POPC  H14C21862   3.746   5.403  11.074  1.7132  0.1696 -0.4510
  190POPC   C1521863   3.535   5.664  11.018  0.1201 -0.5040  0.5165
  190POPC  H15A21864   3.435   5.673  10.977 -0.0447 -0.8980  0.8310
  190POPC  H15B21865   3.598   5.719  10.950  1.0614 -2.4613 -0.2670
  190POPC  H15C21866   3.540   5.697  11.120 -0.8999 -0.9770  0.7325
  190POPC   C1121867   3.457   5.378  10.819  0.5155  0.7521 -0.2391
  190POPC  H11A21868   3.446   5.381  10.709  0.2502 -2.8158 -0.4220
  190POPC  H11B21869   3.366   5.422  10.864  1.7545  1.9506  1.2537
  190POPC     P21870   3.388   5.127  10.795 -0.6008  0.0257  0.3327
  190POPC   O1321871   3.247   5.168  10.823 -0.1035 -0.0688  0.3861
  190POPC   O1421872   3.426   4.996  10.855  0.0690 -0.0658 -0.1941
  190POPC   O1221873   3.481   5.240  10.851  0.4300 -0.5879  0.1167
  190POPC   O1121874   3.431   5.124  10.644  0.9070  0.5606 -0.5648
  190POPC    C121875   3.566   5.107  10.604 -0.0987  0.6044  0.0164
  190POPC    HA21876   3.570   5.016  10.541  2.8778  0.9689 -0.4886
  190POPC    HB21877   3.635   5.087  10.689 -2.8172  2.0105  2.7758
  190POPC    C221878   3.626   5.215  10.505  0.0234  0.5160  0.0478
  190POPC    HS21879   3.617   5.318  10.546  0.7509  0.2995  0.7826
  190POPC   O2121880   3.560   5.212  10.378  0.8237  0.4057  0.0911
  190POPC   C2121881   3.445   5.275  10.358  0.0554 -0.4727  0.5404
  190POPC   O2221882   3.383   5.338  10.437  0.5165  0.4834 -0.2349
  190POPC   C2221883   3.376   5.235  10.222  0.3426 -0.0653 -0.2590
  190POPC   H2R21884   3.269   5.253  10.247  0.7935  2.9639 -0.1879
  190POPC   H2S21885   3.394   5.127  10.203 -0.0491 -0.6385  2.2783
  190POPC    C321886   3.777   5.176  10.480 -0.0081 -0.8380  0.2234
  190POPC    HX21887   3.768   5.070  10.447 -1.6326 -1.5336  2.6384
  190POPC    HY21888   3.840   5.171  10.571  0.4587 -2.3342 -0.1674
  190POPC   O3121889   3.845   5.260  10.378  0.5014  0.4058  0.5808
  190POPC   C3121890   3.875   5.385  10.420  0.4458 -0.1333 -0.3437
  190POPC   O3221891   3.873   5.412  10.540 -0.3341  0.2255  0.0980
  190POPC   C3221892   3.909   5.475  10.308 -0.5329 -0.2572  1.0436
  190POPC   H2X21893   4.009   5.446  10.271  1.0407  2.8488  2.5168
  190POPC   H2Y21894   3.900   5.580  10.342  2.2138  0.1897  0.5584
  190POPC   C2321895   3.419   5.325  10.106 -0.2844  0.4467  0.1910
  190POPC   H3R21896   3.521   5.301  10.069 -0.6034  0.4966 -0.7474
  190POPC   H3S21897   3.419   5.432  10.133  2.1497  0.6704 -0.4663
  190POPC   C2421898   3.322   5.317   9.988  0.1291  0.5323 -0.3026
  190POPC   H4R21899   3.220   5.348  10.020 -1.0033 -1.7706 -1.4492
  190POPC   H4S21900   3.317   5.210   9.957  2.8005  0.2469  0.0538
  190POPC   C2521901   3.362   5.410   9.882 -0.4480  0.1616  0.1781
  190POPC   H5R21902   3.467   5.387   9.855 -0.3424 -1.6837  1.9278
  190POPC   H5S21903   3.357   5.514   9.921  1.5099  0.3603 -0.0133
  190POPC   C2621904   3.280   5.404   9.749 -0.0537 -0.2666 -0.3600
  190POPC   H6R21905   3.323   5.486   9.688  1.5303  0.7493  1.9766
  190POPC   H6S21906   3.175   5.427   9.778 -0.4954 -2.5090  0.0521
  190POPC   C2721907   3.287   5.267   9.681  0.8054 -0.1563  1.1520
  190POPC   H7R21908   3.240   5.185   9.739 -1.0379 -0.1123 -0.1802
  190POPC   H7S21909   3.392   5.241   9.654  0.7025  1.3793 -0.9882
  190POPC   C2821910   3.197   5.283   9.547 -0.5008  0.1860 -0.7673
  190POPC   H8R21911   3.103   5.335   9.574  0.3609  0.9421  1.0278
  190POPC   H8S21912   3.158   5.183   9.523  0.4072 -0.6218  0.9203
  190POPC   C2921913   3.269   5.358   9.432  0.2685 -0.6595 -0.6543
  190POPC   H9121914   3.341   5.434   9.466  0.0123 -2.0380  3.6405
  190POPC  C21021915   3.269   5.321   9.308 -0.1250 -0.4696  0.0130
  190POPC  H10121916   3.323   5.378   9.230 -0.5947 -0.8018 -0.5657
  190POPC  C21121917   3.205   5.196   9.255  0.2533  0.2713 -0.7515
  190POPC  H11R21918   3.112   5.177   9.313  0.4108 -0.2840 -0.6742
  190POPC  H11S21919   3.275   5.112   9.276  1.0969  1.2374  0.5134
  190POPC  C21221920   3.175   5.203   9.108  0.2120 -0.1971  0.8244
  190POPC  H12R21921   3.120   5.111   9.078 -0.1755  0.1451  0.4847
  190POPC  H12S21922   3.270   5.204   9.050 -0.5703  1.0940 -0.4710
  190POPC  C21321923   3.084   5.313   9.060 -0.2496  0.0668  0.3244
  190POPC  H13R21924   3.125   5.415   9.072  2.2225 -0.3358 -3.1482
  190POPC  H13S21925   2.997   5.314   9.130 -0.1410 -0.6651  0.4813
  190POPC  C21421926   3.020   5.290   8.927  0.4983 -0.3902 -0.0934
  190POPC  H14R21927   2.934   5.359   8.916  0.0524 -1.0228 -0.6444
  190POPC  H14S21928   2.987   5.184   8.923  1.2872 -0.7717  2.2953
  190POPC  C21521929   3.115   5.325   8.805  0.7926  0.4749  0.0339
  190POPC  H15R21930   3.201   5.255   8.795  0.5417  0.0757  0.6343
  190POPC  H15S21931   3.160   5.425   8.824  0.0043  1.4365 -2.7309
  190POPC  C21621932   3.036   5.334   8.672 -0.3501  0.2738  0.4780
  190POPC  H16R21933   2.951   5.406   8.672 -0.1195  0.5522  1.0034
  190POPC  H16S21934   2.999   5.230   8.660  0.1612 -0.0718  1.7380
  190POPC  C21721935   3.132   5.365   8.554  0.3286  0.3747  0.2574
  190POPC  H17R21936   3.149   5.475   8.553 -2.1255  0.7911 -0.8765
  190POPC  H17S21937   3.076   5.348   8.460 -1.2895  2.8754  0.6842
  190POPC  C21821938   3.262   5.283   8.546  0.6681  0.1699 -0.1762
  190POPC  H18R21939   3.245   5.173   8.544 -0.0263  0.2722 -2.3752
  190POPC  H18S21940   3.339   5.304   8.624  2.8212  0.8138 -2.3653
  190POPC  H18T21941   3.317   5.300   8.451  0.7328 -2.1937 -0.6205
  190POPC   C3321942   3.806   5.459  10.193  0.6421 -0.0799  0.2110
  190POPC   H3X21943   3.701   5.480  10.221  0.2291 -0.3956 -1.0421
  190POPC   H3Y21944   3.807   5.350  10.171 -1.4474 -0.2023  0.5235
  190POPC   C3421945   3.849   5.516  10.055  0.2091 -0.3492 -0.0845
  190POPC   H4X21946   3.954   5.486  10.036 -0.5189 -2.7378 -0.5533
  190POPC   H4Y21947   3.849   5.627  10.062  1.1802 -0.2676 -1.0742
  190POPC   C3521948   3.767   5.467   9.936  0.7134  0.2539 -0.5458
  190POPC   H5X21949   3.660   5.495   9.939  0.5103 -0.2922 -2.0174
  190POPC   H5Y21950   3.781   5.357   9.935  0.2205  0.1750  0.3490
  190POPC   C3621951   3.842   5.514   9.814  0.0744  1.2075 -0.5108
  190POPC   H6X21952   3.947   5.479   9.825 -0.3756 -0.1767 -0.3940
  190POPC   H6Y21953   3.842   5.625   9.806 -2.0899  1.4823  1.8750
  190POPC   C3721954   3.781   5.459   9.687  0.0644 -0.0384 -0.5425
  190POPC   H7X21955   3.684   5.508   9.664  0.1440  1.3279  1.6740
  190POPC   H7Y21956   3.777   5.348   9.694  4.5504 -0.2994  1.3084
  190POPC   C3821957   3.877   5.474   9.567  0.2494 -0.5513  0.6245
  190POPC   H8X21958   3.972   5.420   9.583  2.3606  2.2236 -1.5190
  190POPC   H8Y21959   3.901   5.582   9.574  1.9492 -0.9683  1.8483
  190POPC   C3921960   3.818   5.436   9.428 -0.2957 -0.5947 -0.2896
  190POPC   H9X21961   3.723   5.493   9.419 -1.0631 -1.4469  1.7962
  190POPC   H9Y21962   3.792   5.328   9.430 -1.0400 -0.4913 -2.0676
  190POPC  C31021963   3.921   5.456   9.320  0.5229  0.0835  0.8604
  190POPC  H10X21964   3.992   5.370   9.319 -0.9931 -1.2053 -0.3025
  190POPC  H10Y21965   3.981   5.549   9.328  1.2377 -0.2213 -0.5504
  190POPC  C31121966   3.852   5.449   9.178 -0.3804  0.0245  0.8338
  190POPC  H11X21967   3.929   5.467   9.100 -1.4538  2.0822  0.1752
  190POPC  H11Y21968   3.789   5.541   9.175 -0.3164  0.0622  0.6344
  190POPC  C31221969   3.757   5.335   9.148  0.3778 -0.0024 -0.0294
  190POPC  H12X21970   3.666   5.341   9.211  1.9158  0.7311  2.2234
  190POPC  H12Y21971   3.791   5.233   9.176 -0.5572 -0.0191  1.1239
  190POPC  C31321972   3.707   5.329   9.001 -0.5146  0.3629 -0.4762
  190POPC  H13X21973   3.671   5.224   8.992 -0.4418  0.4709 -2.6807
  190POPC  H13Y21974   3.794   5.337   8.932 -1.0198 -0.2921 -1.2039
  190POPC  C31421975   3.597   5.419   8.968  0.4497  0.0039 -0.6374
  190POPC  H14X21976   3.642   5.520   8.973  1.1071 -0.2545 -1.1329
  190POPC  H14Y21977   3.524   5.408   9.051  1.9278 -0.0796  0.7107
  190POPC  C31521978   3.528   5.419   8.831  0.3374  0.2680  0.2444
  190POPC  H15X21979   3.471   5.325   8.817 -2.3501  1.9570 -0.8363
  190POPC  H15Y21980   3.600   5.418   8.747 -0.6335  0.6666 -0.6080
  190POPC  C31621981   3.440   5.543   8.825 -0.2590  0.1768 -0.5442
  190POPC  H16X21982   3.405   5.582   8.923  2.7237 -1.9067  1.5477
  190POPC  H16Y21983   3.357   5.526   8.753 -1.7915  1.4538  0.8443
  190POPC  H16Z21984   3.498   5.627   8.783 -0.2717  0.0518 -0.8157
  191POPC     N21985   3.783   5.881   6.043  0.0168  0.4672  0.1668
  191POPC   C1221986   3.654   5.811   5.979 -0.2483 -0.5933  0.0767
  191POPC  H12A21987   3.643   5.707   6.009  0.5549 -1.3143 -1.9703
  191POPC  H12B21988   3.683   5.811   5.875 -0.6277 -2.8873 -0.0964
  191POPC   C1321989   3.789   6.022   6.003  0.5040  0.0361  0.4407
  191POPC  H13A21990   3.702   6.077   6.038 -0.2062 -1.0715  0.4681
  191POPC  H13B21991   3.875   6.076   6.039 -0.9034  2.2831  0.6685
  191POPC  H13C21992   3.774   6.024   5.896 -0.3077  2.3705  0.5371
  191POPC   C1421993   3.767   5.879   6.188  0.2869  0.6429 -0.0566
  191POPC  H14A21994   3.766   5.777   6.225  3.0355 -1.1269 -4.2087
  191POPC  H14B21995   3.857   5.920   6.230  1.0668  1.1386 -2.1522
  191POPC  H14C21996   3.682   5.939   6.218 -0.2391  0.0161 -0.2781
  191POPC   C1521997   3.913   5.818   6.006  0.5025  0.0137 -0.0381
  191POPC  H15A21998   3.950   5.833   5.905  0.5196 -0.5397 -0.1167
  191POPC  H15B21999   3.925   5.712   6.026  1.2375 -0.4169 -2.4088
  191POPC  H15C22000   3.986   5.871   6.065 -0.3178  0.3473  0.6996
  191POPC   C1122001   3.518   5.879   5.997  0.3652 -0.2391  0.7272
  191POPC  H11A22002   3.435   5.849   5.929 -0.0307 -2.3381  2.0701
  191POPC  H11B22003   3.539   5.984   5.965  1.0039 -0.7628 -0.6821
  191POPC     P22004   3.420   5.754   6.194 -0.1936  0.7342 -0.0144
  191POPC   O1322005   3.527   5.666   6.236 -0.2347  0.5094  0.0852
  191POPC   O1422006   3.317   5.700   6.105  0.3074 -0.5034  0.5531
  191POPC   O1222007   3.478   5.886   6.133  0.5754  0.0151  0.6091
  191POPC   O1122008   3.344   5.805   6.325  0.0856 -0.4050 -0.1310
  191POPC    C122009   3.412   5.887   6.417  0.0811 -0.1357  0.3851
  191POPC    HA22010   3.413   5.991   6.377 -0.5181 -0.5716 -0.8169
  191POPC    HB22011   3.518   5.861   6.434 -0.1737 -1.1118  0.5359
  191POPC    C222012   3.349   5.883   6.558  0.0455 -0.2750 -0.1514
  191POPC    HS22013   3.405   5.953   6.624 -1.9203 -1.1059  2.5676
  191POPC   O2122014   3.350   5.748   6.609  0.3347  0.5266 -0.0430
  191POPC   C2122015   3.454   5.715   6.687 -0.2771 -0.5356  0.0624
  191POPC   O2222016   3.550   5.788   6.711 -0.3001  0.0357  0.8460
  191POPC   C2222017   3.440   5.580   6.758 -0.3928  0.2460 -0.2889
  191POPC   H2R22018   3.507   5.526   6.688  0.4178  2.6621 -1.5008
  191POPC   H2S22019   3.334   5.550   6.749 -0.9917  2.0878  0.1063
  191POPC    C322020   3.206   5.936   6.561  1.3838  0.1431 -0.3310
  191POPC    HX22021   3.137   5.851   6.542 -2.1389  2.5775  0.5686
  191POPC    HY22022   3.192   5.997   6.468 -0.0316 -1.4463 -1.2284
  191POPC   O3122023   3.184   6.019   6.676 -0.2376  0.5674 -0.7102
  191POPC   C3122024   3.132   5.949   6.790 -0.4933  0.2149  0.5223
  191POPC   O3222025   3.118   5.832   6.795  0.5920  0.0445 -0.1133
  191POPC   C3222026   3.110   6.049   6.897  0.3859  0.7152  0.3871
  191POPC   H2X22027   3.026   6.104   6.850  0.0213  0.8620  1.2049
  191POPC   H2Y22028   3.195   6.121   6.898  0.1461  1.0851 -1.5414
  191POPC   C2322029   3.476   5.582   6.915  0.0836  0.7541  0.1987
  191POPC   H3R22030   3.581   5.611   6.934 -0.2045 -0.0647  3.7220
  191POPC   H3S22031   3.465   5.479   6.954  0.5545  0.2075 -1.0460
  191POPC   C2422032   3.391   5.684   6.999  0.3651 -0.3327 -0.6709
  191POPC   H4R22033   3.286   5.656   6.975 -0.0100  1.5914 -1.5247
  191POPC   H4S22034   3.414   5.789   6.970  1.5068  0.0048  1.3025
  191POPC   C2522035   3.411   5.674   7.151 -0.1463  0.7901 -0.7072
  191POPC   H5R22036   3.517   5.696   7.174  0.1279  0.1367 -1.3069
  191POPC   H5S22037   3.394   5.570   7.187  4.3264 -1.8067 -4.8906
  191POPC   C2622038   3.307   5.762   7.228 -0.1704 -0.1161 -0.0080
  191POPC   H6R22039   3.205   5.766   7.185 -1.2563 -1.7679  2.2156
  191POPC   H6S22040   3.343   5.868   7.228  0.9186 -0.4741  0.0212
  191POPC   C2722041   3.284   5.729   7.374  0.8614 -0.9113 -0.3181
  191POPC   H7R22042   3.218   5.640   7.366  2.2992 -1.9197 -1.2966
  191POPC   H7S22043   3.213   5.800   7.422  1.7693 -0.1189 -0.1076
  191POPC   C2822044   3.402   5.697   7.467  0.5717  0.5481 -0.3612
  191POPC   H8R22045   3.442   5.797   7.491 -2.1956  2.2325 -2.1585
  191POPC   H8S22046   3.486   5.640   7.420 -0.6150 -0.9505 -0.7352
  191POPC   C2922047   3.356   5.627   7.593 -0.0309  0.0058  0.3321
  191POPC   H9122048   3.268   5.561   7.584  0.2060 -0.1176 -1.5502
  191POPC  C21022049   3.410   5.636   7.713 -0.3303 -0.3838 -0.1633
  191POPC  H10122050   3.368   5.568   7.790 -0.2400  2.3706  2.5117
  191POPC  C21122051   3.530   5.721   7.757  0.0627 -0.5788  0.5593
  191POPC  H11R22052   3.592   5.750   7.669  0.1756 -0.8187  0.5583
  191POPC  H11S22053   3.608   5.666   7.815 -1.2743 -3.5190 -0.2079
  191POPC  C21222054   3.492   5.855   7.822 -0.3057 -0.5228 -0.0771
  191POPC  H12R22055   3.399   5.890   7.773 -0.3831  1.3357  1.2698
  191POPC  H12S22056   3.572   5.929   7.804  2.6385 -2.7535  2.5640
  191POPC  C21322057   3.465   5.834   7.976  0.8835 -0.3193 -0.0396
  191POPC  H13R22058   3.418   5.735   7.991 -2.4728  1.0461 -0.4964
  191POPC  H13S22059   3.380   5.904   7.993  3.3782  2.5209  1.6007
  191POPC  C21422060   3.578   5.876   8.069 -0.0266 -0.3044  0.1432
  191POPC  H14R22061   3.616   5.971   8.027 -0.7560 -1.1103 -2.5372
  191POPC  H14S22062   3.663   5.806   8.059  2.2119  2.3391 -0.6597
  191POPC  C21522063   3.535   5.893   8.213 -0.7573  0.0186 -0.0237
  191POPC  H15R22064   3.464   5.978   8.224 -2.1157 -0.8539 -1.5299
  191POPC  H15S22065   3.627   5.930   8.263  0.0626 -0.6755 -0.9837
  191POPC  C21622066   3.491   5.765   8.289  0.3788 -0.0772 -0.8810
  191POPC  H16R22067   3.561   5.684   8.260  0.3403 -0.1565 -0.7575
  191POPC  H16S22068   3.392   5.732   8.251  1.1448 -0.0575 -3.0326
  191POPC  C21722069   3.496   5.788   8.441  0.5039  0.4261  0.5254
  191POPC  H17R22070   3.597   5.824   8.469 -0.0189  3.6134 -1.2783
  191POPC  H17S22071   3.488   5.685   8.483 -2.2695  0.0901 -0.5896
  191POPC  C21822072   3.371   5.868   8.493  0.4279 -0.0560 -0.4195
  191POPC  H18R22073   3.288   5.794   8.494 -0.8535  1.2778  1.7331
  191POPC  H18S22074   3.346   5.944   8.416  2.1491  1.3857  0.3654
  191POPC  H18T22075   3.393   5.918   8.590  3.5835 -1.9826 -0.0280
  191POPC   C3322076   3.078   5.986   7.039 -0.2857 -1.2609  0.2077
  191POPC   H3X22077   3.171   5.936   7.072  1.0398  1.6102  1.1665
  191POPC   H3Y22078   2.989   5.920   7.034 -1.6291  0.3931  1.0419
  191POPC   C3422079   3.067   6.090   7.155  0.1638  0.7179 -0.2037
  191POPC   H4X22080   2.964   6.132   7.154  1.1457  3.2923 -0.8765
  191POPC   H4Y22081   3.137   6.176   7.147 -0.9584  1.5922 -1.0344
  191POPC   C3522082   3.083   6.025   7.291  0.2418 -0.0075  0.2859
  191POPC   H5X22083   3.191   6.000   7.292  0.4825  0.9863  1.2803
  191POPC   H5Y22084   3.015   5.937   7.300 -0.0499  0.4158  2.9903
  191POPC   C3622085   3.057   6.118   7.411 -0.2208 -0.5908 -0.5120
  191POPC   H6X22086   2.951   6.148   7.399 -1.3328 -4.3170 -1.2938
  191POPC   H6Y22087   3.119   6.208   7.390 -3.9360  2.4649  0.4299
  191POPC   C3722088   3.082   6.062   7.551 -0.3417 -0.1198  0.3112
  191POPC   H7X22089   3.189   6.032   7.554 -0.2580 -0.0099 -1.0493
  191POPC   H7Y22090   3.019   5.972   7.569 -1.9651  0.9544  0.1916
  191POPC   C3822091   3.081   6.167   7.660  0.4672  0.5643  0.3931
  191POPC   H8X22092   2.985   6.222   7.658 -0.0582 -0.3494 -0.1175
  191POPC   H8Y22093   3.158   6.243   7.632  3.2452 -2.6117 -1.4517
  191POPC   C3922094   3.102   6.107   7.802 -0.1536 -0.4342  0.4738
  191POPC   H9X22095   3.202   6.057   7.800 -0.3073 -0.7497 -0.8528
  191POPC   H9Y22096   3.017   6.040   7.828  0.2783 -1.5886 -0.8879
  191POPC  C31022097   3.108   6.219   7.910 -0.3802  0.1297  0.0611
  191POPC  H10X22098   3.025   6.288   7.885 -0.2609 -0.2593 -1.4776
  191POPC  H10Y22099   3.200   6.280   7.896  1.6813 -2.9331 -0.9161
  191POPC  C31122100   3.119   6.173   8.056  0.0043 -0.2706 -0.5603
  191POPC  H11X22101   3.222   6.140   8.081 -0.8162 -1.1364  2.0271
  191POPC  H11Y22102   3.047   6.093   8.084 -0.4488  0.3248  0.0100
  191POPC  C31222103   3.100   6.301   8.150 -0.4118 -0.3356  1.0299
  191POPC  H12X22104   3.027   6.379   8.120  1.5447  1.3057  0.3223
  191POPC  H12Y22105   3.184   6.369   8.122 -2.9112  1.9993 -1.4334
  191POPC  C31322106   3.078   6.267   8.297 -0.4554 -0.4022 -0.3116
  191POPC  H13X22107   2.986   6.205   8.310 -0.8433  0.2867  0.3239
  191POPC  H13Y22108   3.046   6.364   8.340 -0.2172  0.6205 -2.3148
  191POPC  C31422109   3.200   6.198   8.357  0.5733 -0.0730 -1.0226
  191POPC  H14X22110   3.293   6.251   8.328  0.9893  0.4385  1.0998
  191POPC  H14Y22111   3.205   6.092   8.324  0.2382 -0.2877 -0.3950
  191POPC  C31522112   3.207   6.199   8.509  0.2480 -0.2316 -1.2131
  191POPC  H15X22113   3.278   6.121   8.544 -0.1098 -2.0998 -4.3177
  191POPC  H15Y22114   3.112   6.166   8.556 -0.2062  0.6020 -1.5230
  191POPC  C31622115   3.224   6.340   8.566 -0.7917  0.0206 -0.4939
  191POPC  H16X22116   3.330   6.370   8.565 -0.7006 -0.2149  0.4486
  191POPC  H16Y22117   3.196   6.331   8.674  0.2093 -0.4742 -0.2705
  191POPC  H16Z22118   3.161   6.419   8.520  0.9777  2.2429  0.7323
  192POPC     N22119   3.624   1.813   5.915 -0.9841 -0.9171  0.6125
  192POPC   C1222120   3.736   1.811   6.017 -0.6109  0.5820 -0.3675
  192POPC  H12A22121   3.701   1.754   6.102  0.3178  0.0289 -0.3497
  192POPC  H12B22122   3.749   1.907   6.065 -2.5477  0.3396  0.7697
  192POPC   C1322123   3.519   1.897   5.981 -0.0288 -0.6326  0.8281
  192POPC  H13A22124   3.538   2.003   5.990  2.1302 -0.8429 -0.4477
  192POPC  H13B22125   3.437   1.890   5.911  0.2755 -2.2119  0.5981
  192POPC  H13C22126   3.486   1.872   6.080 -1.9050 -1.5445  0.0201
  192POPC   C1422127   3.684   1.894   5.799 -0.4413 -0.3850 -0.6337
  192POPC  H14A22128   3.731   1.985   5.832  2.0451 -1.3005 -1.4275
  192POPC  H14B22129   3.769   1.844   5.754  1.7685  0.3330  2.3849
  192POPC  H14C22130   3.611   1.911   5.722  0.4185 -2.5077 -2.0019
  192POPC   C1522131   3.577   1.688   5.871  0.7271 -0.5541  0.4392
  192POPC  H15A22132   3.658   1.629   5.831 -0.5848 -1.2900 -1.2785
  192POPC  H15B22133   3.504   1.695   5.791  0.3439  1.7934  0.9178
  192POPC  H15C22134   3.538   1.640   5.959  0.6748 -0.8904  0.2328
  192POPC   C1122135   3.871   1.750   5.977  0.0751 -0.2149 -0.1261
  192POPC  H11A22136   3.950   1.763   6.054  1.5431 -2.6449 -1.1067
  192POPC  H11B22137   3.901   1.815   5.891 -0.8356  0.3811 -0.0028
  192POPC     P22138   3.861   1.498   6.045 -0.0147 -0.3284 -0.2809
  192POPC   O1322139   4.010   1.488   6.072  0.4467 -0.3191  0.2549
  192POPC   O1422140   3.781   1.385   5.997 -0.4781  0.0432 -0.8606
  192POPC   O1222141   3.851   1.613   5.937  0.1667  1.1970 -0.1675
  192POPC   O1122142   3.791   1.567   6.166  0.0932  0.4848 -0.8791
  192POPC    C122143   3.855   1.636   6.273  0.1316  0.3153  0.0903
  192POPC    HA22144   3.790   1.725   6.278  0.9692  0.9553 -0.1152
  192POPC    HB22145   3.961   1.670   6.269  1.1088 -2.1659  1.8663
  192POPC    C222146   3.826   1.564   6.413  0.1530  0.3788  1.1496
  192POPC    HS22147   3.920   1.504   6.415  1.1284  1.4008 -3.3615
  192POPC   O2122148   3.712   1.479   6.421  0.1367 -0.0987 -0.4564
  192POPC   C2122149   3.727   1.353   6.380  0.3397 -0.5411 -0.3742
  192POPC   O2222150   3.830   1.315   6.333  0.1405 -0.2902  0.1326
  192POPC   C2222151   3.598   1.279   6.402 -0.3210 -0.0322  0.0768
  192POPC   H2R22152   3.565   1.235   6.305 -1.5414  0.2340  0.3529
  192POPC   H2S22153   3.523   1.345   6.451 -1.4377 -1.0085 -0.2668
  192POPC    C322154   3.820   1.673   6.524  0.1708 -0.3394  0.4058
  192POPC    HX22155   3.719   1.718   6.513 -0.0547 -0.9247  0.0179
  192POPC    HY22156   3.894   1.754   6.506 -0.9959  0.2564 -2.2559
  192POPC   O3122157   3.848   1.608   6.647  0.1034  0.2736 -0.1984
  192POPC   C3122158   3.786   1.669   6.751  1.0512  1.1082  0.5760
  192POPC   O3222159   3.734   1.780   6.746  0.1737 -0.0481  0.1744
  192POPC   C3222160   3.810   1.577   6.872  0.9034 -0.1004 -1.0999
  192POPC   H2X22161   3.913   1.536   6.867  1.3119  0.2204  2.2820
  192POPC   H2Y22162   3.735   1.495   6.870  1.3387 -0.5930  0.9044
  192POPC   C2322163   3.609   1.158   6.494  0.9920 -0.0414 -0.6155
  192POPC   H3R22164   3.707   1.108   6.479  1.2030  0.5515 -1.2954
  192POPC   H3S22165   3.528   1.086   6.471  0.4366 -0.4533  2.2196
  192POPC   C2422166   3.589   1.197   6.645 -0.2803  0.5666 -0.1040
  192POPC   H4R22167   3.493   1.248   6.668 -1.3652 -1.5886  0.3999
  192POPC   H4S22168   3.674   1.265   6.668  0.3880 -0.7388  1.4817
  192POPC   C2522169   3.600   1.073   6.731 -0.1768  0.1275  0.8120
  192POPC   H5R22170   3.702   1.029   6.734  0.1895  1.0414  3.0387
  192POPC   H5S22171   3.530   0.994   6.697 -0.8823 -0.1778  2.8559
  192POPC   C2622172   3.563   1.087   6.880  0.1105 -0.2869 -0.3996
  192POPC   H6R22173   3.580   0.992   6.935 -2.3497 -2.3439 -2.8921
  192POPC   H6S22174   3.459   1.124   6.891  0.6259  1.1651 -0.1797
  192POPC   C2722175   3.643   1.199   6.949 -0.5858 -0.0120 -0.3059
  192POPC   H7R22176   3.613   1.200   7.056 -0.0074 -0.7115 -0.1307
  192POPC   H7S22177   3.612   1.301   6.916 -1.8451  0.3253  1.7547
  192POPC   C2822178   3.792   1.174   6.953 -0.3484 -0.1783 -0.5201
  192POPC   H8R22179   3.833   1.272   6.984  0.1504  0.2774 -2.4997
  192POPC   H8S22180   3.825   1.159   6.848  0.7265 -2.1106  0.0352
  192POPC   C2922181   3.842   1.058   7.033  0.4010 -0.2183 -0.3743
  192POPC   H9122182   3.872   0.968   6.977 -1.0060 -1.6569  1.0611
  192POPC  C21022183   3.878   1.068   7.164  0.2643 -0.6075 -0.3389
  192POPC  H10122184   3.922   0.978   7.210  1.1192 -0.2952 -0.5332
  192POPC  C21122185   3.871   1.184   7.262 -0.5837  0.2479  0.1955
  192POPC  H11R22186   3.871   1.277   7.202  0.8987 -0.5553 -1.1237
  192POPC  H11S22187   3.966   1.184   7.320 -0.8922  1.6209  0.7477
  192POPC  C21222188   3.745   1.181   7.349 -0.1085  0.1295  0.0348
  192POPC  H12R22189   3.648   1.182   7.295  0.1206 -0.4901 -0.3985
  192POPC  H12S22190   3.750   1.271   7.413  2.6135  0.6066 -0.7277
  192POPC  C21322191   3.749   1.052   7.433  0.6123 -0.0505  0.1328
  192POPC  H13R22192   3.845   1.030   7.484  1.4369  2.1972 -0.3438
  192POPC  H13S22193   3.722   0.977   7.355 -1.0814 -1.3056  1.8069
  192POPC  C21422194   3.642   1.040   7.541 -0.0150  0.6998  0.0500
  192POPC  H14R22195   3.681   1.107   7.620  1.1809  0.5430 -0.3833
  192POPC  H14S22196   3.632   0.937   7.582 -1.1708  1.2170  1.1272
  192POPC  C21522197   3.499   1.087   7.507  0.3985  0.0044  0.3261
  192POPC  H15R22198   3.470   1.041   7.411  0.2109  1.6083 -0.4254
  192POPC  H15S22199   3.491   1.196   7.486 -1.3066  0.0543  1.1040
  192POPC  C21622200   3.399   1.054   7.622  0.2771 -0.3292  0.0843
  192POPC  H16R22201   3.393   0.944   7.640 -2.6985 -0.2065  0.2557
  192POPC  H16S22202   3.299   1.091   7.593  0.3418  1.3957  1.8399
  192POPC  C21722203   3.427   1.128   7.753 -0.3014  0.5236  0.5909
  192POPC  H17R22204   3.428   1.237   7.733  0.7935  1.0211  2.9404
  192POPC  H17S22205   3.533   1.110   7.782 -0.4461 -0.0169  0.7992
  192POPC  C21822206   3.328   1.100   7.867 -0.8996  0.2601  0.1138
  192POPC  H18R22207   3.222   1.129   7.852 -0.5118  1.5504 -0.2265
  192POPC  H18S22208   3.353   1.159   7.957  0.4082  1.5924 -1.0706
  192POPC  H18T22209   3.327   0.990   7.885  3.4855  0.0163 -0.1842
  192POPC   C3322210   3.782   1.658   7.005 -0.2421 -0.1441  0.4375
  192POPC   H3X22211   3.675   1.687   7.009  0.1314  1.7476 -1.3403
  192POPC   H3Y22212   3.833   1.757   7.004 -5.4743  2.8990 -0.2857
  192POPC   C3422213   3.821   1.570   7.123 -0.5368 -0.2061 -0.5314
  192POPC   H4X22214   3.920   1.525   7.099  1.3089  1.9983  2.2344
  192POPC   H4Y22215   3.754   1.482   7.132 -3.2954  1.7175 -0.9465
  192POPC   C3522216   3.843   1.656   7.249  0.4225 -0.2018  0.2148
  192POPC   H5X22217   3.745   1.699   7.279 -1.3960 -2.0836 -2.5726
  192POPC   H5Y22218   3.908   1.743   7.224  0.5289 -0.7947 -1.7340
  192POPC   C3622219   3.895   1.578   7.372  0.6617  0.2986 -0.7393
  192POPC   H6X22220   3.998   1.539   7.358  0.8350  0.3822  0.2380
  192POPC   H6Y22221   3.821   1.495   7.378  0.5609  0.4954  2.3686
  192POPC   C3722222   3.898   1.667   7.502  0.0030 -0.1337 -0.1466
  192POPC   H7X22223   3.801   1.722   7.513  0.7307  1.1819 -0.1094
  192POPC   H7Y22224   3.977   1.744   7.490 -0.0946 -0.2982 -2.1467
  192POPC   C3822225   3.926   1.582   7.626 -1.2036 -0.9073 -0.3944
  192POPC   H8X22226   3.904   1.636   7.721  0.0394 -0.6393 -0.2418
  192POPC   H8Y22227   4.035   1.564   7.610 -1.3069 -1.0334 -0.9855
  192POPC   C3922228   3.863   1.444   7.629  0.9559  0.0065  0.3318
  192POPC   H9X22229   3.928   1.371   7.577  1.0679  0.4015 -0.0802
  192POPC   H9Y22230   3.766   1.447   7.575  2.1805  1.7715 -1.9445
  192POPC  C31022231   3.841   1.381   7.770  0.8501  0.3608  0.3698
  192POPC  H10X22232   3.934   1.392   7.830 -0.3760 -1.3698  2.7303
  192POPC  H10Y22233   3.821   1.274   7.748 -0.7133  0.8599 -0.8243
  192POPC  C31122234   3.716   1.440   7.832 -0.3146 -0.8722  0.0528
  192POPC  H11X22235   3.628   1.401   7.776 -0.0973  1.0812 -1.7940
  192POPC  H11Y22236   3.714   1.548   7.803  0.9036 -0.5596  1.0200
  192POPC  C31222237   3.686   1.411   7.977 -0.6525 -0.3529 -0.2756
  192POPC  H12X22238   3.763   1.458   8.042 -2.2875 -0.0685  1.5746
  192POPC  H12Y22239   3.691   1.304   8.005  1.8564 -0.1687  0.1961
  192POPC  C31322240   3.547   1.462   8.024  0.0259  0.2803  0.0555
  192POPC  H13X22241   3.468   1.413   7.963  0.2789  0.3572 -0.3379
  192POPC  H13Y22242   3.540   1.573   8.019  2.0744  0.5370  1.6840
  192POPC  C31422243   3.514   1.393   8.158 -0.0654  0.2589  0.2320
  192POPC  H14X22244   3.601   1.411   8.224 -0.2444  0.2180  0.4810
  192POPC  H14Y22245   3.509   1.283   8.149 -0.0609  0.3693 -1.3551
  192POPC  C31522246   3.393   1.440   8.241 -0.2302 -0.3586 -0.3275
  192POPC  H15X22247   3.403   1.545   8.277 -0.6246 -0.2156 -0.6271
  192POPC  H15Y22248   3.366   1.391   8.336  2.7490 -0.3256  0.6530
  192POPC  C31622249   3.274   1.440   8.154 -0.2751 -0.1632 -0.1877
  192POPC  H16X22250   3.273   1.529   8.088  3.0522  0.4340  0.3872
  192POPC  H16Y22251   3.182   1.425   8.214 -0.0908  2.1428  0.7591
  192POPC  H16Z22252   3.269   1.350   8.089 -1.8831 -1.0936  1.1405
  193SOD    SOD22253   3.351   5.119   3.670  0.1510 -0.5148  0.0612
  194SOD    SOD22254   0.690   5.228  15.472 -0.5256  0.3768  0.0767
  195SOD    SOD22255   4.942   3.855  11.769 -0.5966 -0.1750  0.0196
  196SOD    SOD22256   6.675   3.490   5.960 -0.1100 -0.1481  0.2614
  197SOD    SOD22257   3.010   6.275   2.490 -0.1631  0.2101 -0.0273
  198SOD    SOD22258   2.460   5.275  13.381 -0.6051  0.4346  0.4746
  199SOD    SOD22259   5.645   2.647  12.054  0.3977 -0.1132  0.3113
  200SOD    SOD22260   5.647   3.203   0.227  0.6378 -0.1258 -0.2694
  201SOD    SOD22261   0.492   3.055  10.337 -0.0437  0.2179  0.2899
  202SOD    SOD22262   5.902   6.582   1.467  0.1209 -0.0307  0.2007
  203SOD    SOD22263   1.402   0.267   2.354 -0.8668 -0.2561 -0.5666
  204SOD    SOD22264   2.841   6.283   5.338  0.2985 -0.1448 -0.1215
  205SOD    SOD22265   5.646   4.662  11.152 -0.1762  0.0586 -0.1214
  206SOD    SOD22266   4.804   3.091   3.101  0.1617 -0.1712 -0.1394
  207SOD    SOD22267   1.420   1.288   3.771 -0.2426 -0.5025  0.0868
  208SOD    SOD22268   1.886   1.739  10.436 -0.1129 -0.0498 -0.4298
  209SOD    SOD22269   4.302   1.117  11.293 -0.2963  0.1507  0.1703
  210SOD    SOD22270   4.782   3.422  12.346 -0.1453 -0.2904 -0.0033
  211SOD    SOD22271   4.783   1.896   0.822  0.1820  1.0682  0.5873
  212SOD    SOD22272   6.515   3.290  12.743 -0.0473  0.3901 -0.1544
  213SOD    SOD22273   2.889   5.686  14.697 -0.1966 -0.3346  0.1988
  214SOD    SOD22274   2.205   1.255   3.209 -0.1167  0.0830  0.4208
  215SOD    SOD22275   6.266   5.079  15.698  0.0633  0.1531  0.0005
  216SOD    SOD22276   5.404   1.751  14.537  0.2276  0.3140 -0.2993
  217SOD    SOD22277   0.840   3.872   3.054  0.4475  0.1067 -0.0398
  218SOD    SOD22278   2.776   1.686   0.889  0.5051 -0.0524 -0.1718
  219SOD    SOD22279   3.480   5.648  14.158  0.3060 -0.0498 -0.8222
  220SOD    SOD22280   3.666   4.210  10.770 -0.2612  0.5830 -0.1291
  221SOD    SOD22281   2.486   2.918   5.745 -0.2526  0.8158 -0.0977
  222SOD    SOD22282   0.952   1.806   5.642 -0.2633  0.0879 -0.0933
  223SOD    SOD22283   4.627   0.783   6.037  0.2214  0.1198  0.3514
  224SOD    SOD22284   1.253   4.128   6.153 -0.5937  0.1304  0.1559
  225SOD    SOD22285   6.143   5.191   0.855 -0.1834 -0.5413  0.1006
  226SOD    SOD22286   5.841   5.581  10.932 -0.3483  0.0462 -0.2168
  227SOD    SOD22287   1.336   4.833   5.100 -0.5978 -0.0813 -0.5326
  228SOD    SOD22288   3.149   2.801  12.925 -0.3968  0.2614 -0.1245
  229SOD    SOD22289   2.637   4.439  12.499  0.5795  0.1068  0.0102
  230SOD    SOD22290   3.898   5.973  12.290 -0.3616  0.5171 -0.1937
  231SOD    SOD22291   4.666   0.199  16.267  0.3327 -0.4077 -0.3782
  232SOD    SOD22292   1.258   6.437  14.829 -0.1296 -0.1111  0.2463
  233SOD    SOD22293   6.553   6.103   5.926 -0.4369 -0.4459 -0.6465
  234SOD    SOD22294   4.508   3.696   5.121 -0.2400 -0.4257 -0.1833
  235SOD    SOD22295   2.034   4.938   6.174  0.3776 -0.6791  0.1264
  236SOD    SOD22296   0.993   1.107   5.192 -0.4783 -0.1053  0.3637
  237SOD    SOD22297   5.626   6.164  12.745 -0.1638 -0.5203  0.3471
  238SOD    SOD22298   1.600   3.672   0.745 -0.3607 -0.1255 -0.8672
  239SOD    SOD22299   4.383   1.455   5.550  0.1661  0.1432  0.1482
  240SOD    SOD22300   0.032   1.310   4.871 -0.0819  0.3522  0.3489
  241SOD    SOD22301   3.882   3.942   6.041 -0.2467  0.3717  0.1003
  242SOD    SOD22302   0.846   1.580   0.640  0.1836  0.0134 -0.0825
  243SOD    SOD22303   5.867   1.427  14.859 -0.0920 -0.0892  0.0243
  244SOD    SOD22304   5.927   0.373  11.397 -0.4988  0.3392  0.4822
  245SOD    SOD22305   5.750   1.899  13.183  0.2254 -0.5693 -0.0762
  246SOD    SOD22306   6.811   2.329  15.039 -0.5457 -0.0663  0.1179
  247SOD    SOD22307   0.100   0.604  15.052  0.4697  0.5775 -0.0962
  248SOD    SOD22308   4.508   3.929   0.753  0.2864 -0.6295  0.2714
  249SOD    SOD22309   1.131   2.899  11.623 -0.4619 -0.1755 -0.1147
  250SOD    SOD22310   2.988   0.841   1.331  0.4835 -0.0493 -0.1443
  251SOD    SOD22311   3.172   2.605  16.023 -0.0515 -0.1116  0.0455
  252SOD    SOD22312   6.267   0.885   2.489 -0.8082 -0.0383 -0.5601
  253SOD    SOD22313   1.331   6.594  10.720  0.0582  0.0478  0.6802
  254SOD    SOD22314   6.211   0.822   4.663  0.0544  0.2673  0.3246
  255SOD    SOD22315   2.974   0.699   4.954  0.0874  0.0031  0.2850
  256SOD    SOD22316   2.316   2.910  10.912  0.6930 -0.1101 -0.1548
  257SOD    SOD22317   6.206   4.227   0.265 -0.2240  0.2011 -0.2778
  258SOD    SOD22318   1.167   3.615   1.968  0.7759  0.1005  0.0909
  259SOD    SOD22319   2.234   3.704   2.271 -0.2639 -0.7558 -0.4936
  260SOD    SOD22320   0.203   1.207   3.644 -0.2710 -0.1826  0.3814
  261SOD    SOD22321   0.753   3.202  12.935  0.0767 -0.1477 -0.2065
  262SOD    SOD22322   1.160   6.818  13.833  0.1838  0.1018 -0.1359
  263SOD    SOD22323   3.948   5.084   5.129  0.3464 -0.0887 -0.2841
  264SOD    SOD22324   0.582   2.471   3.864  0.5172 -0.1162 -0.4342
  265SOD    SOD22325   5.891   2.201   2.849 -0.3991  0.2320  0.1904
  266SOD    SOD22326   4.547   3.445  15.169 -0.0080  0.0553 -0.5937
  267SOD    SOD22327   5.970   4.173  14.144  0.0103  0.2710 -0.3823
  268SOD    SOD22328   4.305   4.860  13.121  0.2568 -0.5275 -0.2703
  269SOD    SOD22329   0.200   4.482   0.948 -0.2477 -0.3097  0.3188
  270CLA    CLA22330   2.537   5.337   3.796  0.5341 -0.2052 -0.3882
  271CLA    CLA22331   3.238   4.302  15.483  0.4810 -0.0844  0.0763
  272CLA    CLA22332   4.214   6.377  12.443  0.0424 -0.3170  0.8010
  273CLA    CLA22333   6.488   1.412   2.687 -0.2084  0.1624  0.3329
  274CLA    CLA22334   3.520   2.392  16.936  0.3985 -0.5016 -0.4290
  275CLA    CLA22335   5.089   3.286   0.726 -0.1627  0.1125 -0.0300
  276CLA    CLA22336   1.608   2.760  11.395 -0.2023  0.0891 -0.2174
  277CLA    CLA22337   3.934   2.862  13.112  0.1969 -0.0491 -0.3104
  278CLA    CLA22338   1.932   4.618   3.165  0.1053  0.3878  0.2657
  279CLA    CLA22339   6.424   1.667   1.245 -0.2048 -0.2968  0.2483
  280CLA    CLA22340   4.739   2.893  15.853 -0.0281 -0.1465 -0.1509
  281CLA    CLA22341   5.753   3.221  16.413 -0.4201 -0.0849  0.0196
  282CLA    CLA22342   6.466   6.062   5.160 -0.1217 -0.3141 -0.4013
  283CLA    CLA22343   4.211   0.326   2.827  0.3930 -0.1198  0.2169
  284CLA    CLA22344   3.054   0.318   1.532  0.2022  0.3159  0.0206
  285CLA    CLA22345   0.547   0.453   4.896 -0.0904 -0.0481  0.2153
  286CLA    CLA22346   2.256   1.173   0.952  0.6310 -0.0502  0.2279
  287CLA    CLA22347   0.678   6.786  15.594  0.1679 -0.0127  0.4083
  288CLA    CLA22348   3.374   1.937  12.196  0.3663  0.5007 -0.0999
  289CLA    CLA22349   5.245   0.200   1.122  0.4097 -0.1051 -0.4172
  290CLA    CLA22350   5.100   2.228   0.730 -0.3035  0.0589 -0.0839
  291CLA    CLA22351   2.783   1.840  13.225  0.1552 -0.0740 -0.1562
  292CLA    CLA22352   5.032   2.322  13.665 -0.3421 -0.2271 -0.3411
  293CLA    CLA22353   1.348   1.155   3.558  0.5145  0.0980 -0.1036
  294CLA    CLA22354   5.288   1.373  14.982  0.2018  0.3221 -0.1280
  295CLA    CLA22355   1.150   4.957   3.336  0.5961 -0.1458  0.3860
  296CLA    CLA22356   5.771   3.299  14.731  0.1488 -0.0456 -0.2793
  297CLA    CLA22357   0.150   0.675   3.105  0.0235 -0.2641  0.0701
  298CLA    CLA22358   4.196   3.104  13.475  0.2700  0.1158  0.0908
  299CLA    CLA22359   0.567   1.017   5.434  0.0176 -0.0574  0.7451
  300CLA    CLA22360   6.543   2.113   1.273 -0.1686 -0.3446  0.5437
  301CLA    CLA22361   6.711   3.291   4.113  0.2516 -0.4783 -0.3441
  302CLA    CLA22362   1.275   5.006  14.374  0.6295  0.3525  0.1614
  303CLA    CLA22363   0.285   2.183  12.043  0.0016  0.3099  0.0342
  304CLA    CLA22364   2.983   3.295  13.908 -0.1959 -0.5190 -0.7412
  305CLA    CLA22365   2.508   6.104  14.360  0.0344 -0.0048 -0.4459
  306CLA    CLA22366   4.737   6.658   5.528 -0.0238 -0.2407  0.5549
  307CLA    CLA22367   1.619   6.337  13.731  0.0338  0.0339  0.3967
  308CLA    CLA22368   5.474   0.016  16.744  0.1685  0.0438  0.0980
  309CLA    CLA22369   5.785   5.299   1.562  0.4403  0.0816 -0.0754
  310CLA    CLA22370   5.286   4.694   0.669 -0.2212  0.0628  0.1281
  311CLA    CLA22371   0.889   2.115   3.880  0.3843 -0.1069  0.0307
  312CLA    CLA22372   6.389   5.248   0.825  0.2282  0.2848  0.4640
  313CLA    CLA22373   3.731   5.688  14.194  0.0133  0.3249  0.2703
  314CLA    CLA22374   4.136   3.104   1.966 -0.4067  0.0739  0.3883
  315CLA    CLA22375   6.373   5.542  15.373  0.0267  0.0002  0.1546
  316CLA    CLA22376   3.569   6.775   2.345 -0.0302 -0.2990  0.0939
  317CLA    CLA22377   4.437   0.157  13.629  0.5247  0.1271 -0.2446
  318CLA    CLA22378   0.883   4.464  13.741 -0.0583  0.5404 -0.1953
  319CLA    CLA22379   2.110   1.342   3.425  0.0971  0.1175 -0.0152
  320CLA    CLA22380   1.075   3.799   2.156 -0.0255 -0.1849 -0.0202
  321CLA    CLA22381   1.963   4.918  13.585 -0.1726 -0.0978  0.0049
  322CLA    CLA22382   5.160   1.709   4.252  0.0770  0.1063 -0.0839
  323TIP3   OH222383   2.480   6.700  12.245 -0.2457 -0.2808 -0.7319
  323TIP3    H122384   2.435   6.718  12.327  1.6215  0.4286  0.2136
  323TIP3    H222385   2.435   6.754  12.180 -1.4872 -0.5330 -0.1039
  324TIP3   OH222386   2.041   0.466   1.987  0.0497 -0.2860  0.5031
  324TIP3    H122387   2.080   0.519   2.056  0.9860  0.4085 -0.5211
  324TIP3    H222388   2.109   0.462   1.920 -1.7222  1.2876 -1.5245
  325TIP3   OH222389   0.959   4.518  16.609  0.3555  0.0884  0.3932
  325TIP3    H122390   0.877   4.504  16.655  0.8316  0.1077  1.2654
  325TIP3    H222391   0.977   4.435  16.566  0.8556 -0.5705  1.8097
  326TIP3   OH222392   2.401   4.483   1.352  0.0899  0.3741 -0.1825
  326TIP3    H122393   2.409   4.578   1.338  3.3712  0.1515 -0.5792
  326TIP3    H222394   2.436   4.468   1.439  0.5663 -0.5892 -0.5254
  327TIP3   OH222395   5.863   2.040   0.614 -0.2094  0.2518 -0.0303
  327TIP3    H122396   5.952   2.057   0.643 -0.7876 -1.0173  2.8643
  327TIP3    H222397   5.812   2.112   0.651 -0.7208 -0.4140  0.5914
  328TIP3   OH222398   4.196   1.976  15.641 -0.0178 -0.0492  0.0150
  328TIP3    H122399   4.175   1.897  15.591 -1.4262  0.3308 -0.0552
  328TIP3    H222400   4.214   2.043  15.575 -0.2716  0.0464  0.0402
  329TIP3   OH222401   3.934   6.472  15.678 -0.4217  0.4073  0.0538
  329TIP3    H122402   3.861   6.430  15.725  0.3774 -1.0369  0.0631
  329TIP3    H222403   4.010   6.419  15.701  0.6085  1.7905 -0.1001
  330TIP3   OH222404   5.749   2.736  15.569 -0.1823 -0.3907 -0.1325
  330TIP3    H122405   5.692   2.812  15.579  0.1135 -0.3164  1.1157
  330TIP3    H222406   5.690   2.660  15.570 -0.1875 -0.5180  3.7622
  331TIP3   OH222407   0.830   1.995  14.540  0.4969  0.4866  0.0945
  331TIP3    H122408   0.734   1.993  14.533  0.5394  1.4506 -1.1360
  331TIP3    H222409   0.858   1.908  14.512  0.0233  0.4872 -0.3851
  332TIP3   OH222410   5.456   6.396  13.023 -0.4791  0.2753 -0.5765
  332TIP3    H122411   5.542   6.434  13.043 -0.7134  0.5208 -0.0029
  332TIP3    H222412   5.393   6.459  13.057 -0.9174  0.7036 -2.1151
  333TIP3   OH222413   0.540   6.794  16.858 -0.3014 -0.1418  0.1705
  333TIP3    H122414   0.622   6.792  16.807  0.6697  4.6791  1.0244
  333TIP3    H222415   0.553   6.729  16.927  2.2497 -0.4930 -0.5338
  334TIP3   OH222416   1.323   6.753   1.021 -0.0123 -0.0969 -0.4665
  334TIP3    H122417   1.321   6.842   1.058 -0.0590  0.2528 -1.2903
  334TIP3    H222418   1.415   6.727   1.026  0.2043  0.4790 -1.3273
  335TIP3   OH222419   2.283   2.488  11.334 -0.2871  0.2342  0.0054
  335TIP3    H122420   2.206   2.440  11.303 -0.4229  1.6765 -2.0998
  335TIP3    H222421   2.247   2.570  11.368  0.2435  0.7044 -0.5412
  336TIP3   OH222422   6.147   5.470  15.566 -1.1306 -0.6516 -0.4529
  336TIP3    H122423   6.224   5.513  15.529 -1.4797  0.7678  0.3956
  336TIP3    H222424   6.097   5.440  15.489 -1.9308  2.3630 -1.2365
  337TIP3   OH222425   4.999   6.810   3.910 -0.4568  0.7829  0.4392
  337TIP3    H122426   5.047   6.727   3.914  0.4166  1.3167  1.7754
  337TIP3    H222427   5.033   6.853   3.831 -0.6768  0.0287 -0.0809
  338TIP3   OH222428   0.378   2.274  11.641 -0.5619  0.0156  0.4434
  338TIP3    H122429   0.339   2.188  11.655 -1.3625  0.5953  1.9129
  338TIP3    H222430   0.385   2.282  11.546 -2.0410 -0.9921  0.2212
  339TIP3   OH222431   5.537   1.610  14.375  0.2620 -0.4712  0.7002
  339TIP3    H122432   5.603   1.678  14.364 -1.3525  1.3263  1.4124
  339TIP3    H222433   5.535   1.565  14.290  1.3875  0.3550  0.2004
  340TIP3   OH222434   4.483   6.636   3.677 -0.5851 -0.2883  0.2688
  340TIP3    H122435   4.456   6.664   3.765 -0.3388 -0.8278  0.5260
  340TIP3    H222436   4.572   6.670   3.668 -0.0863 -1.3929  0.7911
  341TIP3   OH222437   6.329   0.476   4.820 -0.4258 -0.1198  0.2820
  341TIP3    H122438   6.249   0.493   4.870 -0.8340  0.3120 -0.4952
  341TIP3    H222439   6.373   0.561   4.816 -0.6467 -0.0372 -0.5108
  342TIP3   OH222440   5.993   6.345   2.164  0.9365 -0.2220 -0.2578
  342TIP3    H122441   5.983   6.305   2.250  1.0677 -0.7713 -0.4917
  342TIP3    H222442   6.075   6.393   2.169  1.7620 -1.5575 -0.5670
  343TIP3   OH222443   1.216   1.849  13.448  0.1619  0.0628  0.3911
  343TIP3    H122444   1.154   1.892  13.507  1.4492  1.1771  0.9892
  343TIP3    H222445   1.256   1.780  13.500  0.9194  0.7082  0.6881
  344TIP3   OH222446   4.221   6.423  11.051  0.7552 -0.1392 -0.1158
  344TIP3    H122447   4.218   6.489  10.982  3.3251  1.9142  1.5001
  344TIP3    H222448   4.278   6.354  11.017  0.2356 -0.2372 -0.8080
  345TIP3   OH222449   3.661   1.257  13.598  0.5793 -0.3376 -0.2235
  345TIP3    H122450   3.592   1.191  13.586 -0.5726  0.6910  0.5515
  345TIP3    H222451   3.734   1.208  13.635  0.8576 -1.7538 -2.4404
  346TIP3   OH222452   2.892   0.501  10.968 -0.1536 -0.2957 -0.1166
  346TIP3    H122453   2.862   0.415  10.941  0.3273 -1.0145  1.5004
  346TIP3    H222454   2.863   0.560  10.898 -1.4080 -1.6022 -0.7478
  347TIP3   OH222455   0.662   0.173   4.385 -0.5134  0.3445 -0.1838
  347TIP3    H122456   0.700   0.249   4.341  0.6127  0.8641  1.5754
  347TIP3    H222457   0.720   0.100   4.363  0.4397  0.7381  0.8868
  348TIP3   OH222458   1.414   5.476  10.886 -0.8479 -0.1366  0.4750
  348TIP3    H122459   1.342   5.533  10.860 -1.2770 -0.8457  0.0842
  348TIP3    H222460   1.376   5.389  10.888 -0.0169 -0.5095  0.3438
  349TIP3   OH222461   2.377   6.603  11.677  0.0556 -0.2566 -0.3467
  349TIP3    H122462   2.424   6.611  11.760  1.1680  0.2171 -0.9900
  349TIP3    H222463   2.374   6.693  11.643 -0.4677 -0.4307 -0.7658
  350TIP3   OH222464   2.052   4.789   0.809 -0.4856  0.1311  0.0168
  350TIP3    H122465   2.147   4.786   0.820 -0.6908 -1.3181  1.9967
  350TIP3    H222466   2.024   4.698   0.820 -2.1373  0.5864 -0.2217
  351TIP3   OH222467   0.398   2.476  13.048  0.0504 -0.2293  0.4165
  351TIP3    H122468   0.474   2.439  13.002  0.0074  1.3453 -1.0469
  351TIP3    H222469   0.343   2.401  13.067  1.3585 -1.2566  0.2966
  352TIP3   OH222470   3.229   0.808  16.804 -0.1515  0.7266 -0.0362
  352TIP3    H122471   3.248   0.887  16.754 -0.5277  1.5222  1.0477
  352TIP3    H222472   3.231   0.836  16.896  2.9091 -1.1779  0.6145
  353TIP3   OH222473   3.323   0.321   2.729  0.5406 -0.0161 -0.5078
  353TIP3    H122474   3.412   0.357   2.723  0.3071  0.5061 -1.0020
  353TIP3    H222475   3.302   0.293   2.640 -0.3325  1.2516 -0.7464
  354TIP3   OH222476   3.910   4.180  16.567 -0.2152 -0.2571 -0.1544
  354TIP3    H122477   3.986   4.211  16.518 -0.2332 -1.0730 -0.7271
  354TIP3    H222478   3.946   4.151  16.651 -0.1391  0.8778  0.2123
  355TIP3   OH222479   5.265   1.685  12.628  0.2245  0.0215 -0.3384
  355TIP3    H122480   5.235   1.619  12.690 -0.4890  1.3677  0.7862
  355TIP3    H222481   5.320   1.636  12.566 -0.0187 -1.5529  0.6392
  356TIP3   OH222482   3.898   4.933  13.467  0.0706 -0.0296  0.0850
  356TIP3    H122483   3.947   4.862  13.426  0.6370  1.1965 -1.4996
  356TIP3    H222484   3.960   5.006  13.470 -0.5652  0.4919  1.4443
  357TIP3   OH222485   0.538   0.068   0.843  0.3835 -0.5469 -0.2396
  357TIP3    H122486   0.535   0.151   0.795 -1.6358  0.4313  1.4345
  357TIP3    H222487   0.590   0.010   0.787  0.9588  1.5172 -1.9616
  358TIP3   OH222488   2.527   3.053   4.654 -0.0714 -0.1630 -0.0453
  358TIP3    H122489   2.461   3.107   4.611  1.1912 -0.7226 -2.8999
  358TIP3    H222490   2.605   3.108   4.655  0.6129 -1.0840 -0.9065
  359TIP3   OH222491   3.529   6.763   3.776  0.0028  0.7305  0.1518
  359TIP3    H122492   3.540   6.701   3.704 -0.3262 -0.2910  0.9614
  359TIP3    H222493   3.618   6.788   3.799  0.1546  0.3020  0.0387
  360TIP3   OH222494   6.299   1.967   2.205 -0.5935  0.0539  0.3401
  360TIP3    H122495   6.224   1.986   2.148 -0.5143 -1.3297 -0.2622
  360TIP3    H222496   6.261   1.927   2.283 -0.3998 -2.6330 -0.8522
  361TIP3   OH222497   4.696   1.296   4.626  0.8521  0.2396  0.1547
  361TIP3    H122498   4.606   1.303   4.657  0.2287 -1.4425 -1.1008
  361TIP3    H222499   4.742   1.249   4.695 -0.0863 -1.8736 -0.5839
  362TIP3   OH222500   6.705   2.805  13.699  0.4042  0.6098 -0.1083
  362TIP3    H122501   6.724   2.712  13.709 -1.0591  0.1495 -1.2709
  362TIP3    H222502   6.632   2.808  13.638  0.7338  2.5614 -0.4636
  363TIP3   OH222503   2.065   6.215   3.617 -0.4948 -0.1462 -0.1305
  363TIP3    H122504   2.003   6.268   3.667 -1.2605 -1.1767  0.0373
  363TIP3    H222505   2.018   6.134   3.597  0.1182 -0.1557 -1.7024
  364TIP3   OH222506   2.364   0.593  10.933  0.0041 -0.1136  0.0516
  364TIP3    H122507   2.457   0.580  10.914  0.5513  0.9603  1.7819
  364TIP3    H222508   2.319   0.535  10.871  1.7823 -0.2612 -1.2018
  365TIP3   OH222509   2.027   2.780  11.835 -0.2620  0.2254  0.2632
  365TIP3    H122510   2.059   2.702  11.790 -1.0307 -0.5706  1.0457
  365TIP3    H222511   1.983   2.746  11.913 -1.4560  1.3659  0.1280
  366TIP3   OH222512   4.600   2.395  16.376  0.0280  0.1973 -0.2082
  366TIP3    H122513   4.662   2.440  16.433  0.0993  0.4682 -0.4955
  366TIP3    H222514   4.617   2.431  16.289  0.6640 -1.0120 -0.5967
  367TIP3   OH222515   6.650   4.770   6.370  0.3902 -0.3755  0.7090
  367TIP3    H122516   6.584   4.725   6.318  0.2040 -0.2209  0.8093
  367TIP3    H222517   6.607   4.852   6.397 -0.2088 -1.2998  2.7132
  368TIP3   OH222518   6.502   0.397  15.881  0.0364  0.7508 -0.1914
  368TIP3    H122519   6.494   0.418  15.974  0.1039  2.7851 -0.5926
  368TIP3    H222520   6.449   0.319  15.869  2.2294 -1.2826  2.0426
  369TIP3   OH222521   4.298   5.336  12.534 -0.3670  0.3416  0.1026
  369TIP3    H122522   4.287   5.431  12.525  0.2634  0.3489 -0.6914
  369TIP3    H222523   4.219   5.299  12.493 -0.2815  0.5093 -0.2184
  370TIP3   OH222524   6.218   6.294   2.468 -0.2615  0.1736  0.0626
  370TIP3    H122525   6.183   6.383   2.474  0.2651  0.4626 -0.9870
  370TIP3    H222526   6.304   6.299   2.510 -0.2942  0.1192  0.1367
  371TIP3   OH222527   4.576   2.649   2.069  0.0913  0.2757 -0.1206
  371TIP3    H122528   4.599   2.587   1.999  1.1495 -2.1127  2.1725
  371TIP3    H222529   4.652   2.707   2.076  1.4177 -1.4797  1.0142
  372TIP3   OH222530   1.619   0.979  10.776  0.3378 -0.2164  0.3891
  372TIP3    H122531   1.527   0.953  10.780 -0.0022  1.1143  1.4226
  372TIP3    H222532   1.628   1.021  10.690 -0.3237  0.7623  0.7918
  373TIP3   OH222533   2.631   3.640   1.714 -0.2417  0.4237  0.5421
  373TIP3    H122534   2.571   3.599   1.776 -0.4062 -3.3823 -1.7806
  373TIP3    H222535   2.718   3.609   1.742 -0.1147  0.3277  0.0476
  374TIP3   OH222536   1.694   6.098   5.727 -0.0780  0.8029  0.4836
  374TIP3    H122537   1.626   6.166   5.730 -0.9862  0.0617 -1.5137
  374TIP3    H222538   1.726   6.092   5.817 -0.9380  2.8924  0.9900
  375TIP3   OH222539   6.498   0.594   5.473 -0.2816 -0.2950 -0.2996
  375TIP3    H122540   6.494   0.506   5.510  0.2725 -0.1664  0.0907
  375TIP3    H222541   6.538   0.582   5.387  0.7938 -0.3235  0.1758
  376TIP3   OH222542   4.581   0.534   0.946  0.3801  0.0732 -0.4476
  376TIP3    H122543   4.649   0.488   0.995 -1.4721 -2.1437  0.2129
  376TIP3    H222544   4.571   0.482   0.866 -0.3192  0.5634 -0.6797
  377TIP3   OH222545   0.875   3.897   0.101 -0.9271  0.2236  0.3358
  377TIP3    H122546   0.868   3.834   0.172 -0.8741  0.1508  0.2765
  377TIP3    H222547   0.964   3.931   0.107 -0.5490 -0.5869 -0.3668
  378TIP3   OH222548   3.537   4.011   3.038 -0.1880 -0.2472 -0.3136
  378TIP3    H122549   3.579   3.992   2.954  0.8394  0.3887  0.0395
  378TIP3    H222550   3.516   4.104   3.033  0.7560  0.0300  0.4898
  379TIP3   OH222551   4.130   3.698   2.302 -0.0762 -0.3695  0.9905
  379TIP3    H122552   4.123   3.788   2.270 -0.5093  0.2444  2.6969
  379TIP3    H222553   4.144   3.645   2.224  0.2876  1.1913 -0.0382
  380TIP3   OH222554   4.851   2.929   2.537  0.0416 -0.5806  0.1372
  380TIP3    H122555   4.769   2.880   2.546  1.1877 -2.4028  0.9833
  380TIP3    H222556   4.869   2.961   2.625  0.7921 -1.0959  0.1716
  381TIP3   OH222557   3.494   5.493   1.424 -0.0013 -0.1793  0.4824
  381TIP3    H122558   3.466   5.406   1.396 -1.2410 -0.0863  1.3366
  381TIP3    H222559   3.561   5.519   1.360 -2.3246 -0.1496 -2.0944
  382TIP3   OH222560   5.667   3.151  10.969 -0.0605 -0.0034 -0.3337
  382TIP3    H122561   5.587   3.196  10.996 -0.4887  0.2310 -1.9172
  382TIP3    H222562   5.699   3.202  10.894  0.6046 -1.1217 -0.8240
  383TIP3   OH222563   6.719   6.333  12.531 -0.1122 -0.2178  0.2493
  383TIP3    H122564   6.768   6.268  12.582 -0.8593 -1.6793 -0.8184
  383TIP3    H222565   6.640   6.287  12.504 -1.5291  1.7243  0.9227
  384TIP3   OH222566   6.206   0.445   2.232 -0.5991 -0.1455  0.0873
  384TIP3    H122567   6.167   0.445   2.319  1.7827  1.7694  1.2952
  384TIP3    H222568   6.260   0.366   2.229 -0.8507 -0.3230  0.2661
  385TIP3   OH222569   2.006   6.551   2.742  0.0756 -0.4926 -0.1277
  385TIP3    H122570   1.969   6.616   2.802  0.3558 -0.0859 -0.3940
  385TIP3    H222571   1.982   6.582   2.655  1.5364  0.1102 -0.3501
  386TIP3   OH222572   6.707   3.786  15.810 -0.3622 -0.4651  0.6438
  386TIP3    H122573   6.709   3.792  15.906 -3.8056 -1.3990  0.8905
  386TIP3    H222574   6.644   3.717  15.792 -1.2138  0.9442 -2.3194
  387TIP3   OH222575   3.861   3.461  16.538 -0.3395  0.1240 -0.4488
  387TIP3    H122576   3.955   3.452  16.520 -0.5385 -1.2673 -0.9003
  387TIP3    H222577   3.857   3.475  16.633  0.3604  0.8368 -0.5150
  388TIP3   OH222578   1.789   3.139   4.114 -0.2309  0.2808 -0.1559
  388TIP3    H122579   1.862   3.132   4.052  0.3642  0.0861  0.5597
  388TIP3    H222580   1.829   3.169   4.195 -0.7741 -0.8799  0.5669
  389TIP3   OH222581   5.843   0.255   2.074 -0.0027 -0.6748 -0.1126
  389TIP3    H122582   5.763   0.288   2.035 -0.9284 -0.6214  1.7073
  389TIP3    H222583   5.909   0.322   2.055 -0.2515 -0.8966 -1.9477
  390TIP3   OH222584   1.632   1.615   4.408  0.8096  0.0339  0.3794
  390TIP3    H122585   1.632   1.586   4.317  1.0860 -0.8294  0.6483
  390TIP3    H222586   1.722   1.602   4.437  0.1543 -2.2801  1.5691
  391TIP3   OH222587   1.114   0.515   1.168 -0.1889 -0.5092  0.3662
  391TIP3    H122588   1.055   0.552   1.233 -1.4127 -0.8696 -0.5035
  391TIP3    H222589   1.073   0.534   1.084  2.1357  1.3662 -0.4645
  392TIP3   OH222590   1.612   5.823   2.804  0.4126  0.3301 -0.4591
  392TIP3    H122591   1.591   5.891   2.868 -1.1982 -1.3375  0.8875
  392TIP3    H222592   1.688   5.779   2.840 -0.7058 -0.8352  0.5632
  393TIP3   OH222593   3.139   4.878   5.345 -0.5259  0.4206 -0.0206
  393TIP3    H122594   3.196   4.945   5.307  1.2023 -0.0420  1.6352
  393TIP3    H222595   3.185   4.796   5.331 -1.1623 -0.0663  0.6661
  394TIP3   OH222596   4.886   0.617   0.877  0.3445 -0.6444  0.3391
  394TIP3    H122597   4.878   0.591   0.786  0.1515  0.6490 -0.0304
  394TIP3    H222598   4.980   0.608   0.896  0.6093  0.3449 -0.4014
  395TIP3   OH222599   1.427   5.605   3.322 -0.4790  0.1613 -0.3952
  395TIP3    H122600   1.486   5.562   3.260 -0.8330  0.4531 -0.9462
  395TIP3    H222601   1.344   5.558   3.312 -0.5150  0.1544 -0.0772
  396TIP3   OH222602   1.140   3.683   2.577 -0.6405 -0.1900 -0.7116
  396TIP3    H122603   1.139   3.757   2.638 -1.5627 -0.5581 -0.2708
  396TIP3    H222604   1.134   3.605   2.632  2.5580 -0.7656 -0.9912
  397TIP3   OH222605   6.025   5.190   2.175  0.3751 -0.0045  0.4137
  397TIP3    H122606   5.951   5.224   2.124  0.8959  0.8075  0.1765
  397TIP3    H222607   6.049   5.109   2.131  0.6039  0.5161 -0.4542
  398TIP3   OH222608   6.272   5.811   5.602  0.4586  0.3089  0.2086
  398TIP3    H122609   6.252   5.883   5.542  2.1319  1.4902  0.9853
  398TIP3    H222610   6.352   5.772   5.566  1.1707  0.6777  1.3409
  399TIP3   OH222611   0.556   3.824   4.170 -0.7625 -0.0165 -0.5125
  399TIP3    H122612   0.637   3.781   4.144 -1.1747  0.0692 -2.0330
  399TIP3    H222613   0.540   3.794   4.260  0.5425 -0.6196 -0.4684
  400TIP3   OH222614   6.318   6.047   0.148  0.4663  0.5208  0.5608
  400TIP3    H122615   6.298   6.136   0.177 -0.0262  0.2480  1.0659
  400TIP3    H222616   6.240   5.996   0.171 -0.0859  0.3429 -1.4854
  401TIP3   OH222617   3.821   6.480  14.807 -0.7289  0.0671 -1.2947
  401TIP3    H122618   3.831   6.552  14.868 -3.9216  0.7075 -1.3554
  401TIP3    H222619   3.811   6.402  14.862 -0.9650  0.2478 -1.0807
  402TIP3   OH222620   4.050   6.391  11.772 -0.0296 -0.4560  1.1515
  402TIP3    H122621   3.957   6.406  11.788 -0.1914 -0.2026  0.0968
  402TIP3    H222622   4.095   6.463  11.817 -0.6498  2.0331 -1.8583
  403TIP3   OH222623   1.698   2.002  14.256  0.3817 -0.0470 -0.1459
  403TIP3    H122624   1.677   2.051  14.335  1.5588 -0.3363  0.3548
  403TIP3    H222625   1.752   1.929  14.286 -0.4727 -1.0815 -1.0098
  404TIP3   OH222626   3.509   4.141   2.459  0.4482  0.1019  0.2287
  404TIP3    H122627   3.531   4.053   2.428  0.5715  0.5091 -0.8910
  404TIP3    H222628   3.433   4.129   2.516 -1.6102 -0.4297 -2.3998
  405TIP3   OH222629   5.600   0.942   1.181  0.1844  0.5133  0.2051
  405TIP3    H122630   5.666   0.941   1.112  0.1462  0.3330  0.1718
  405TIP3    H222631   5.522   0.977   1.139 -0.0646 -0.3229 -0.0501
  406TIP3   OH222632   3.433   0.303  13.807  0.0678  0.0556 -0.1825
  406TIP3    H122633   3.430   0.259  13.722  1.3540 -0.6301  0.1057
  406TIP3    H222634   3.421   0.396  13.786 -0.2507 -0.1699 -1.0375
  407TIP3   OH222635   3.864   1.372   2.622 -0.1429  0.4538 -1.0312
  407TIP3    H122636   3.792   1.412   2.671 -0.0529 -2.7214  2.1342
  407TIP3    H222637   3.827   1.294   2.583  1.3004 -0.8111 -0.0190
  408TIP3   OH222638   5.622   3.360   4.225 -0.7545 -0.7943  0.3347
  408TIP3    H122639   5.602   3.279   4.178  1.4142 -0.7907 -0.7110
  408TIP3    H222640   5.687   3.334   4.290  0.5833  0.2247 -0.5634
  409TIP3   OH222641   5.785   3.554   1.274 -0.4332 -0.0045  0.4881
  409TIP3    H122642   5.721   3.492   1.241 -1.8107  1.8285 -0.3991
  409TIP3    H222643   5.835   3.582   1.197 -0.6509  0.8908  0.6546
  410TIP3   OH222644   4.843   5.594   3.756  0.5124 -0.2438  0.2504
  410TIP3    H122645   4.782   5.529   3.720  1.3916 -1.1407  0.3433
  410TIP3    H222646   4.798   5.628   3.834  0.5992 -1.7536  0.9946
  411TIP3   OH222647   3.209   5.067  13.950 -0.0822 -0.4693  0.2846
  411TIP3    H122648   3.145   5.113  14.004  0.5769  0.9750 -0.0996
  411TIP3    H222649   3.157   5.013  13.890 -1.0709  1.7561 -0.9942
  412TIP3   OH222650   3.166   0.439  12.974 -0.2512 -0.5553  0.0059
  412TIP3    H122651   3.096   0.374  12.968 -0.4696 -0.3313  0.1089
  412TIP3    H222652   3.233   0.397  13.027 -1.2757  0.0813  1.9123
  413TIP3   OH222653   5.778   4.318   3.773  0.1427 -0.0470  0.0897
  413TIP3    H122654   5.818   4.249   3.720 -1.6931 -0.1286 -1.2728
  413TIP3    H222655   5.703   4.275   3.814 -1.4764  1.2802 -1.3771
  414TIP3   OH222656   1.325   1.156   5.931  0.2541  0.5523  1.0336
  414TIP3    H122657   1.414   1.179   5.903  1.2085 -2.9247  0.6773
  414TIP3    H222658   1.339   1.103   6.010 -1.6630  1.2750  1.9008
  415TIP3   OH222659   4.158   1.655   2.121  0.1056 -0.0754  0.0012
  415TIP3    H122660   4.215   1.594   2.168  1.6464  1.4058  0.1520
  415TIP3    H222661   4.163   1.736   2.172 -0.9555  0.5438 -0.8367
  416TIP3   OH222662   4.158   5.182  14.618  0.2891  0.4128 -0.1400
  416TIP3    H122663   4.228   5.192  14.553 -0.7084 -0.1460 -1.3402
  416TIP3    H222664   4.084   5.231  14.582 -0.2426  0.2032  0.6337
  417TIP3   OH222665   6.233   2.916   1.036  0.4536 -0.3763 -0.1584
  417TIP3    H122666   6.202   2.831   1.007  0.2597 -1.1986  2.2596
  417TIP3    H222667   6.213   2.975   0.963 -0.8275 -2.0931 -1.2668
  418TIP3   OH222668   5.913   1.631  15.502 -0.4445 -0.2051 -0.2600
  418TIP3    H122669   5.980   1.585  15.452  0.4896 -0.0441  0.8082
  418TIP3    H222670   5.923   1.723  15.477 -0.8544 -0.2889 -0.7486
  419TIP3   OH222671   1.639   2.069   1.103 -0.5049  0.1619  0.3602
  419TIP3    H122672   1.684   2.079   1.187  0.6256 -1.4981  0.0064
  419TIP3    H222673   1.657   2.151   1.057  0.9973  0.1054  0.7931
  420TIP3   OH222674   1.599   0.071  13.048  0.2901 -0.2904 -0.1182
  420TIP3    H122675   1.560   0.009  12.986 -2.5607 -1.7446  2.8871
  420TIP3    H222676   1.684   0.032  13.070  0.1301 -1.1890 -1.0092
  421TIP3   OH222677   2.026   1.272  16.689  0.4511  0.1131 -0.7377
  421TIP3    H122678   1.962   1.234  16.629 -0.3556  0.9963 -0.4481
  421TIP3    H222679   2.063   1.196  16.735 -0.4269 -0.4070 -0.8711
  422TIP3   OH222680   6.512   4.269   0.959 -0.5162 -0.6132  0.1029
  422TIP3    H122681   6.488   4.357   0.989  1.9067  0.1136  0.1177
  422TIP3    H222682   6.514   4.217   1.039 -0.0176 -0.1748  0.3834
  423TIP3   OH222683   3.819   3.537  12.969 -0.1209  0.6448 -0.3470
  423TIP3    H122684   3.740   3.526  13.022  0.2441 -1.7814 -0.1700
  423TIP3    H222685   3.837   3.449  12.935  3.0832  0.8567  0.4781
  424TIP3   OH222686   4.133   2.840   2.202  0.7077  0.4789  0.3024
  424TIP3    H122687   4.146   2.928   2.238  0.8245  0.6455 -0.1386
  424TIP3    H222688   4.204   2.830   2.138  0.6424  0.0988  0.2895
  425TIP3   OH222689   3.618   5.093  11.490  0.8081 -0.3837 -0.2256
  425TIP3    H122690   3.678   5.030  11.529 -0.2081 -1.2251  0.0107
  425TIP3    H222691   3.540   5.042  11.469  0.1729  0.6917 -0.5395
  426TIP3   OH222692   2.591   0.052   3.410 -0.4021 -0.2004 -0.0966
  426TIP3    H122693   2.549  -0.034   3.412 -0.6838 -0.1108 -1.4181
  426TIP3    H222694   2.677   0.037   3.372 -0.2604  0.0330  0.1260
  427TIP3   OH222695   0.444   1.052  11.828 -0.1300 -0.7867 -0.5074
  427TIP3    H122696   0.492   1.095  11.899  2.7082 -1.6680 -1.7501
  427TIP3    H222697   0.417   1.124  11.771  1.7717 -0.3332 -0.9214
  428TIP3   OH222698   5.416   2.215  10.942 -0.2620  0.1165 -0.5388
  428TIP3    H122699   5.474   2.271  10.890  0.5001  0.3133  0.5000
  428TIP3    H222700   5.362   2.170  10.877  2.1582 -1.3500 -1.7113
  429TIP3   OH222701   4.683   2.532  12.044  0.0866 -0.0569 -0.0501
  429TIP3    H122702   4.733   2.507  11.967 -0.6186  0.9885 -0.8832
  429TIP3    H222703   4.660   2.624  12.029 -0.5221  0.0123  1.1563
  430TIP3   OH222704   2.868   4.738  13.063 -0.1389  0.2674 -0.0684
  430TIP3    H122705   2.884   4.664  13.122 -0.4655 -0.2196 -0.5848
  430TIP3    H222706   2.874   4.815  13.120 -1.0733 -0.2285  0.7401
  431TIP3   OH222707   0.728   4.170  15.707  0.7669 -0.3592  0.1137
  431TIP3    H122708   0.740   4.263  15.687 -0.0062 -0.2746  0.0054
  431TIP3    H222709   0.734   4.164  15.802  0.1769 -0.0967  0.1697
  432TIP3   OH222710   3.283   5.797  15.500 -0.8324 -0.5785 -0.0812
  432TIP3    H122711   3.364   5.757  15.532  0.2986  1.1530 -0.6390
  432TIP3    H222712   3.302   5.825  15.411 -1.8597  0.3347 -0.0510
  433TIP3   OH222713   1.645   6.271   1.018 -0.2972 -0.2933  0.0672
  433TIP3    H122714   1.574   6.207   1.012  0.1279 -0.7156 -0.5386
  433TIP3    H222715   1.709   6.230   1.077  0.2947 -0.7510 -0.8692
  434TIP3   OH222716   2.952   3.879   2.135 -0.0675 -0.5399  0.4349
  434TIP3    H122717   2.922   3.886   2.226  0.4397  0.1818  0.5550
  434TIP3    H222718   3.045   3.859   2.142  0.5288  1.7739  0.1302
  435TIP3   OH222719   4.067   5.653  16.788 -0.1669 -0.6099 -0.2218
  435TIP3    H122720   4.114   5.601  16.723 -0.7118 -2.2202  0.5937
  435TIP3    H222721   3.988   5.602  16.806 -2.5406  2.1773 -1.8583
  436TIP3   OH222722   4.383   6.195   2.405  0.7145  0.5100  0.0671
  436TIP3    H122723   4.332   6.182   2.325 -1.6753  0.4959  1.4834
  436TIP3    H222724   4.447   6.125   2.405 -1.7818 -1.9513  0.0078
  437TIP3   OH222725   3.669   1.347  15.359  0.1817 -0.9377 -0.1570
  437TIP3    H122726   3.706   1.406  15.425 -0.6328  0.3392 -0.7990
  437TIP3    H222727   3.700   1.382  15.275 -2.2301  0.0999 -0.7176
  438TIP3   OH222728   5.294   0.378   0.880  0.0203 -0.0047  0.6168
  438TIP3    H122729   5.284   0.335   0.965  0.9113 -0.1298  0.6688
  438TIP3    H222730   5.388   0.395   0.873 -0.0135 -0.2380 -0.4661
  439TIP3   OH222731   1.529   6.648  15.764 -1.0367  0.6958 -0.2690
  439TIP3    H122732   1.552   6.715  15.828 -0.3672  0.9476 -0.7721
  439TIP3    H222733   1.602   6.647  15.702 -2.7728  2.1780 -2.4602
  440TIP3   OH222734   0.461   4.828   4.537 -0.1103 -0.1538  0.2267
  440TIP3    H122735   0.386   4.769   4.547  0.5447 -0.7740  1.7294
  440TIP3    H222736   0.538   4.773   4.553  0.5756  0.8696  0.5611
  441TIP3   OH222737   5.129   4.125  13.482 -0.0835 -0.3974 -0.2252
  441TIP3    H122738   5.075   4.096  13.555  0.7283  0.0152  0.5553
  441TIP3    H222739   5.097   4.213  13.461  1.4379  0.6203  1.4568
  442TIP3   OH222740   0.181   3.817  11.530 -0.3069  0.4292  0.3497
  442TIP3    H122741   0.178   3.868  11.449  0.2983 -0.3036 -0.1531
  442TIP3    H222742   0.222   3.875  11.593 -2.6503  1.7781  0.7486
  443TIP3   OH222743   1.405   4.061  15.420 -0.2680  0.8644  0.2466
  443TIP3    H122744   1.318   4.033  15.445 -0.3789  0.7638 -0.2368
  443TIP3    H222745   1.435   4.116  15.493 -0.5902  0.6112  0.5706
  444TIP3   OH222746   4.172   4.205   3.459 -0.5895  0.3362  0.0512
  444TIP3    H122747   4.094   4.186   3.511 -0.4842  0.4327  0.2440
  444TIP3    H222748   4.197   4.294   3.483 -0.4503  0.3259 -0.0497
  445TIP3   OH222749   2.908   0.395  16.853  0.2745 -0.1203 -0.2586
  445TIP3    H122750   2.966   0.378  16.927  0.5007  2.5579  0.2984
  445TIP3    H222751   2.967   0.413  16.780  0.0520 -1.8274 -0.9097
  446TIP3   OH222752   1.726   4.489   1.532  0.3330  0.0634  0.8358
  446TIP3    H122753   1.817   4.514   1.546  0.1491  0.2646  1.7223
  446TIP3    H222754   1.709   4.508   1.440  0.5364  2.1181  1.1885
  447TIP3   OH222755   5.085   2.101   1.793 -0.2013  0.4702 -0.3673
  447TIP3    H122756   5.073   2.088   1.887 -0.5674 -0.0819 -0.4798
  447TIP3    H222757   5.178   2.120   1.782  0.1626 -0.9461 -0.0292
  448TIP3   OH222758   5.086   1.906  13.314  0.3307 -0.0889  0.0229
  448TIP3    H122759   5.172   1.947  13.306  0.5680 -0.8042 -1.3314
  448TIP3    H222760   5.102   1.813  13.297 -0.6547 -0.2921  0.1197
  449TIP3   OH222761   6.782   0.995   4.546  0.0176 -0.4708 -0.4043
  449TIP3    H122762   6.769   0.997   4.451  1.8908  0.1331 -0.6902
  449TIP3    H222763   6.860   0.941   4.558  0.4807  0.4014  0.6863
  450TIP3   OH222764   1.028   3.238  13.790 -0.7216 -0.2536  0.1045
  450TIP3    H122765   1.081   3.247  13.711 -0.6749  1.9188  0.3242
  450TIP3    H222766   0.966   3.311  13.786  0.1390  0.7353  2.6659
  451TIP3   OH222767   6.261   5.220   5.364 -0.3093 -0.1628 -0.0308
  451TIP3    H122768   6.304   5.220   5.279 -0.1394 -0.6535  0.0484
  451TIP3    H222769   6.201   5.295   5.361  0.8796  0.8128  0.0350
  452TIP3   OH222770   1.992   4.768  12.309 -0.2045 -0.2772 -0.2461
  452TIP3    H122771   2.053   4.723  12.368 -4.1281 -2.4162  2.6285
  452TIP3    H222772   1.969   4.848  12.356 -1.9067 -1.0565  0.3318
  453TIP3   OH222773   3.544   6.165   0.680 -0.0680  0.4103 -0.3661
  453TIP3    H122774   3.589   6.089   0.718 -1.5425 -0.1118  0.3944
  453TIP3    H222775   3.517   6.217   0.756  1.2441  1.9384 -0.8783
  454TIP3   OH222776   0.692   0.506   4.634 -0.2035 -0.7872 -0.1328
  454TIP3    H122777   0.659   0.487   4.721 -1.2405  0.5286 -0.2074
  454TIP3    H222778   0.682   0.424   4.585  0.4004 -1.5398  0.9621
  455TIP3   OH222779   4.549   4.758   1.496 -0.0727 -0.5539 -0.0694
  455TIP3    H122780   4.534   4.669   1.466  0.0733 -0.5509 -0.1511
  455TIP3    H222781   4.484   4.771   1.565 -1.4911 -0.0149 -1.4539
  456TIP3   OH222782   3.840   2.972   2.396 -0.8185  0.4039 -0.7381
  456TIP3    H122783   3.896   3.017   2.333 -2.6135  1.3057 -1.7574
  456TIP3    H222784   3.801   3.042   2.448 -0.3793 -0.2637  0.5416
  457TIP3   OH222785   3.623   3.050  12.255 -0.6442  0.4316 -0.0352
  457TIP3    H122786   3.532   3.024  12.240  0.4092 -3.5439 -0.5706
  457TIP3    H222787   3.641   3.021  12.345  0.6059 -0.6342 -0.6100
  458TIP3   OH222788   2.317   5.626  16.896  0.2083 -0.3379  0.0282
  458TIP3    H122789   2.409   5.605  16.880  0.2759  0.1288 -0.2430
  458TIP3    H222790   2.289   5.564  16.962  0.2602 -1.5744 -1.0733
  459TIP3   OH222791   1.414   3.230   6.073 -0.0179  0.6597  0.7203
  459TIP3    H122792   1.384   3.144   6.103  1.1617  0.8074  2.4651
  459TIP3    H222793   1.333   3.281   6.064 -0.6809 -0.4284  0.2903
  460TIP3   OH222794   1.409   2.964  12.476  0.0433  1.0882 -0.1784
  460TIP3    H122795   1.499   2.989  12.497  1.3728 -1.7224 -1.9556
  460TIP3    H222796   1.389   2.894  12.538 -1.1940  2.0381  0.5502
  461TIP3   OH222797   6.035   3.944  15.687  0.0904  0.1508 -0.0287
  461TIP3    H122798   6.018   4.026  15.641  1.5105 -0.0292 -0.9399
  461TIP3    H222799   6.077   3.970  15.769 -1.6601  0.4276  0.8223
  462TIP3   OH222800   3.171   3.050   1.817 -0.2306  0.6707 -0.0519
  462TIP3    H122801   3.168   3.146   1.810  0.9404  0.7937  0.8573
  462TIP3    H222802   3.257   3.031   1.853 -0.0319 -0.8084 -1.2187
  463TIP3   OH222803   0.454   0.370  11.265 -0.3298  0.5142  0.1424
  463TIP3    H122804   0.436   0.439  11.201  1.6666 -1.0243 -2.2732
  463TIP3    H222805   0.535   0.396  11.307 -1.2514  1.1505  1.5919
  464TIP3   OH222806   6.215   0.210  12.288  0.2296 -0.5988  0.1672
  464TIP3    H122807   6.297   0.259  12.284 -1.2139  2.0254  0.4239
  464TIP3    H222808   6.208   0.169  12.201  0.8545  0.8274 -0.5877
  465TIP3   OH222809   6.277   4.933   1.563 -0.0853  0.0975  0.1599
  465TIP3    H122810   6.357   4.972   1.601 -2.2837  2.8661  2.4119
  465TIP3    H222811   6.263   4.981   1.482  0.6149 -0.6112 -0.4066
  466TIP3   OH222812   2.224   3.315  15.251  0.0560 -0.1136  0.4506
  466TIP3    H122813   2.176   3.268  15.319 -2.4360  2.8378  0.9240
  466TIP3    H222814   2.287   3.251  15.218 -1.1589 -2.8174  2.9334
  467TIP3   OH222815   5.480   1.368   5.648 -0.3135  0.4219 -0.3817
  467TIP3    H122816   5.461   1.461   5.655  0.6952  0.6146 -0.0731
  467TIP3    H222817   5.394   1.326   5.650 -1.1301  1.5086 -4.1402
  468TIP3   OH222818   0.239   0.630  16.312 -0.0054 -0.4567  0.2328
  468TIP3    H122819   0.311   0.684  16.346  0.1466  0.6055 -1.6606
  468TIP3    H222820   0.278   0.544  16.300  1.0123  0.1231 -0.8263
  469TIP3   OH222821   1.357   1.816  13.061  0.2011 -0.5951  0.4357
  469TIP3    H122822   1.422   1.781  12.999  1.0954  0.7812  0.5450
  469TIP3    H222823   1.393   1.797  13.147  0.8597  0.8173  0.4965
  470TIP3   OH222824   1.323   3.739   5.487 -0.0830 -0.7095 -0.0941
  470TIP3    H122825   1.390   3.735   5.419  0.4395 -1.8771  0.4578
  470TIP3    H222826   1.372   3.730   5.569 -0.6246  1.3762  0.5156
  471TIP3   OH222827   2.525   5.389  14.742 -0.2172  0.4469  0.0320
  471TIP3    H122828   2.496   5.341  14.819  2.8849 -0.2375  0.9267
  471TIP3    H222829   2.490   5.339  14.668  0.1340 -1.2749  0.9880
  472TIP3   OH222830   5.118   6.816   6.254 -0.4502 -0.1982 -0.4078
  472TIP3    H122831   5.052   6.781   6.314  0.9781 -0.0644  1.3212
  472TIP3    H222832   5.102   6.769   6.172 -1.0561 -2.0680  0.7070
  473TIP3   OH222833   5.822   2.993   3.099  0.6112 -0.5099 -0.9075
  473TIP3    H122834   5.786   2.905   3.089 -1.1429  0.2873 -2.0437
  473TIP3    H222835   5.825   3.028   3.010  2.0334  0.3251 -0.5607
  474TIP3   OH222836   4.259   5.146  15.466 -0.5392  0.3199 -0.4911
  474TIP3    H122837   4.166   5.170  15.471 -0.9378 -0.7556 -1.8974
  474TIP3    H222838   4.275   5.096  15.546 -1.0578  0.8522 -0.0423
  475TIP3   OH222839   6.260   5.058  14.658  0.1302  0.2112 -0.8784
  475TIP3    H122840   6.215   5.030  14.738  0.5673 -0.6444 -0.9209
  475TIP3    H222841   6.195   5.111  14.612 -1.6539 -2.6485 -1.9241
  476TIP3   OH222842   4.644   1.913   2.187  0.1757 -0.2128 -0.2049
  476TIP3    H122843   4.598   1.846   2.137 -0.3232  0.8486 -1.2048
  476TIP3    H222844   4.647   1.989   2.129  1.7155  0.2938  0.4661
  477TIP3   OH222845   6.202   4.092  14.504  0.2143  0.6359  0.0909
  477TIP3    H122846   6.108   4.092  14.526  0.1417  0.8929 -0.2047
  477TIP3    H222847   6.243   4.145  14.573 -0.1245  2.1511 -0.8230
  478TIP3   OH222848   1.671   1.450  10.869 -0.6400 -0.4864 -0.7053
  478TIP3    H122849   1.605   1.394  10.908  0.6737 -0.2072  2.1822
  478TIP3    H222850   1.721   1.392  10.811 -2.1165 -1.1532 -1.3509
  479TIP3   OH222851   5.506   3.950   4.565 -0.1162  0.3005  0.1801
  479TIP3    H122852   5.511   3.898   4.645 -1.3001  0.6723  0.5115
  479TIP3    H222853   5.481   3.887   4.497 -0.0360  0.1597  0.2795
  480TIP3   OH222854   2.425   3.467   6.828 -0.5503  0.2029  0.4158
  480TIP3    H122855   2.455   3.376   6.819  1.7445  0.9810 -0.6247
  480TIP3    H222856   2.414   3.498   6.739 -3.2058  0.4591  0.7500
  481TIP3   OH222857   4.266   3.035  14.505  0.1626  0.2452  0.4976
  481TIP3    H122858   4.356   3.047  14.535  1.8923 -4.6863 -1.7393
  481TIP3    H222859   4.265   3.070  14.416 -0.5760  1.2663  0.8761
  482TIP3   OH222860   6.647   0.903  12.800  0.1955 -0.0122  0.8424
  482TIP3    H122861   6.688   0.934  12.719 -1.3298 -0.3544 -0.1122
  482TIP3    H222862   6.553   0.917  12.786 -0.2560 -1.7175  1.8205
  483TIP3   OH222863   3.471   4.248  12.560 -0.1211 -0.4188 -0.0621
  483TIP3    H122864   3.442   4.253  12.469  0.8037 -1.1854 -0.4209
  483TIP3    H222865   3.547   4.190  12.557 -1.4194 -2.3371  1.5306
  484TIP3   OH222866   1.582   0.917  13.951 -0.2227  0.0330  0.1964
  484TIP3    H122867   1.669   0.921  13.912 -0.1674 -2.0803  0.0208
  484TIP3    H222868   1.546   0.834  13.923 -2.3984  0.9230  0.1291
  485TIP3   OH222869   2.113   1.230   2.284 -0.1170  0.1331 -0.4104
  485TIP3    H122870   2.033   1.251   2.235  0.4947 -0.7262 -1.8043
  485TIP3    H222871   2.117   1.135   2.285  0.0033  0.1252  1.1606
  486TIP3   OH222872   4.101   5.225   2.982  0.1595 -0.1347  0.1087
  486TIP3    H122873   4.186   5.244   2.943 -0.5190  0.7339 -1.0109
  486TIP3    H222874   4.101   5.130   2.995  0.6422 -0.3828 -1.4986
  487TIP3   OH222875   0.518   3.244   1.843 -0.2499  0.0450 -0.0420
  487TIP3    H122876   0.461   3.276   1.773  0.1770  0.4810 -0.1983
  487TIP3    H222877   0.530   3.151   1.824 -1.6966 -0.2930  0.5488
  488TIP3   OH222878   2.880   6.467  15.035 -0.0167  0.3721 -0.2391
  488TIP3    H122879   2.800   6.477  14.983  0.2315  0.8256 -0.5465
  488TIP3    H222880   2.929   6.399  14.989 -0.6542 -0.6224  0.5105
  489TIP3   OH222881   5.313   0.405  12.771 -0.3390 -0.0391 -0.2979
  489TIP3    H122882   5.314   0.496  12.802 -0.0544  0.6060 -2.0936
  489TIP3    H222883   5.352   0.409  12.684 -2.4386 -1.4916 -1.4072
  490TIP3   OH222884   1.830   3.685  15.265  0.5373  0.4981  0.6557
  490TIP3    H122885   1.822   3.628  15.188 -1.1958 -0.0001  1.1643
  490TIP3    H222886   1.780   3.763  15.242 -0.0312  0.3250  1.2839
  491TIP3   OH222887   3.157   2.498   2.834  0.4834  0.1752 -0.5181
  491TIP3    H122888   3.205   2.472   2.756  1.6819  1.2879 -0.1768
  491TIP3    H222889   3.223   2.501   2.904 -0.6369 -1.2429  0.6801
  492TIP3   OH222890   3.068   0.475  16.257 -0.1775  0.1649  0.4283
  492TIP3    H122891   3.093   0.462  16.165 -0.3125 -0.3950  0.4702
  492TIP3    H222892   3.003   0.407  16.274 -0.6366  0.6774  0.7510
  493TIP3   OH222893   0.785   3.884   6.276  0.5713  0.2280  0.4142
  493TIP3    H122894   0.734   3.919   6.203  2.0964  1.1200 -0.2663
  493TIP3    H222895   0.742   3.801   6.298 -0.0044 -0.0048 -1.4330
  494TIP3   OH222896   1.909   2.977   5.925 -0.1323  0.1837  0.0338
  494TIP3    H122897   1.986   3.028   5.950  0.2020  0.4408 -1.4300
  494TIP3    H222898   1.843   3.001   5.990  0.0137  2.4956 -0.5722
  495TIP3   OH222899   2.466   4.435  12.335  0.3297 -0.3782  0.6019
  495TIP3    H122900   2.444   4.525  12.313  0.8523 -0.2761  0.4763
  495TIP3    H222901   2.424   4.383  12.267 -0.9063 -0.3177  1.3061
  496TIP3   OH222902   4.854   0.433   2.891  0.5806 -0.0557  0.3182
  496TIP3    H122903   4.854   0.362   2.826  1.5179 -0.6241  0.9095
  496TIP3    H222904   4.766   0.468   2.888  0.2036 -1.0105 -0.2586
  497TIP3   OH222905   5.008   5.041   0.881  0.1240 -0.1743 -0.4549
  497TIP3    H122906   5.035   5.070   0.968 -1.3780 -0.1313  0.0333
  497TIP3    H222907   4.975   5.120   0.839 -1.1016 -0.5502 -0.2599
  498TIP3   OH222908   1.012   1.690   3.438  0.4685 -0.3245  0.1525
  498TIP3    H122909   1.053   1.708   3.522  1.6037  3.7184 -1.0687
  498TIP3    H222910   1.019   1.772   3.389 -2.2242 -1.7637 -3.0666
  499TIP3   OH222911   1.782   3.726   0.887  0.2894 -0.0630  0.4062
  499TIP3    H122912   1.750   3.789   0.952  0.8314  1.0717 -0.3818
  499TIP3    H222913   1.876   3.725   0.900  0.5184  0.9136 -0.9539
  500TIP3   OH222914   3.558   1.523   4.977 -0.1633  0.4535  0.5717
  500TIP3    H122915   3.524   1.540   4.888  0.5947  1.3704  0.4437
  500TIP3    H222916   3.503   1.452   5.010  1.2922 -1.9125 -1.6695
  501TIP3   OH222917   2.665   5.622  15.854  0.2576 -0.0058  0.0947
  501TIP3    H122918   2.594   5.654  15.910  0.6019  1.5313 -0.2962
  501TIP3    H222919   2.679   5.532  15.882 -0.0704  0.4822  1.9848
  502TIP3   OH222920   4.920   2.830  15.020  0.2994 -0.7750  0.0127
  502TIP3    H122921   4.910   2.893  14.948  1.1819 -1.2220 -0.5208
  502TIP3    H222922   4.833   2.791  15.030  0.6528 -2.3880 -2.4150
  503TIP3   OH222923   4.684   4.564  14.509  0.2903 -0.3673 -0.0743
  503TIP3    H122924   4.633   4.503  14.562 -0.8827  0.1350 -0.5919
  503TIP3    H222925   4.744   4.507  14.459  1.3128 -0.8481  1.6292
  504TIP3   OH222926   1.362   5.496   5.085 -0.4442  0.0202  0.0257
  504TIP3    H122927   1.329   5.530   5.002  0.2689  0.0788 -0.2431
  504TIP3    H222928   1.434   5.555   5.108 -0.6923  0.0511  0.7301
  505TIP3   OH222929   0.182   0.587  13.419  0.2419 -0.3340  0.2537
  505TIP3    H122930   0.202   0.501  13.382 -1.5165  0.0541 -1.8212
  505TIP3    H222931   0.243   0.647  13.375 -0.7534 -0.1051 -0.8767
  506TIP3   OH222932   4.927   2.918   3.174 -0.2201  0.0039  0.2302
  506TIP3    H122933   4.959   2.840   3.128 -0.9811 -0.4620  0.4837
  506TIP3    H222934   4.966   2.913   3.261 -0.1290  0.0009  0.1891
  507TIP3   OH222935   5.240   2.985  12.050  0.1010  0.0503 -0.0170
  507TIP3    H122936   5.224   2.899  12.089  0.7061 -0.2589 -0.4272
  507TIP3    H222937   5.334   2.985  12.030  1.0568  2.2893  3.5461
  508TIP3   OH222938   2.327   2.808   1.895  0.5042 -1.1311 -0.1150
  508TIP3    H122939   2.246   2.840   1.934  0.4483 -1.4572  0.0432
  508TIP3    H222940   2.359   2.881   1.843  1.7037  0.1151  2.2298
  509TIP3   OH222941   4.554   0.108  13.332 -0.3033  0.1323 -0.5156
  509TIP3    H122942   4.491   0.052  13.287  1.1470 -0.1839 -2.2935
  509TIP3    H222943   4.510   0.134  13.413 -2.6624 -0.1341 -1.6247
  510TIP3   OH222944   0.919   1.046  13.348  0.2334  0.0554 -0.1253
  510TIP3    H122945   0.833   1.087  13.336 -0.5566 -1.7152 -0.9444
  510TIP3    H222946   0.907   0.987  13.423  0.1571 -1.5101 -1.3139
  511TIP3   OH222947   1.658   1.792  12.154  0.3516  0.0035 -0.6908
  511TIP3    H122948   1.565   1.812  12.141  0.1541 -0.1948  0.3540
  511TIP3    H222949   1.662   1.748  12.239  1.6199  1.5448  0.1097
  512TIP3   OH222950   4.529   5.015  11.723 -0.9379 -0.3282  0.4070
  512TIP3    H122951   4.550   4.922  11.728 -0.4912 -0.1835  4.2271
  512TIP3    H222952   4.445   5.019  11.677 -1.3661 -2.7137  0.8612
  513TIP3   OH222953   2.978   3.024   2.070  0.6119  0.3877  0.1992
  513TIP3    H122954   3.041   3.010   1.999  0.5945  1.6849 -0.0940
  513TIP3    H222955   2.893   3.006   2.031  0.6696  0.2641  0.1308
  514TIP3   OH222956   1.849   0.755  11.100  0.3930 -0.3776 -0.3620
  514TIP3    H122957   1.935   0.796  11.103 -0.3029  1.1246  0.0242
  514TIP3    H222958   1.829   0.747  11.007  0.6539 -0.0865 -0.4415
  515TIP3   OH222959   4.573   3.132   3.756 -0.5176  0.3897  0.4485
  515TIP3    H122960   4.612   3.198   3.698 -2.2670  2.6493  1.6655
  515TIP3    H222961   4.638   3.119   3.825 -0.7622  2.1533  1.0685
  516TIP3   OH222962   2.610   5.023   4.933 -0.5177 -0.1575 -0.7440
  516TIP3    H122963   2.687   5.032   4.989 -1.0352  3.5796 -0.3464
  516TIP3    H222964   2.646   5.020   4.844  0.1364 -0.4259 -0.4753
  517TIP3   OH222965   6.470   6.574   4.164 -0.5173  0.2453  0.3645
  517TIP3    H122966   6.389   6.564   4.214 -0.6639  0.5207  0.1854
  517TIP3    H222967   6.477   6.494   4.113 -0.8884  0.3949  0.0758
  518TIP3   OH222968   0.328   2.347  15.486  0.1179 -0.5970 -0.1957
  518TIP3    H122969   0.412   2.389  15.473 -0.1154 -0.0146  0.1605
  518TIP3    H222970   0.295   2.383  15.569 -1.0724  0.1880 -0.9815
  519TIP3   OH222971   0.395   3.180   2.517 -0.0397 -0.1837 -0.1070
  519TIP3    H122972   0.461   3.183   2.586  0.5969 -0.4357 -0.6962
  519TIP3    H222973   0.401   3.265   2.473 -2.1197  0.9801  1.6383
  520TIP3   OH222974   0.513   0.657   3.027  0.1579  0.1020  0.2656
  520TIP3    H122975   0.419   0.672   3.041  0.1335 -0.9274  1.3465
  520TIP3    H222976   0.516   0.593   2.955  0.0028 -0.3632  0.6686
  521TIP3   OH222977   2.062   3.385  12.567 -0.2794 -0.3394 -0.2661
  521TIP3    H122978   2.013   3.468  12.574 -1.0113 -0.6495 -1.4844
  521TIP3    H222979   2.027   3.332  12.638 -1.6658 -0.5086 -1.0395
  522TIP3   OH222980   5.038   3.152  11.193 -0.1373  0.1721 -0.2834
  522TIP3    H122981   4.998   3.215  11.252  1.8187  0.7610  0.4853
  522TIP3    H222982   5.130   3.176  11.191  0.8478 -3.0868  0.6344
  523TIP3   OH222983   1.768   0.448  15.918 -0.9530  0.0730 -0.2166
  523TIP3    H122984   1.791   0.505  15.846 -2.4309  0.6770 -0.2520
  523TIP3    H222985   1.779   0.502  15.996 -0.7352 -0.1316 -0.1043
  524TIP3   OH222986   1.210   3.135   3.117 -0.1969 -0.3343  0.1637
  524TIP3    H122987   1.205   3.168   3.206 -2.5495  1.2374 -0.4676
  524TIP3    H222988   1.157   3.055   3.118  1.8314 -1.7640  0.6597
  525TIP3   OH222989   1.288   5.695  16.468 -0.6139  0.4887  0.4222
  525TIP3    H122990   1.213   5.651  16.509  0.4821 -1.1831  0.7495
  525TIP3    H222991   1.308   5.768  16.528 -1.9411  0.9466  0.3367
  526TIP3   OH222992   2.328   2.164  16.707  0.5671 -0.6345  0.5592
  526TIP3    H122993   2.374   2.184  16.789 -0.3168 -1.8194  1.3715
  526TIP3    H222994   2.322   2.248  16.662  2.2744 -0.1977  1.0596
  527TIP3   OH222995   1.897   4.194  11.249  0.1612  0.0730 -0.2308
  527TIP3    H122996   1.969   4.257  11.237  0.4100 -0.1658  0.0060
  527TIP3    H222997   1.934   4.126  11.305 -1.0552  1.2908  2.1873
  528TIP3   OH222998   6.477   1.070  11.206 -0.2853  0.0649 -0.4466
  528TIP3    H122999   6.500   0.988  11.162 -0.0427 -0.3508  0.4445
  528TIP3    H223000   6.440   1.125  11.136  0.3818 -0.4652 -1.2274
  529TIP3   OH223001   3.947   2.791   0.649 -0.3481 -0.6026  0.0377
  529TIP3    H123002   4.040   2.768   0.655  0.6651  2.7093 -0.6742
  529TIP3    H223003   3.903   2.731   0.709  2.2999 -1.9813  0.7489
  530TIP3   OH223004   2.607   5.186  13.857 -0.0613  0.1288  0.2350
  530TIP3    H123005   2.614   5.254  13.925  1.0036  0.5339 -0.2681
  530TIP3    H223006   2.691   5.188  13.812 -0.1184 -1.3407  0.0208
  531TIP3   OH223007   0.656   2.642   0.612  0.6548  0.6385 -0.0736
  531TIP3    H123008   0.693   2.669   0.696 -0.6823  0.1456  0.7109
  531TIP3    H223009   0.583   2.703   0.598  0.9524  0.8004 -0.9517
  532TIP3   OH223010   6.231   2.982   2.683 -0.6298 -0.2544  0.5846
  532TIP3    H123011   6.165   2.913   2.679  0.9620 -1.8829  0.9499
  532TIP3    H223012   6.192   3.055   2.635 -3.3594 -0.5002  2.2019
  533TIP3   OH223013   2.851   3.915   0.945  0.1997 -0.1323  0.0448
  533TIP3    H123014   2.859   4.000   0.902  5.7256 -0.3568  0.0051
  533TIP3    H223015   2.862   3.851   0.874 -1.6102 -0.9248  0.4094
  534TIP3   OH223016   3.134   4.765  12.543 -0.1467 -0.3022  0.3953
  534TIP3    H123017   3.166   4.788  12.456  0.0774  0.4420  0.6658
  534TIP3    H223018   3.212   4.769  12.599 -0.5995  1.0749  0.9737
  535TIP3   OH223019   0.637   6.102  16.946 -0.2082 -0.5956  0.3467
  535TIP3    H123020   0.568   6.163  16.919  1.5130  0.9125 -0.9312
  535TIP3    H223021   0.684   6.149  17.015  1.1035 -0.4420 -0.6098
  536TIP3   OH223022   5.425   2.517  10.923  0.4508 -0.3479 -0.7574
  536TIP3    H123023   5.425   2.607  10.891  0.0868  0.2673  0.8299
  536TIP3    H223024   5.488   2.471  10.868 -0.0827  0.6209 -2.2327
  537TIP3   OH223025   5.122   4.319  15.153  0.5398  0.2340 -0.1953
  537TIP3    H123026   5.036   4.311  15.195  0.5244 -0.6069 -0.3685
  537TIP3    H223027   5.126   4.245  15.093  1.8006 -0.3029  0.5178
  538TIP3   OH223028   2.617   5.396  12.136  0.4548  0.1396  0.6532
  538TIP3    H123029   2.698   5.370  12.180  0.3033  1.3966  1.7162
  538TIP3    H223030   2.569   5.446  12.201 -0.6571  0.4211 -0.3452
  539TIP3   OH223031   4.105   5.785  15.990 -0.3085 -0.7248 -0.3187
  539TIP3    H123032   4.159   5.829  15.924 -1.8909 -0.7894 -1.7194
  539TIP3    H223033   4.149   5.702  16.005  1.8070  0.5586  1.1140
  540TIP3   OH223034   3.102   1.889  14.510 -0.0318  0.2039  0.3741
  540TIP3    H123035   3.142   1.808  14.543  0.4807  0.7919  1.2497
  540TIP3    H223036   3.169   1.956  14.525 -0.3559  0.7526 -0.5599
  541TIP3   OH223037   5.173   1.818  11.017 -0.1484 -0.2597 -0.2569
  541TIP3    H123038   5.231   1.882  11.058 -2.0768  0.2725  1.8942
  541TIP3    H223039   5.111   1.871  10.967 -2.4246 -0.1626  2.4021
  542TIP3   OH223040   5.826   0.732   5.939  0.1324  0.2193 -0.5803
  542TIP3    H123041   5.761   0.693   5.999 -0.8251 -1.3938 -2.5284
  542TIP3    H223042   5.904   0.678   5.950  0.1549  0.2887 -0.3894
  543TIP3   OH223043   3.685   3.300  14.795  0.0746 -0.1537 -0.3122
  543TIP3    H123044   3.636   3.323  14.716 -1.1545  0.6721  0.6556
  543TIP3    H223045   3.669   3.373  14.855  1.0899 -0.7057  0.6574
  544TIP3   OH223046   1.078   3.532   3.602  0.7572  0.0655 -0.3110
  544TIP3    H123047   1.002   3.590   3.615  0.3837 -0.4264 -0.2678
  544TIP3    H223048   1.151   3.580   3.640  0.2130 -0.0874  0.9914
  545TIP3   OH223049   2.248   6.181  10.778 -0.3679  0.1405 -0.4873
  545TIP3    H123050   2.200   6.258  10.808 -0.6927  0.4904 -1.8645
  545TIP3    H223051   2.340   6.200  10.799 -0.6356  0.1302  0.7614
  546TIP3   OH223052   1.383   0.899   1.000 -0.6110 -0.6279 -0.3383
  546TIP3    H123053   1.370   0.992   0.985  1.7802 -0.2265 -0.2717
  546TIP3    H223054   1.328   0.879   1.075 -0.6916  0.8615  0.0304
  547TIP3   OH223055   5.342   0.423  15.924  0.0514  0.1224  0.1157
  547TIP3    H123056   5.296   0.416  16.008  0.3670 -0.9847  0.2177
  547TIP3    H223057   5.405   0.351  15.926 -1.2092 -1.1333 -1.8452
  548TIP3   OH223058   4.012   2.628  13.655  0.0428  0.1302  0.8179
  548TIP3    H123059   3.978   2.616  13.744 -0.2156  0.9918  0.8473
  548TIP3    H223060   4.034   2.721  13.651 -2.7123  0.8246 -0.9620
  549TIP3   OH223061   4.987   1.171  11.244  0.0671  0.3978  0.1966
  549TIP3    H123062   4.903   1.217  11.242  0.5231  1.2387 -0.3093
  549TIP3    H223063   4.971   1.089  11.198 -0.5726  0.3764  0.4486
  550TIP3   OH223064   2.539   5.756  11.265 -0.1348 -0.2267 -0.0669
  550TIP3    H123065   2.513   5.822  11.329 -0.3877 -0.0552 -0.3401
  550TIP3    H223066   2.457   5.733  11.221 -0.0448 -0.7208  0.0243
  551TIP3   OH223067   3.122   5.433  14.614 -0.7080 -0.3643 -0.4080
  551TIP3    H123068   3.194   5.388  14.571  2.5951  3.3770  0.5718
  551TIP3    H223069   3.133   5.413  14.707 -1.7108 -0.6814 -0.3474
  552TIP3   OH223070   2.457   0.665  16.869 -0.6871 -0.1154  0.1432
  552TIP3    H123071   2.459   0.671  16.964 -0.7789 -1.1067  0.2231
  552TIP3    H223072   2.370   0.633  16.848 -1.2198  1.6142 -0.4014
  553TIP3   OH223073   1.001   2.171  14.646 -0.6573 -0.4759 -0.4452
  553TIP3    H123074   0.975   2.256  14.611  0.9611  0.0137 -0.5403
  553TIP3    H223075   0.951   2.108  14.595 -1.5846  0.3905 -0.6477
  554TIP3   OH223076   1.424   6.053  12.064  0.5981 -0.5707  0.5300
  554TIP3    H123077   1.482   6.081  12.135  0.4426 -1.1870  0.9079
  554TIP3    H223078   1.401   5.963  12.086  0.4674 -0.7379 -0.2514
  555TIP3   OH223079   1.003   1.960  14.833 -0.2539 -0.3645  0.0877
  555TIP3    H123080   1.002   2.046  14.792  0.1872  0.4180  1.6299
  555TIP3    H223081   0.978   1.976  14.924  1.5805 -1.5861  0.8703
  556TIP3   OH223082   4.366   3.516   0.369  0.4017 -0.9422 -0.1342
  556TIP3    H123083   4.353   3.469   0.451 -1.2605  0.4638  0.4669
  556TIP3    H223084   4.335   3.455   0.301  0.6071 -1.6310  0.3773
  557TIP3   OH223085   4.988   1.185   1.910 -0.0542  0.6306  0.2840
  557TIP3    H123086   4.920   1.246   1.879 -1.1071 -0.0067  1.2652
  557TIP3    H223087   4.981   1.188   2.005  2.6113  1.9877  0.5289
  558TIP3   OH223088   6.403   2.999  17.081 -0.6368  0.2352  0.2908
  558TIP3    H123089   6.440   3.080  17.117 -2.4285  0.8750  0.8266
  558TIP3    H223090   6.418   2.934  17.149 -1.4108  0.7490  0.9804
  559TIP3   OH223091   2.135   6.105   6.719 -0.2056 -0.2565  0.5370
  559TIP3    H123092   2.203   6.172   6.720  0.2449 -0.7072  0.6352
  559TIP3    H223093   2.053   6.154   6.719  0.1170  0.2973 -0.2134
  560TIP3   OH223094   1.454   1.416  11.440 -0.2793 -0.3383  0.5943
  560TIP3    H123095   1.487   1.332  11.409 -0.8519 -1.1092  1.9728
  560TIP3    H223096   1.382   1.437  11.381  0.6977 -0.1281 -0.5721
  561TIP3   OH223097   3.776   5.581   0.861  0.5825 -0.1447 -0.6863
  561TIP3    H123098   3.845   5.573   0.926 -0.3451  0.8067  0.4743
  561TIP3    H223099   3.695   5.587   0.912 -0.3374 -0.8965 -1.9885
  562TIP3   OH223100   4.205   4.717  12.025 -0.4222 -0.3001  0.1974
  562TIP3    H123101   4.205   4.687  11.934  0.3831 -0.2550  0.1767
  562TIP3    H223102   4.207   4.636  12.076 -0.5001 -0.3172  0.1743
  563TIP3   OH223103   2.945   5.498   1.861  0.0799 -0.0581 -0.1140
  563TIP3    H123104   2.929   5.515   1.768  0.3536 -0.1427 -0.1763
  563TIP3    H223105   2.976   5.582   1.896  0.2879 -0.1113 -0.1690
  564TIP3   OH223106   3.496   2.614  13.161 -0.2381 -0.2156  0.8728
  564TIP3    H123107   3.480   2.534  13.212 -1.7149 -0.0299  0.7494
  564TIP3    H223108   3.574   2.594  13.110 -0.7036 -1.6848  0.6697
  565TIP3   OH223109   6.186   0.149   2.373  0.1438 -0.4442 -0.5064
  565TIP3    H123110   6.143   0.078   2.326 -0.8993 -0.8902  1.0183
  565TIP3    H223111   6.127   0.224   2.362 -1.7409 -1.3001  2.3855
  566TIP3   OH223112   6.523   4.467  14.894  0.1238 -0.1728  0.2303
  566TIP3    H123113   6.552   4.381  14.925 -1.5402 -1.5257 -1.7343
  566TIP3    H223114   6.598   4.502  14.846  0.4803 -0.9358  0.2286
  567TIP3   OH223115   4.979   5.463  15.728 -0.0525  0.1300 -0.1844
  567TIP3    H123116   5.006   5.388  15.674 -0.0562  0.4976 -0.6996
  567TIP3    H223117   5.057   5.519  15.732 -0.0618  0.1194  0.1674
  568TIP3   OH223118   4.854   6.585   0.734  0.3292 -0.2111  0.1308
  568TIP3    H123119   4.848   6.644   0.660 -1.1888  0.3895  0.6844
  568TIP3    H223120   4.896   6.637   0.803  0.2322 -0.2111  0.1912
  569TIP3   OH223121   2.299   0.932   5.516  0.5252 -0.4697 -0.2711
  569TIP3    H123122   2.229   0.990   5.544  0.3628 -1.2433  1.0170
  569TIP3    H223123   2.337   0.899   5.598  1.7563 -0.8051 -0.9558
  570TIP3   OH223124   2.813   1.142  13.841  0.4162  0.5104 -0.0581
  570TIP3    H123125   2.888   1.102  13.885  0.0808  0.6323  0.6465
  570TIP3    H223126   2.850   1.186  13.765  0.9236 -0.2836 -0.2879
  571TIP3   OH223127   6.340   3.110   5.056  0.4960 -0.0305 -0.0685
  571TIP3    H123128   6.258   3.140   5.017 -0.1945  0.3000  1.5648
  571TIP3    H223129   6.363   3.031   5.007 -2.6600 -2.1926  1.6194
  572TIP3   OH223130   0.596   4.600   3.181  0.5738  0.0493 -0.1565
  572TIP3    H123131   0.652   4.653   3.238  1.5805 -0.8162 -0.3024
  572TIP3    H223132   0.526   4.659   3.154  1.7817  1.3916 -0.5080
  573TIP3   OH223133   4.557   1.893  12.279  0.4103  0.1749  0.1215
  573TIP3    H123134   4.470   1.933  12.276  0.9664  1.5867  1.6079
  573TIP3    H223135   4.590   1.901  12.189 -1.5017 -1.7157 -0.8476
  574TIP3   OH223136   2.399   5.962  11.373  0.7839 -0.2482 -0.1203
  574TIP3    H123137   2.331   5.954  11.306  1.5027 -2.4479 -0.6781
  574TIP3    H223138   2.365   6.027  11.434 -1.4642 -0.7148 -0.7813
  575TIP3   OH223139   2.879   6.238   4.395  0.1278 -0.3946 -0.3224
  575TIP3    H123140   2.901   6.146   4.378 -0.0448 -0.4774 -0.0956
  575TIP3    H223141   2.949   6.287   4.351  0.4155 -0.6410 -0.1496
  576TIP3   OH223142   1.078   3.081  16.074  0.0686  0.1243  0.3610
  576TIP3    H123143   1.073   2.986  16.081  2.1941 -0.2584 -1.7262
  576TIP3    H223144   1.057   3.114  16.161  0.5703 -2.3245  1.4709
  577TIP3   OH223145   2.714   3.253   1.918 -0.7657  0.2077 -0.1055
  577TIP3    H123146   2.796   3.295   1.943 -0.3130 -0.0289 -1.1486
  577TIP3    H223147   2.731   3.217   1.831 -2.4242  1.4512 -1.0110
  578TIP3   OH223148   3.699   0.131  11.623 -0.2838  0.0934 -0.3029
  578TIP3    H123149   3.663   0.088  11.701  0.8061  1.3165  0.9322
  578TIP3    H223150   3.659   0.218  11.623 -0.3874  0.0541 -1.2101
  579TIP3   OH223151   1.850   3.388   1.435 -0.1567 -0.5566  1.1982
  579TIP3    H123152   1.785   3.372   1.367 -1.3817  3.6548  1.0893
  579TIP3    H223153   1.815   3.346   1.513 -1.8720 -0.2959  0.6093
  580TIP3   OH223154   2.175   5.006  15.688 -0.3160 -0.1723 -0.0373
  580TIP3    H123155   2.155   4.944  15.758  0.0023 -0.6089 -0.3275
  580TIP3    H223156   2.234   4.958  15.630 -0.4897  0.2255 -0.5457
  581TIP3   OH223157   5.015   4.290  14.184 -0.1435  0.2775 -0.3662
  581TIP3    H123158   5.022   4.381  14.214  0.7591 -0.1191  0.6786
  581TIP3    H223159   4.924   4.266  14.204 -0.2036  0.7436 -0.0576
  582TIP3   OH223160   5.776   2.960   1.179  0.5554  0.1745  0.0474
  582TIP3    H123161   5.789   2.877   1.224  1.0678  0.0370 -0.3397
  582TIP3    H223162   5.737   2.937   1.095 -1.2999  0.5074  0.7704
  583TIP3   OH223163   0.787   2.951  12.462 -0.7719  0.2479  0.4850
  583TIP3    H123164   0.745   3.036  12.478  1.7810  1.6608  0.1716
  583TIP3    H223165   0.880   2.968  12.472 -0.0618 -2.2189 -1.0306
  584TIP3   OH223166   0.866   0.814  14.882 -0.1162 -0.0205 -0.3445
  584TIP3    H123167   0.844   0.737  14.935  1.2036  0.6075  1.2140
  584TIP3    H223168   0.948   0.790  14.840  0.4142  0.5846  0.3207
  585TIP3   OH223169   4.723   5.594  14.281  0.3657 -0.6394  0.5823
  585TIP3    H123170   4.807   5.578  14.239  0.9656  0.5150  1.3032
  585TIP3    H223171   4.741   5.661  14.348 -0.9509 -0.9697  1.3140
  586TIP3   OH223172   2.526   4.325   0.296 -0.4462 -0.3864 -0.2733
  586TIP3    H123173   2.437   4.291   0.290 -1.0332  0.3917  2.4166
  586TIP3    H223174   2.519   4.416   0.267  0.0178 -0.9357 -2.2772
  587TIP3   OH223175   1.932   3.453  11.463  0.6811  0.2088 -0.4438
  587TIP3    H123176   1.934   3.484  11.373 -1.1868  0.2271 -0.5295
  587TIP3    H223177   1.911   3.531  11.515  1.2274  0.1004 -0.0564
  588TIP3   OH223178   0.419   1.373  13.912  0.2460  0.3691  0.4101
  588TIP3    H123179   0.443   1.335  13.828 -0.6613  0.8656 -0.0825
  588TIP3    H223180   0.455   1.313  13.977 -1.7491 -1.7271 -0.3236
  589TIP3   OH223181   6.607   6.730  14.543  0.1078  0.2470  0.2139
  589TIP3    H123182   6.653   6.695  14.619 -0.5267 -3.3508 -0.8521
  589TIP3    H223183   6.515   6.707  14.558  0.1637 -2.0952 -2.2309
  590TIP3   OH223184   0.688   3.156  10.964  0.1165 -0.4445  0.0177
  590TIP3    H123185   0.731   3.167  10.879  0.7744  0.4960  0.4592
  590TIP3    H223186   0.599   3.130  10.943  0.5048 -1.0655 -0.9454
  591TIP3   OH223187   5.589   3.311   3.284 -0.3018 -0.3770  0.6507
  591TIP3    H123188   5.524   3.283   3.219 -0.6782  0.5155  0.6401
  591TIP3    H223189   5.612   3.230   3.330 -0.7810 -0.8474  0.0813
  592TIP3   OH223190   3.182   1.168  16.482  0.0541  0.6053  0.4718
  592TIP3    H123191   3.189   1.117  16.401 -1.5744 -0.8793  1.1887
  592TIP3    H223192   3.132   1.245  16.457  1.6035  1.3834 -0.3991
  593TIP3   OH223193   2.785   6.804  16.935 -0.1080 -0.2226  0.4238
  593TIP3    H123194   2.786   6.709  16.950  0.4702 -0.2142  0.4626
  593TIP3    H223195   2.876   6.831  16.944 -0.1919  0.2638 -0.1012
  594TIP3   OH223196   2.030   2.487   4.859  0.0111 -0.0028 -0.2756
  594TIP3    H123197   2.045   2.406   4.812 -0.3068 -0.4586  0.3929
  594TIP3    H223198   1.973   2.538   4.802  0.0026 -0.3533 -0.5818
  595TIP3   OH223199   3.498   4.722  15.929 -1.0899 -0.7864 -0.3708
  595TIP3    H123200   3.406   4.701  15.948 -1.1427 -1.9313 -1.7566
  595TIP3    H223201   3.546   4.642  15.951 -0.4734 -0.3496 -0.0899
  596TIP3   OH223202   0.616   4.801   1.884  0.4578 -0.1689 -0.0682
  596TIP3    H123203   0.583   4.805   1.973  0.7063 -2.5787  0.1738
  596TIP3    H223204   0.630   4.893   1.860 -2.2578  0.7207  1.3303
  597TIP3   OH223205   0.721   1.549   3.689  0.0173 -0.3241  0.2906
  597TIP3    H123206   0.723   1.614   3.619 -3.3352 -0.1266  0.2287
  597TIP3    H223207   0.802   1.500   3.678  0.4514  0.8261 -2.6071
  598TIP3   OH223208   5.434   5.363  10.978  0.1586  0.4815  0.6358
  598TIP3    H123209   5.356   5.392  11.026 -1.0491  2.7108 -2.3693
  598TIP3    H223210   5.400   5.326  10.896  2.2127  0.6854 -0.3791
  599TIP3   OH223211   5.417   1.572   1.593 -0.4598 -0.1781 -0.9253
  599TIP3    H123212   5.427   1.609   1.681  0.3222  0.3330 -1.2115
  599TIP3    H223213   5.474   1.496   1.592 -0.7877 -0.4286 -0.8673
  600TIP3   OH223214   0.889   3.788  13.271  0.0351  0.6688  0.0962
  600TIP3    H123215   0.810   3.829  13.235 -2.5475 -1.7932  2.3646
  600TIP3    H223216   0.911   3.841  13.347 -2.4414 -1.0366  2.1974
  601TIP3   OH223217   6.542   1.444  10.702 -0.3162  0.1874  0.3031
  601TIP3    H123218   6.589   1.379  10.754  0.1414 -0.0278 -0.3684
  601TIP3    H223219   6.469   1.397  10.663  0.0878  0.0356 -0.2847
  602TIP3   OH223220   3.365   6.119  12.121 -0.9399 -0.3908 -0.0448
  602TIP3    H123221   3.307   6.147  12.049  0.1189  0.4505 -0.6016
  602TIP3    H223222   3.449   6.160  12.101 -0.7099  0.1522  1.8776
  603TIP3   OH223223   5.758   5.341   4.185 -0.2336  0.2723 -0.2402
  603TIP3    H123224   5.747   5.402   4.258  1.1205 -0.3714  0.5498
  603TIP3    H223225   5.760   5.254   4.226  0.3717 -0.1129 -1.0529
  604TIP3   OH223226   2.060   5.208   0.132 -1.1307  1.2237 -0.0439
  604TIP3    H123227   1.987   5.163   0.088  0.6005  1.6231 -3.7494
  604TIP3    H223228   2.084   5.151   0.204 -2.1254 -1.3367 -1.5893
  605TIP3   OH223229   4.355   4.927   4.468 -0.1885  0.1802 -0.3132
  605TIP3    H123230   4.319   4.896   4.385 -2.2318 -0.5843  0.7981
  605TIP3    H223231   4.418   4.859   4.494 -2.5033 -1.7031  0.6797
  606TIP3   OH223232   3.830   4.704   3.787  0.1616  0.3904 -0.5684
  606TIP3    H123233   3.915   4.661   3.790 -0.1362 -0.1467  0.1005
  606TIP3    H223234   3.813   4.731   3.877 -1.2160 -1.1537 -0.3201
  607TIP3   OH223235   0.861   4.550   1.611 -0.2999 -0.4960 -0.0791
  607TIP3    H123236   0.944   4.593   1.632 -1.3736  2.7002 -1.7474
  607TIP3    H223237   0.887   4.469   1.568  2.0220  0.7812 -1.3003
  608TIP3   OH223238   0.504   4.344   1.670  0.4181 -0.0913 -0.1285
  608TIP3    H123239   0.499   4.439   1.663  0.3885 -0.1554 -1.0670
  608TIP3    H223240   0.428   4.319   1.723  1.5414  0.5654  1.9147
  609TIP3   OH223241   1.837   3.880   2.800  0.0699 -0.2359 -0.1537
  609TIP3    H123242   1.758   3.919   2.762 -0.8309 -2.1151 -0.3188
  609TIP3    H223243   1.909   3.933   2.766 -1.0557  0.9997 -0.6848
  610TIP3   OH223244   4.092   3.017   4.781 -0.0559  0.0672  0.0098
  610TIP3    H123245   4.073   2.923   4.777  1.1541 -0.2773  1.2215
  610TIP3    H223246   4.156   3.031   4.712  1.3373 -0.4727  1.1301
  611TIP3   OH223247   3.715   4.971   0.432 -0.3540 -0.3753 -0.1615
  611TIP3    H123248   3.631   4.926   0.439  0.0684 -1.0781  0.6989
  611TIP3    H223249   3.702   5.054   0.477 -0.2406 -1.0443  1.1647
  612TIP3   OH223250   4.531   0.344   5.324  0.2972  0.0612  0.0046
  612TIP3    H123251   4.615   0.319   5.285 -0.3368 -0.4325 -1.0974
  612TIP3    H223252   4.535   0.309   5.414  1.1413 -0.2365 -0.1417
  613TIP3   OH223253   2.825   0.742  15.752  0.1874 -0.5816 -0.3086
  613TIP3    H123254   2.902   0.789  15.782  0.1006 -0.2639 -0.5780
  613TIP3    H223255   2.758   0.761  15.818 -0.3346  1.0346 -1.2520
  614TIP3   OH223256   0.498   0.372  13.596 -0.6151  0.1648  0.1336
  614TIP3    H123257   0.563   0.442  13.589 -0.0951 -0.3164  0.0749
  614TIP3    H223258   0.481   0.365  13.690 -0.6981  0.3947  0.1370
  615TIP3   OH223259   2.672   5.492  17.079  0.6785 -0.0661 -0.7327
  615TIP3    H123260   2.603   5.445  17.125 -0.1087  1.2914 -0.4753
  615TIP3    H223261   2.734   5.424  17.052  0.7581 -1.0072  1.6223
  616TIP3   OH223262   5.705   5.582  14.149  0.1218  0.6348 -0.8999
  616TIP3    H123263   5.621   5.628  14.153  1.0284  2.6774 -2.7972
  616TIP3    H223264   5.700   5.530  14.069  0.4498  0.3233 -0.7189
  617TIP3   OH223265   2.728   1.514  11.397 -0.2124  0.3498  0.1039
  617TIP3    H123266   2.819   1.512  11.427 -0.5712  1.7528  1.3622
  617TIP3    H223267   2.677   1.484  11.472 -1.0039  2.3494  0.4100
  618TIP3   OH223268   6.718   3.846   1.072  0.4383 -0.3967  0.4095
  618TIP3    H123269   6.648   3.907   1.093  0.7071 -0.4198  1.3868
  618TIP3    H223270   6.798   3.898   1.075  0.6661 -0.7887  1.2318
  619TIP3   OH223271   0.121   1.319   4.097  0.3542  0.0875  0.5638
  619TIP3    H123272   0.044   1.374   4.113  0.2613 -0.3232  1.6572
  619TIP3    H223273   0.177   1.334   4.173 -0.1242 -2.0346  1.4037
  620TIP3   OH223274   3.146   1.713   0.138  0.1281 -0.0503 -0.1481
  620TIP3    H123275   3.115   1.779   0.200  0.3029 -0.8589  0.8373
  620TIP3    H223276   3.234   1.691   0.169 -0.3076 -1.4667  0.1639
  621TIP3   OH223277   1.945   5.927  11.298  0.0460 -0.0976  0.2453
  621TIP3    H123278   1.933   5.902  11.206  0.0093  2.7139 -0.5984
  621TIP3    H223279   1.919   5.849  11.347 -2.3263 -0.9150 -2.0540
  622TIP3   OH223280   4.600   4.898   4.878  0.1369 -0.2170 -0.6980
  622TIP3    H123281   4.677   4.945   4.910 -0.9032  0.0708  1.5812
  622TIP3    H223282   4.635   4.829   4.822  1.9337  0.8570 -0.9679
  623TIP3   OH223283   2.632   6.170   2.975  0.1597  0.4585  0.2193
  623TIP3    H123284   2.711   6.192   2.925 -0.1368  2.0993  0.4377
  623TIP3    H223285   2.642   6.217   3.058 -1.6204  1.7472 -0.2410
  624TIP3   OH223286   4.983   5.332   5.305  0.0365  0.1655 -0.0222
  624TIP3    H123287   5.037   5.352   5.381  2.2394 -1.7897 -0.9606
  624TIP3    H223288   4.933   5.254   5.330  1.6141 -1.1826 -0.8623
  625TIP3   OH223289   4.312   4.783   2.098  0.0263  0.3321  0.2986
  625TIP3    H123290   4.276   4.697   2.120 -0.2534  1.0936  3.1592
  625TIP3    H223291   4.403   4.780   2.128 -0.4260  1.4965  1.9198
  626TIP3   OH223292   1.645   6.391   3.401 -0.5442  0.3472 -0.1090
  626TIP3    H123293   1.717   6.453   3.388 -0.3309  0.4011  1.1845
  626TIP3    H223294   1.608   6.379   3.314 -0.0288  1.6214 -0.5344
  627TIP3   OH223295   5.564   6.344  11.402 -0.0265 -0.1683 -0.5887
  627TIP3    H123296   5.551   6.355  11.307  2.4034 -1.8864 -1.2275
  627TIP3    H223297   5.491   6.290  11.430 -1.1746  0.9428 -1.2956
  628TIP3   OH223298   3.414   2.605  16.066  0.6752  0.4388 -0.8810
  628TIP3    H123299   3.454   2.692  16.072  1.3958  0.0447  0.1051
  628TIP3    H223300   3.486   2.544  16.080  0.0188 -0.3086 -0.7008
  629TIP3   OH223301   0.252   6.716   1.661  0.0054 -0.3851  0.2052
  629TIP3    H123302   0.225   6.728   1.752  0.8343  1.0393  0.3076
  629TIP3    H223303   0.200   6.780   1.613  0.4618 -0.2513 -0.1205
  630TIP3   OH223304   1.161   3.223   2.504  0.4560 -0.2836 -0.2114
  630TIP3    H123305   1.160   3.214   2.409 -0.2464  2.1928 -0.5181
  630TIP3    H223306   1.099   3.294   2.522  1.3288  0.0120  1.9966
  631TIP3   OH223307   3.013   6.116   1.567  0.0683  0.6480  0.0059
  631TIP3    H123308   2.941   6.055   1.550 -0.0073  0.8102 -0.2613
  631TIP3    H223309   2.970   6.201   1.581  0.2486  0.8744 -0.7966
  632TIP3   OH223310   1.845   3.156   2.804 -0.6608 -0.2467 -0.0205
  632TIP3    H123311   1.847   3.234   2.859 -1.3373 -1.1977  1.4013
  632TIP3    H223312   1.893   3.091   2.853 -0.2937 -0.8143 -1.0937
  633TIP3   OH223313   3.501   4.526  14.783 -0.0683 -0.5615 -0.1504
  633TIP3    H123314   3.520   4.475  14.705 -1.8880  0.3063 -1.2412
  633TIP3    H223315   3.522   4.616  14.758 -2.2288 -0.0312 -0.3165
  634TIP3   OH223316   0.606   0.907   3.115 -0.2338  0.3072 -0.1666
  634TIP3    H123317   0.564   0.891   3.200 -0.1632  4.9545  1.0059
  634TIP3    H223318   0.599   0.823   3.069 -1.9675 -1.9237  3.6512
  635TIP3   OH223319   3.500   4.523  15.060 -0.8151 -0.8377  0.1959
  635TIP3    H123320   3.570   4.465  15.090  1.6871  1.6722 -0.3265
  635TIP3    H223321   3.513   4.531  14.966 -0.2301  1.4192  0.3860
  636TIP3   OH223322   2.496   4.659  12.837  0.0230 -0.2574  0.3380
  636TIP3    H123323   2.456   4.607  12.768 -0.3616 -0.0122  0.3765
  636TIP3    H223324   2.588   4.666  12.811  0.2155 -1.4285  0.6167
  637TIP3   OH223325   5.502   1.848  11.109  0.6284 -0.5989  0.1373
  637TIP3    H123326   5.442   1.922  11.101  0.7472 -0.4896  0.2655
  637TIP3    H223327   5.558   1.854  11.032  0.0501 -1.0841 -0.3331
  638TIP3   OH223328   6.524   6.120  15.085 -0.3343  0.3132 -0.2024
  638TIP3    H123329   6.524   6.041  15.140  1.5721  0.4364  0.0396
  638TIP3    H223330   6.540   6.192  15.147 -3.1723  1.0976 -0.2464
  639TIP3   OH223331   5.636   2.988   0.867  0.1773  0.1976 -0.3209
  639TIP3    H123332   5.718   3.002   0.820  0.1796 -2.3525 -1.2152
  639TIP3    H223333   5.593   3.074   0.866  3.8170  2.3630  2.3657
  640TIP3   OH223334   5.023   5.849  15.942  0.4445 -0.1530 -0.1661
  640TIP3    H123335   4.966   5.810  16.008  0.3984  0.0189 -0.1034
  640TIP3    H223336   5.110   5.848  15.981  0.3584  0.2828  0.0482
  641TIP3   OH223337   0.956   4.620   5.091 -0.6369  0.0551 -0.4653
  641TIP3    H123338   0.870   4.640   5.127  0.1470  0.1618  1.4524
  641TIP3    H223339   0.954   4.525   5.076 -1.6146  0.2791 -2.0212
  642TIP3   OH223340   6.259   3.304   5.773  0.7976 -0.5474 -0.0322
  642TIP3    H123341   6.325   3.270   5.834  1.1568 -0.9084 -0.6189
  642TIP3    H223342   6.205   3.229   5.750  0.1613 -0.2534  0.4478
  643TIP3   OH223343   4.505   6.700   1.845 -0.1918  0.1840 -0.2647
  643TIP3    H123344   4.488   6.635   1.913  0.3680  0.3657  0.0576
  643TIP3    H223345   4.587   6.670   1.805 -0.7022 -0.1145 -1.0966
  644TIP3   OH223346   4.905   3.159  14.544 -0.4028 -0.1603  0.1063
  644TIP3    H123347   4.956   3.167  14.463 -0.0010  2.5421  0.5334
  644TIP3    H223348   4.818   3.192  14.520  0.3086  2.7631  1.1904
  645TIP3   OH223349   2.257   0.050   2.546  0.3540  0.0273 -0.2590
  645TIP3    H123350   2.218   0.051   2.634  0.1458  0.1248 -0.3531
  645TIP3    H223351   2.318   0.124   2.546 -0.1123  0.4145 -0.4086
  646TIP3   OH223352   6.630   1.661  11.448 -0.1519  0.3834  0.5603
  646TIP3    H123353   6.659   1.571  11.456 -0.9620 -0.1394 -1.6397
  646TIP3    H223354   6.546   1.655  11.401  0.1301  2.2984 -0.2812
  647TIP3   OH223355   1.535   2.450  14.267 -0.8184 -0.0064 -0.6293
  647TIP3    H123356   1.474   2.408  14.329  1.3258  0.0525  1.6957
  647TIP3    H223357   1.524   2.544  14.283  1.7280  0.0023  1.9782
  648TIP3   OH223358   0.642   6.067   3.870  0.0814  0.5213  0.0231
  648TIP3    H123359   0.623   6.108   3.955 -0.5918 -0.2484  0.2569
  648TIP3    H223360   0.619   6.133   3.805 -1.6003  0.2988  0.3684
  649TIP3   OH223361   0.915   2.957   3.501  0.1371  0.1756 -0.2616
  649TIP3    H123362   0.879   3.002   3.578 -0.1056 -1.0258  0.3562
  649TIP3    H223363   1.008   2.981   3.502  0.7905 -1.9369  2.0720
  650TIP3   OH223364   3.423   5.011   4.710 -0.2960 -0.0384 -0.1131
  650TIP3    H123365   3.428   4.915   4.709 -0.4964 -0.0488 -0.2595
  650TIP3    H223366   3.488   5.039   4.645  1.4044  0.0132  1.5324
  651TIP3   OH223367   5.792   4.358  11.505 -0.4319  0.4694 -0.2412
  651TIP3    H123368   5.876   4.331  11.541 -1.2996 -0.5004  1.1504
  651TIP3    H223369   5.814   4.416  11.431  1.4372  2.7190  1.9153
  652TIP3   OH223370   0.238   6.621   4.118 -0.2604  0.1185 -0.1987
  652TIP3    H123371   0.153   6.631   4.161  0.1276 -0.6393  0.7881
  652TIP3    H223372   0.237   6.532   4.085  0.3009 -0.0188  0.1553
  653TIP3   OH223373   2.267   1.867  13.302 -0.1920 -0.2589 -0.6336
  653TIP3    H123374   2.315   1.950  13.294 -2.3508  1.1545  0.2918
  653TIP3    H223375   2.178   1.893  13.324 -0.4376 -2.8960  2.1474
  654TIP3   OH223376   3.324   5.675   4.668 -0.2875 -0.0831 -0.3422
  654TIP3    H123377   3.266   5.745   4.639 -0.8505 -1.0851 -1.7287
  654TIP3    H223378   3.392   5.720   4.718 -1.2775  1.3095 -0.1901
  655TIP3   OH223379   5.473   4.366  17.076  0.2466 -0.3588 -0.0134
  655TIP3    H123380   5.402   4.360  17.139  0.8282 -1.5901  0.5605
  655TIP3    H223381   5.439   4.421  17.006 -1.4739 -1.3538 -0.0091
  656TIP3   OH223382   5.127   3.631   0.252 -0.0087  0.1837  0.8013
  656TIP3    H123383   5.140   3.657   0.343 -1.5925  0.1850  1.0389
  656TIP3    H223384   5.154   3.540   0.249  1.7083  0.6501  0.8607
  657TIP3   OH223385   5.019   2.851  14.532  0.9681 -0.0585 -0.1923
  657TIP3    H123386   5.031   2.775  14.588  1.1312 -0.5001 -0.8172
  657TIP3    H223387   5.098   2.904  14.544  0.6056  0.3081  0.6746
  658TIP3   OH223388   6.484   4.749  11.901  0.1823 -0.1937  0.2592
  658TIP3    H123389   6.481   4.704  11.985 -0.9956 -0.6334 -0.0067
  658TIP3    H223390   6.512   4.682  11.838  0.4608 -0.0208  0.1953
  659TIP3   OH223391   2.054   6.516   5.420 -0.0067  0.1829  0.1305
  659TIP3    H123392   2.093   6.494   5.504  0.4611  0.6697  0.0476
  659TIP3    H223393   2.097   6.458   5.357  1.1734  1.2292 -0.0776
  660TIP3   OH223394   6.738   6.699   3.761  0.2205  0.2402  0.3373
  660TIP3    H123395   6.669   6.678   3.824  0.7732  1.6806  1.4863
  660TIP3    H223396   6.816   6.658   3.798  0.1862 -0.5439 -0.4389
  661TIP3   OH223397   1.469   6.642   0.383  1.1387 -0.0815 -0.1665
  661TIP3    H123398   1.564   6.643   0.366  1.8513  1.0727  3.0844
  661TIP3    H223399   1.448   6.733   0.405 -0.6637 -0.4115 -0.3728
  662TIP3   OH223400   3.378   4.149  16.044 -0.5122 -0.1442 -0.2011
  662TIP3    H123401   3.374   4.203  15.965 -2.0635  1.1078  0.6759
  662TIP3    H223402   3.443   4.192  16.099  0.0718 -0.6352 -0.4826
  663TIP3   OH223403   0.023   5.761   5.320 -0.4445 -0.0707 -0.2261
  663TIP3    H123404   0.109   5.769   5.280  0.3304 -0.5228  1.2783
  663TIP3    H223405   0.004   5.667   5.321 -0.1443 -0.1425  1.0091
  664TIP3   OH223406   2.077   0.809   4.700  0.0247 -0.2781 -0.1393
  664TIP3    H123407   2.121   0.800   4.785  1.7298  0.4798 -0.9088
  664TIP3    H223408   2.034   0.894   4.704 -0.8182 -0.7056  0.3358
  665TIP3   OH223409   6.678   2.073   0.896  0.3325 -0.7025  0.0310
  665TIP3    H123410   6.631   2.018   0.959  0.9580 -0.4388  0.7479
  665TIP3    H223411   6.684   2.020   0.817 -2.4904 -0.2157 -0.6292
  666TIP3   OH223412   4.776   3.907  13.126  0.0300 -0.2225  0.2784
  666TIP3    H123413   4.736   3.879  13.045  0.1575  1.5980 -0.4715
  666TIP3    H223414   4.704   3.909  13.190 -0.6132  0.7040 -0.4433
  667TIP3   OH223415   1.601   4.960   3.199  0.2619 -0.1609  0.6042
  667TIP3    H123416   1.507   4.965   3.181  0.1458 -0.8753  0.9515
  667TIP3    H223417   1.612   4.876   3.245  1.3088 -0.8608 -0.8556
  668TIP3   OH223418   6.213   0.603   3.635  0.4545  0.2529 -0.2117
  668TIP3    H123419   6.177   0.573   3.551 -2.1824 -0.9526  1.2064
  668TIP3    H223420   6.248   0.523   3.675  0.0773  0.4718  0.5579
  669TIP3   OH223421   5.384   1.471   1.181 -0.8980  0.1434  0.2434
  669TIP3    H123422   5.459   1.530   1.169 -1.1292  0.6047  1.0086
  669TIP3    H223423   5.307   1.525   1.166 -1.0896 -0.3389 -0.5696
  670TIP3   OH223424   5.277   3.821   2.324  0.2352 -0.0900 -0.1112
  670TIP3    H123425   5.325   3.875   2.261  1.5660 -2.3685 -1.1964
  670TIP3    H223426   5.208   3.779   2.274 -1.6154  1.4875  0.9925
  671TIP3   OH223427   1.276   2.541   5.440  0.6943  0.2721  0.0172
  671TIP3    H123428   1.247   2.533   5.530  1.0021 -2.4354 -0.0163
  671TIP3    H223429   1.365   2.506   5.440  0.9353  0.8073 -1.2297
  672TIP3   OH223430   2.051   3.492   1.278  0.2037 -0.2617  0.3354
  672TIP3    H123431   1.993   3.463   1.348  2.5263  0.2207  2.6087
  672TIP3    H223432   2.005   3.565   1.237 -0.6362  0.4060  2.3466
  673TIP3   OH223433   0.223   3.806   1.447  0.4031 -0.0227  0.0044
  673TIP3    H123434   0.146   3.754   1.426 -0.8830  1.6327  0.3931
  673TIP3    H223435   0.236   3.795   1.541  1.2885 -1.1072 -0.2300
  674TIP3   OH223436   2.489   2.163  11.501  0.1418  0.1178  0.6237
  674TIP3    H123437   2.506   2.215  11.422  0.7531 -0.0917  0.6099
  674TIP3    H223438   2.522   2.076  11.479 -0.6780 -0.2227  0.7284
  675TIP3   OH223439   0.600   6.135   5.870 -1.0455 -0.6468  0.2215
  675TIP3    H123440   0.582   6.179   5.952 -1.1662 -0.8231  0.2917
  675TIP3    H223441   0.676   6.180   5.834 -2.8581  1.5394 -1.1298
  676TIP3   OH223442   4.905   1.093   3.319  0.0358  0.2839  0.3647
  676TIP3    H123443   4.926   1.185   3.336 -0.4577  0.8248 -1.6467
  676TIP3    H223444   4.982   1.059   3.273 -0.2794  0.0385  0.0089
  677TIP3   OH223445   0.014   5.064  16.173 -0.5983  0.0512  0.2118
  677TIP3    H123446  -0.081   5.054  16.172 -0.4440 -1.6374 -0.8185
  677TIP3    H223447   0.029   5.139  16.230 -2.6299  1.3704 -0.8637
  678TIP3   OH223448   4.220   4.575  14.821 -0.2306 -0.1637 -0.1092
  678TIP3    H123449   4.187   4.552  14.735 -0.6592  0.4689 -0.1193
  678TIP3    H223450   4.303   4.619  14.804  1.0469 -2.4038 -0.0468
  679TIP3   OH223451   0.879   1.201   4.173  0.7439  0.8831 -0.1865
  679TIP3    H123452   0.919   1.121   4.141 -0.1736  0.2444  0.2128
  679TIP3    H223453   0.927   1.272   4.130  1.0412  0.1018 -1.1594
  680TIP3   OH223454   4.228   5.726  13.299  0.4280 -0.4981 -0.1770
  680TIP3    H123455   4.295   5.669  13.262  0.9957  0.4502 -0.6538
  680TIP3    H223456   4.277   5.799  13.336 -0.2087 -0.8923  1.5137
  681TIP3   OH223457   0.455   0.080   3.678  0.5038  0.0386  0.0779
  681TIP3    H123458   0.393   0.138   3.721  1.4017 -0.7869  2.6506
  681TIP3    H223459   0.440   0.094   3.584 -1.7609  1.7119  0.6131
  682TIP3   OH223460   4.320   3.830  14.449 -0.1665  0.3706  0.5484
  682TIP3    H123461   4.327   3.830  14.545  1.1450 -1.1754  0.5026
  682TIP3    H223462   4.233   3.794  14.431 -0.5680  1.0168  1.1369
  683TIP3   OH223463   5.170   4.558  12.016  0.1878 -0.2059 -0.2909
  683TIP3    H123464   5.243   4.620  12.016 -0.1716  0.2253  0.0375
  683TIP3    H223465   5.194   4.493  12.082  0.3518 -0.1508 -0.2970
  684TIP3   OH223466   4.475   5.450  17.080 -0.6370 -0.1149 -0.3731
  684TIP3    H123467   4.533   5.471  17.154 -0.7119 -0.8566 -0.0929
  684TIP3    H223468   4.531   5.456  17.003 -0.8207  1.7903 -0.3930
  685TIP3   OH223469   6.683   0.065   3.151 -0.0016 -0.6342 -0.2301
  685TIP3    H123470   6.775   0.065   3.177  0.0160  0.1276 -0.2508
  685TIP3    H223471   6.672   0.148   3.103 -0.6536 -0.7971 -0.3769
  686TIP3   OH223472   0.322   2.701   3.435 -0.3638 -0.1949 -0.2867
  686TIP3    H123473   0.238   2.729   3.472 -0.5139 -1.0877  0.0791
  686TIP3    H223474   0.378   2.779   3.442 -1.0819  0.3380 -0.3091
  687TIP3   OH223475   0.267   0.631   0.790 -0.1889  0.1353 -0.4237
  687TIP3    H123476   0.224   0.567   0.847  0.8715 -0.9175 -0.7544
  687TIP3    H223477   0.309   0.578   0.722 -0.1541  1.2683 -1.3070
  688TIP3   OH223478   4.311   5.103   4.858 -0.3555 -0.5192  0.0515
  688TIP3    H123479   4.379   5.043   4.890 -1.3369 -0.2826  2.8416
  688TIP3    H223480   4.345   5.190   4.879 -0.9524 -0.3407  0.2973
  689TIP3   OH223481   6.810   4.484  15.037  0.1262  0.3069  0.0735
  689TIP3    H123482   6.884   4.484  14.976  1.2739 -1.4178  1.3316
  689TIP3    H223483   6.792   4.576  15.053 -0.4328  0.8168 -3.0340
  690TIP3   OH223484   3.524   6.454   0.306 -0.2988  0.6737  0.6230
  690TIP3    H123485   3.602   6.479   0.256 -0.7820 -0.2152 -0.6296
  690TIP3    H223486   3.559   6.420   0.388  0.8676 -1.9872 -0.8437
  691TIP3   OH223487   6.760   3.113   0.467  0.2821 -0.7604  0.2432
  691TIP3    H123488   6.792   3.024   0.483  1.5503 -0.0119  2.2610
  691TIP3    H223489   6.801   3.166   0.535 -1.9246  1.0645  0.2833
  692TIP3   OH223490   3.739   3.638  16.138  0.5250  0.0202  0.6109
  692TIP3    H123491   3.765   3.656  16.047  1.2100  0.1566  0.8304
  692TIP3    H223492   3.644   3.648  16.137  0.4503 -0.6147 -0.2337
  693TIP3   OH223493   5.583   0.723  12.567 -0.1953 -0.3169  0.0760
  693TIP3    H123494   5.628   0.773  12.498 -0.4715 -0.1114  0.0430
  693TIP3    H223495   5.654   0.691  12.623  0.0093 -0.1956 -0.1120
  694TIP3   OH223496   1.500   3.630  13.654 -0.2310  0.0181 -0.1106
  694TIP3    H123497   1.532   3.551  13.697  1.4337  0.3345 -0.7108
  694TIP3    H223498   1.553   3.701  13.692 -1.8094  0.9115  0.5542
  695TIP3   OH223499   5.910   0.677  14.339  0.3242  0.5168  0.6918
  695TIP3    H123500   5.846   0.729  14.387  0.4285 -0.0729  1.5012
  695TIP3    H223501   5.982   0.736  14.321 -0.8007  1.4536 -1.0462
  696TIP3   OH223502   4.741   4.554   4.344 -0.3608  0.3985 -0.3708
  696TIP3    H123503   4.813   4.570   4.283  0.8542  1.9463  1.3610
  696TIP3    H223504   4.748   4.462   4.367  2.1857  0.8517  1.0209
  697TIP3   OH223505   5.042   3.768   1.775  0.2709 -0.3392  0.3422
  697TIP3    H123506   5.022   3.834   1.842  0.2909  0.9432 -0.8826
  697TIP3    H223507   4.964   3.713   1.773 -0.2635  0.3831  0.5283
  698TIP3   OH223508   0.283   3.175  15.680  0.9830 -0.0001  0.9465
  698TIP3    H123509   0.329   3.097  15.710  0.2988 -0.7895  0.0113
  698TIP3    H223510   0.330   3.204  15.602  0.7218 -0.0058  0.7825
  699TIP3   OH223511   0.559   0.032  14.673 -0.2630 -0.0250  0.3714
  699TIP3    H123512   0.575  -0.059  14.696  0.7424  0.5940  2.3129
  699TIP3    H223513   0.479   0.030  14.620 -0.9909 -1.9007  1.4685
  700TIP3   OH223514   5.104   3.531   4.727 -0.1561  0.0462  0.1117
  700TIP3    H123515   5.176   3.588   4.700  0.9069 -0.2633  2.0811
  700TIP3    H223516   5.057   3.511   4.646  0.3880  2.3882 -0.8721
  701TIP3   OH223517   5.495   5.952   1.648 -0.4458  0.4401  0.3273
  701TIP3    H123518   5.540   5.912   1.723 -0.7079  0.2823  0.4020
  701TIP3    H223519   5.455   5.878   1.602  0.9984  0.3335 -0.8574
  702TIP3   OH223520   5.472   0.890   5.633 -0.2558  0.2796 -0.7708
  702TIP3    H123521   5.533   0.922   5.699  0.5422  0.5743 -1.6203
  702TIP3    H223522   5.472   0.795   5.644 -0.1222  0.3267 -0.3497
  703TIP3   OH223523   0.969   1.656   5.452  0.4203 -0.8003 -0.0974
  703TIP3    H123524   0.909   1.600   5.402 -0.5554  0.9133 -0.9214
  703TIP3    H223525   1.030   1.690   5.388 -1.1109  1.7699 -0.3285
  704TIP3   OH223526   4.261   2.094  13.657  0.5238  0.0016 -0.7905
  704TIP3    H123527   4.292   2.005  13.675 -0.3084  0.1434  1.7961
  704TIP3    H223528   4.273   2.141  13.740  1.2184  2.4188 -2.1607
  705TIP3   OH223529   1.260   5.570  12.105  0.4047  0.5151  0.0215
  705TIP3    H123530   1.352   5.595  12.111  0.3852  1.0819 -1.6381
  705TIP3    H223531   1.252   5.527  12.019 -0.3553 -1.8859  1.1860
  706TIP3   OH223532   4.871   2.833  11.789 -0.4354 -0.6150  0.7704
  706TIP3    H123533   4.898   2.805  11.702 -1.4903 -0.0775  0.2517
  706TIP3    H223534   4.800   2.774  11.813 -0.2996 -0.6185  1.1749
  707TIP3   OH223535   4.527   3.605   1.782  0.0340 -0.0242  0.0607
  707TIP3    H123536   4.563   3.591   1.869  2.9661  0.9508 -0.8703
  707TIP3    H223537   4.580   3.549   1.725 -4.0737 -3.5251 -0.9115
  708TIP3   OH223538   4.621   4.474   1.885  0.1315  0.3143 -0.6145
  708TIP3    H123539   4.600   4.562   1.855 -0.0353  0.0125 -1.4126
  708TIP3    H223540   4.548   4.420   1.853 -0.1782  0.0152  0.5496
  709TIP3   OH223541   5.656   1.515  12.588 -0.1057 -0.0765 -0.2257
  709TIP3    H123542   5.690   1.446  12.531 -0.6740  0.6680 -1.5138
  709TIP3    H223543   5.656   1.594  12.533 -1.1113  0.5726  0.6581
  710TIP3   OH223544   1.600   3.456   4.929 -0.0155  0.0275 -0.1536
  710TIP3    H123545   1.686   3.498   4.924  0.1023 -0.3229 -1.2940
  710TIP3    H223546   1.601   3.391   4.859 -0.5510 -1.2500  0.9753
  711TIP3   OH223547   3.038   6.497   2.415  0.3215 -0.9611 -0.2679
  711TIP3    H123548   3.034   6.588   2.445  0.2985 -0.5536 -1.4508
  711TIP3    H223549   2.958   6.485   2.363 -0.0693 -1.9084  0.5214
  712TIP3   OH223550   0.638   3.381  15.614  0.4866  0.0658 -1.1138
  712TIP3    H123551   0.545   3.402  15.626 -0.3766 -2.6279 -2.2491
  712TIP3    H223552   0.684   3.456  15.651 -2.0086 -0.4476  3.9232
  713TIP3   OH223553   5.934   4.542   6.260  0.0676 -0.2500 -0.0157
  713TIP3    H123554   5.943   4.506   6.349 -0.3921  0.0592  0.1574
  713TIP3    H223555   5.841   4.563   6.252 -0.0196 -0.9151 -0.8243
  714TIP3   OH223556   0.471   4.259  13.431  0.2760 -0.9905 -0.6370
  714TIP3    H123557   0.488   4.212  13.512  0.6874 -0.7019 -0.5534
  714TIP3    H223558   0.543   4.321  13.423  0.1313 -0.8753 -1.1193
  715TIP3   OH223559   0.078   0.894   1.640 -0.6098 -0.1997  0.0356
  715TIP3    H123560   0.150   0.957   1.649 -0.5451 -0.3156  0.3260
  715TIP3    H223561   0.097   0.849   1.557 -0.9073  0.4787 -0.4093
  716TIP3   OH223562   0.879   3.301  13.115  0.0169  0.0058 -0.2992
  716TIP3    H123563   0.937   3.356  13.168 -1.3527 -0.0937  1.4003
  716TIP3    H223564   0.905   3.211  13.137  2.4265 -0.1641 -3.2645
  717TIP3   OH223565   0.578   5.998  13.227  0.4318 -0.0396 -0.2061
  717TIP3    H123566   0.525   6.052  13.169  0.6331 -0.8890 -1.2270
  717TIP3    H223567   0.532   5.999  13.311 -0.2938  0.5743 -0.6013
  718TIP3   OH223568   6.306   4.109  13.500 -0.3302  0.1170  0.2238
  718TIP3    H123569   6.342   4.197  13.510  2.3358 -1.0408  2.1597
  718TIP3    H223570   6.377   4.059  13.461 -1.9825 -1.1201 -1.3210
  719TIP3   OH223571   2.519   2.149   3.644  0.3153 -0.3522 -0.1380
  719TIP3    H123572   2.487   2.064   3.615  0.6000 -0.4960 -0.0331
  719TIP3    H223573   2.596   2.129   3.696  0.6993  0.0064 -0.5665
  720TIP3   OH223574   4.248   6.042   0.197 -0.0914  0.4023  0.2472
  720TIP3    H123575   4.198   6.088   0.130 -0.0296  0.3963  0.1974
  720TIP3    H223576   4.204   6.065   0.279 -0.0161  0.6117  0.2309
  721TIP3   OH223577   3.446   3.729  14.101  0.2443  0.0042  0.7013
  721TIP3    H123578   3.467   3.806  14.047  2.0889 -0.2309  1.0253
  721TIP3    H223579   3.414   3.766  14.183 -0.5035  0.3874  0.2516
  722TIP3   OH223580   0.588   4.581  13.780 -0.1888 -0.2256  0.2084
  722TIP3    H123581   0.676   4.546  13.789 -0.3746 -0.7588  0.0525
  722TIP3    H223582   0.600   4.672  13.753  0.3098 -0.4196 -0.2417
  723TIP3   OH223583   3.249   4.409   0.331 -0.5328  0.2891  0.2120
  723TIP3    H123584   3.198   4.486   0.310  0.1153  0.5538 -0.4374
  723TIP3    H223585   3.313   4.402   0.260 -1.5541 -1.7288 -0.6023
  724TIP3   OH223586   1.932   5.763   4.413 -0.2917  0.3783 -0.4211
  724TIP3    H123587   1.889   5.702   4.474  0.0570 -0.9935 -1.4979
  724TIP3    H223588   2.023   5.766   4.442 -0.7769  2.3146  1.0971
  725TIP3   OH223589   3.132   6.656   1.627  0.2760 -0.1821  0.0757
  725TIP3    H123590   3.157   6.728   1.570  0.2325 -1.1994 -1.2762
  725TIP3    H223591   3.215   6.625   1.664  0.6471 -1.1462 -1.4711
  726TIP3   OH223592   1.984   4.547   1.509 -0.2527 -0.5876  0.2631
  726TIP3    H123593   2.015   4.596   1.585  0.0712  0.2669 -0.4165
  726TIP3    H223594   2.043   4.471   1.505  1.5774  0.8131 -0.7823
  727TIP3   OH223595   6.161   0.138   3.570 -0.8310 -0.5573 -0.3733
  727TIP3    H123596   6.224   0.193   3.524 -4.5026  2.1117 -2.8452
  727TIP3    H223597   6.143   0.066   3.510 -0.8309 -0.7473 -0.1456
  728TIP3   OH223598   5.898   6.634  16.600 -0.0101  0.1920  0.5487
  728TIP3    H123599   5.839   6.642  16.675 -1.9044 -1.0835 -0.7208
  728TIP3    H223600   5.880   6.712  16.548  0.4813  0.5031  0.8312
  729TIP3   OH223601   5.372   6.583   3.884 -0.7496  0.3334 -0.4508
  729TIP3    H123602   5.433   6.572   3.957 -0.6490 -1.1962 -0.7302
  729TIP3    H223603   5.373   6.677   3.866  1.5739  0.3633 -0.4893
  730TIP3   OH223604   4.972   4.685   4.557  0.9057  0.7287  0.3718
  730TIP3    H123605   5.044   4.747   4.548  0.8084  0.8475  0.4150
  730TIP3    H223606   5.011   4.599   4.538  0.9648  0.8398 -0.0287
  731TIP3   OH223607   4.612   2.528  12.416 -0.5682  0.1971  0.4477
  731TIP3    H123608   4.549   2.470  12.458  0.1186 -0.2389  0.9126
  731TIP3    H223609   4.694   2.478  12.416 -0.2112  0.7624 -0.0997
  732TIP3   OH223610   5.952   2.393   0.110  0.2397 -0.5909 -0.3267
  732TIP3    H123611   5.964   2.299   0.093  1.2172 -1.0048  2.2333
  732TIP3    H223612   5.886   2.396   0.180 -3.4661  0.9679 -3.4769
  733TIP3   OH223613   5.059   0.521  15.091  0.0233 -0.0480  0.0405
  733TIP3    H123614   4.982   0.578  15.091 -0.2157 -0.3465 -0.8193
  733TIP3    H223615   5.134   0.581  15.092 -0.2238  0.2975 -1.0779
  734TIP3   OH223616   0.273   5.083  15.709 -0.6783 -0.1093 -0.4581
  734TIP3    H123617   0.218   5.051  15.780  0.1154 -0.4294  0.0309
  734TIP3    H223618   0.338   5.014  15.695 -0.6931  0.0464 -1.3489
  735TIP3   OH223619   5.987   2.387  12.561 -0.1341  0.3434  0.4988
  735TIP3    H123620   6.028   2.448  12.499  1.0077  0.6410  1.4895
  735TIP3    H223621   5.990   2.434  12.645 -3.7613  0.9256  0.4326
  736TIP3   OH223622   4.941   6.716   0.502  0.2775  0.4233  0.0580
  736TIP3    H123623   4.980   6.706   0.415  1.9060 -0.0058  0.7812
  736TIP3    H223624   4.903   6.804   0.502 -1.4609 -0.2770 -1.6943
  737TIP3   OH223625   4.617   1.511  14.968 -0.2081  0.0501  0.0064
  737TIP3    H123626   4.547   1.486  14.907  1.4822 -2.2982 -1.1478
  737TIP3    H223627   4.696   1.471  14.931  1.6691  2.1091  1.5578
  738TIP3   OH223628   1.741   6.308  11.261  0.1690  0.6562  0.4808
  738TIP3    H123629   1.825   6.266  11.273  0.0021  0.5057  1.1402
  738TIP3    H223630   1.687   6.277  11.334 -1.3077 -1.3086 -1.3084
  739TIP3   OH223631   3.618   3.096  16.182 -0.3317  0.2090 -0.5377
  739TIP3    H123632   3.569   3.144  16.115 -0.9510 -0.2044 -0.3851
  739TIP3    H223633   3.685   3.158  16.211  0.1551  0.2856 -1.7651
  740TIP3   OH223634   5.673   2.852  13.889  0.0280  0.0846 -0.1234
  740TIP3    H123635   5.581   2.825  13.884  0.0142  0.1108 -0.0102
  740TIP3    H223636   5.722   2.773  13.864  0.0174 -0.2901  0.9612
  741TIP3   OH223637   1.345   1.246   0.172 -0.0125 -0.3042 -0.1056
  741TIP3    H123638   1.364   1.216   0.083 -1.4430 -0.3253 -0.4285
  741TIP3    H223639   1.310   1.334   0.161 -0.2478 -0.3269  0.4324
  742TIP3   OH223640   6.330   6.170   3.055 -0.4894 -0.3690 -0.6495
  742TIP3    H123641   6.401   6.159   2.993 -0.8524 -0.1986 -1.1006
  742TIP3    H223642   6.345   6.257   3.093  0.1961 -0.8008  0.1133
  743TIP3   OH223643   3.592   0.009   4.581  0.3976  0.6991  0.0039
  743TIP3    H123644   3.634   0.094   4.597 -1.4031  1.4369  1.0952
  743TIP3    H223645   3.499   0.024   4.597 -0.1430 -1.2152 -0.9474
  744TIP3   OH223646   0.337   0.202  15.524 -0.0771  0.0747 -0.0878
  744TIP3    H123647   0.265   0.148  15.556  0.8469 -1.8196 -1.0099
  744TIP3    H223648   0.413   0.172  15.575  0.1924  1.6502  0.4919
  745TIP3   OH223649   1.817   1.513   3.058  0.2510  1.0558 -0.2465
  745TIP3    H123650   1.844   1.432   3.101 -1.3759  1.1212  0.9884
  745TIP3    H223651   1.736   1.489   3.011 -0.1451  1.9114 -0.0173
  746TIP3   OH223652   2.824   1.744   0.251  0.2846  0.4606  0.3155
  746TIP3    H123653   2.914   1.732   0.282  0.7897  0.4228 -1.0944
  746TIP3    H223654   2.818   1.689   0.173 -1.0670  0.2288  0.5591
  747TIP3   OH223655   3.670   5.120  15.802  0.2226  0.2789  0.2504
  747TIP3    H123656   3.576   5.102  15.796  0.6163 -1.4108 -2.6928
  747TIP3    H223657   3.701   5.063  15.872 -0.5725 -1.2072 -0.5529
  748TIP3   OH223658   2.644   0.711   1.054 -0.0822  0.4835 -0.3011
  748TIP3    H123659   2.627   0.629   1.007  2.2683 -0.9189  1.1138
  748TIP3    H223660   2.700   0.761   0.994 -0.3890  0.4709 -0.6036
  749TIP3   OH223661   4.552   4.775   2.257  0.3489 -0.1786 -0.5469
  749TIP3    H123662   4.637   4.749   2.292  0.3746 -0.0394 -0.5031
  749TIP3    H223663   4.495   4.782   2.333 -0.0523 -1.5457 -0.7052
  750TIP3   OH223664   0.637   2.158   0.387 -0.3695 -0.6754 -0.1434
  750TIP3    H123665   0.543   2.148   0.405 -0.2908 -1.1556  0.0133
  750TIP3    H223666   0.677   2.164   0.474 -0.4385  1.4660 -0.1997
  751TIP3   OH223667   4.910   5.252   2.071  0.0789  0.5216  0.1179
  751TIP3    H123668   4.858   5.244   2.150 -1.0370 -0.2545 -0.6740
  751TIP3    H223669   4.847   5.247   1.999  1.3795 -2.9243 -1.0046
  752TIP3   OH223670   1.572   1.100   1.245 -0.0857  0.5051  0.0003
  752TIP3    H123671   1.562   1.016   1.202 -0.2243  0.1281  0.7594
  752TIP3    H223672   1.536   1.087   1.333 -1.7012  1.8100 -0.4007
  753TIP3   OH223673   1.193   3.457   1.393  0.5319 -0.4979 -0.4612
  753TIP3    H123674   1.168   3.415   1.475 -1.6848  2.7022  0.7203
  753TIP3    H223675   1.272   3.506   1.414 -0.4754  0.9552  0.0706
  754TIP3   OH223676   2.878   3.741   3.160  0.4597  0.0632 -0.2531
  754TIP3    H123677   2.944   3.673   3.176  1.1312  0.4507 -1.2746
  754TIP3    H223678   2.927   3.823   3.165 -0.2047  0.4404  0.2344
  755TIP3   OH223679   6.347   3.635   1.072 -0.2329  0.1193 -0.6092
  755TIP3    H123680   6.334   3.552   1.118 -1.6151 -1.1254 -3.0368
  755TIP3    H223681   6.269   3.644   1.017  0.5288  2.3812 -1.4201
  756TIP3   OH223682   2.588   0.619  10.288 -0.6280  0.1695  0.3825
  756TIP3    H123683   2.513   0.675  10.304 -0.6743  0.0863  0.4567
  756TIP3    H223684   2.653   0.676  10.247 -0.8564  0.1636  0.0086
  757TIP3   OH223685   5.431   5.692   2.810 -0.4697 -0.5436 -0.0567
  757TIP3    H123686   5.508   5.635   2.808 -0.3389 -0.3397 -1.5926
  757TIP3    H223687   5.460   5.770   2.857  0.3004 -0.4231 -0.7270
  758TIP3   OH223688   0.433   2.307   3.794 -0.2073  0.1273  0.5344
  758TIP3    H123689   0.370   2.279   3.861  1.1583 -3.4969  0.5323
  758TIP3    H223690   0.393   2.281   3.711 -1.4139  3.6556 -0.1810
  759TIP3   OH223691   5.705   4.512   5.221  0.0194 -0.4740  0.0916
  759TIP3    H123692   5.771   4.581   5.219 -0.6129  0.1427  0.2299
  759TIP3    H223693   5.737   4.450   5.286 -0.9311  1.2473  2.3129
  760TIP3   OH223694   0.925   2.129   0.018 -0.0205  0.0173 -0.0965
  760TIP3    H123695   0.900   2.185   0.092  1.4414  0.2313  0.2757
  760TIP3    H223696   0.972   2.187  -0.041  2.4446 -0.9530  0.7884
  761TIP3   OH223697   3.379   0.944  16.127 -0.0373 -0.0009 -0.2456
  761TIP3    H123698   3.472   0.941  16.150  0.1974 -0.2528 -1.1596
  761TIP3    H223699   3.361   0.859  16.088 -0.6359  0.0696 -0.1351
  762TIP3   OH223700   5.344   6.358  15.296 -0.3882 -0.3040 -0.6824
  762TIP3    H123701   5.425   6.307  15.296 -0.7154 -0.8256 -0.7637
  762TIP3    H223702   5.365   6.436  15.348  0.0772 -0.5718 -0.4633
  763TIP3   OH223703   4.943   4.823   5.809 -0.0121  0.4504  0.8593
  763TIP3    H123704   4.959   4.734   5.778  0.3265  0.6768  0.3632
  763TIP3    H223705   4.989   4.829   5.893 -0.1953  0.0995  0.9842
  764TIP3   OH223706   0.819   5.526   2.928 -0.2198 -0.0861 -0.8087
  764TIP3    H123707   0.803   5.441   2.969 -0.3193  0.0156 -0.6341
  764TIP3    H223708   0.796   5.512   2.836 -4.4682  0.8038 -0.1272
  765TIP3   OH223709   6.230   2.742   4.210  0.4794  0.0125 -0.4008
  765TIP3    H123710   6.219   2.666   4.152 -0.4248  0.6129 -1.0533
  765TIP3    H223711   6.177   2.811   4.169  1.4213  1.0538  0.0758
  766TIP3   OH223712   5.260   4.564  13.063  0.1988 -0.5006  0.1146
  766TIP3    H123713   5.214   4.498  13.011 -1.9197  0.4013  0.7475
  766TIP3    H223714   5.294   4.515  13.138 -0.1677 -1.1228 -0.1151
  767TIP3   OH223715   6.291   0.575   0.102  0.3099  0.4180 -0.5214
  767TIP3    H123716   6.301   0.645   0.167 -0.2188  1.4897 -1.5704
  767TIP3    H223717   6.238   0.509   0.147  1.7538  0.1358  0.8772
  768TIP3   OH223718   4.260   0.444  14.962 -0.2459  0.2093 -0.0522
  768TIP3    H123719   4.190   0.508  14.975  0.3629  1.2022 -1.4492
  768TIP3    H223720   4.220   0.359  14.982 -1.6145  0.8328 -0.0668
  769TIP3   OH223721   0.393   1.297   5.324  0.6133  0.2719  0.0412
  769TIP3    H123722   0.311   1.283   5.371 -0.1039  1.0409 -0.9302
  769TIP3    H223723   0.426   1.210   5.305 -0.4281 -0.0596 -0.3048
  770TIP3   OH223724   2.988   4.801  13.451 -0.1073  0.0353  0.6965
  770TIP3    H123725   2.951   4.833  13.369 -0.7607  0.5089  1.1563
  770TIP3    H223726   2.953   4.713  13.461  0.1709 -0.1139  0.3463
  771TIP3   OH223727   2.142   3.938  11.743 -0.6406 -0.2723 -0.0574
  771TIP3    H123728   2.143   4.006  11.675  0.1169  0.2581  0.4734
  771TIP3    H223729   2.175   3.981  11.821  1.1847 -1.5823 -0.0329
  772TIP3   OH223730   1.465   0.726   2.948 -0.3001 -0.2239 -0.5542
  772TIP3    H123731   1.474   0.796   2.884  0.8987  0.9031  0.7754
  772TIP3    H223732   1.555   0.703   2.972 -0.6860 -1.7886 -0.4790
  773TIP3   OH223733   0.334   3.248  15.120 -0.0031 -0.2544  0.0012
  773TIP3    H123734   0.411   3.260  15.064 -0.2740 -0.5944 -0.4543
  773TIP3    H223735   0.306   3.337  15.141  1.1834 -0.1237  1.1264
  774TIP3   OH223736   5.724   3.726  14.135 -0.2161  0.3405 -0.8647
  774TIP3    H123737   5.787   3.740  14.206  2.2876 -0.2275 -2.7986
  774TIP3    H223738   5.661   3.663  14.171  0.2394  0.9972  1.2095
  775TIP3   OH223739   1.872   1.804  15.421  0.1395 -0.3465 -0.2924
  775TIP3    H123740   1.956   1.760  15.409 -0.5849 -1.6142 -0.9585
  775TIP3    H223741   1.822   1.782  15.342 -1.2753 -0.7224  0.6689
  776TIP3   OH223742   0.786   5.686   4.467 -0.2992 -0.7306 -0.3103
  776TIP3    H123743   0.738   5.756   4.422  1.4891  0.9664  0.2688
  776TIP3    H223744   0.828   5.637   4.396  0.8248  0.6572 -0.6671
  777TIP3   OH223745   1.046   3.901  11.144  0.5946  0.4340 -0.1457
  777TIP3    H123746   1.079   3.960  11.076  0.0647  2.7919  1.5107
  777TIP3    H223747   1.011   3.959  11.211 -0.5731 -1.8305  1.3342
  778TIP3   OH223748   4.263   0.030   4.794  0.3534  0.2095  0.6493
  778TIP3    H123749   4.283  -0.036   4.860  0.9344 -0.2746  0.0088
  778TIP3    H223750   4.168   0.035   4.793  0.3202 -0.2177  1.0904
  779TIP3   OH223751   5.626   6.376  12.456 -0.1211  0.0175  0.2418
  779TIP3    H123752   5.609   6.386  12.363  1.8747 -0.7784 -0.2398
  779TIP3    H223753   5.540   6.391  12.497 -0.4935  3.4595 -1.4190
  780TIP3   OH223754   4.200   1.244  15.256 -0.2982 -0.1544 -0.7695
  780TIP3    H123755   4.133   1.298  15.215  1.3047  2.5011 -0.1631
  780TIP3    H223756   4.273   1.246  15.194  0.2850 -0.4819 -0.1050
  781TIP3   OH223757   5.724   3.516  10.865  0.2102 -0.6759  0.4807
  781TIP3    H123758   5.762   3.431  10.842 -2.3976 -1.3521 -1.9095
  781TIP3    H223759   5.709   3.559  10.781  0.1378  1.5748  1.5755
  782TIP3   OH223760   0.829   2.421  15.511 -0.3465  0.1346  0.4613
  782TIP3    H123761   0.902   2.422  15.450 -1.4987  1.2526 -0.9927
  782TIP3    H223762   0.868   2.437  15.597  1.3234 -1.4910  0.0649
  783TIP3   OH223763   3.122   0.433   2.921 -0.2670  0.1973 -0.4846
  783TIP3    H123764   3.187   0.403   2.857  2.0362  0.7757  1.4433
  783TIP3    H223765   3.098   0.354   2.969  1.4713  0.4118  0.8407
  784TIP3   OH223766   0.485   5.356   0.841 -0.7212  0.1185 -0.1489
  784TIP3    H123767   0.509   5.435   0.889  0.9546 -0.3325 -0.1806
  784TIP3    H223768   0.485   5.287   0.906 -1.5001  0.0253 -0.2462
  785TIP3   OH223769   6.110   1.822  13.800  0.2125 -0.5931  0.0950
  785TIP3    H123770   6.104   1.772  13.882  0.2473 -1.2374 -0.2884
  785TIP3    H223771   6.172   1.892  13.820 -0.4064 -0.2502  0.8674
  786TIP3   OH223772   6.578   5.097  13.469  0.1735 -0.5414  0.4524
  786TIP3    H123773   6.633   5.149  13.411  0.7797 -1.6608 -0.0006
  786TIP3    H223774   6.635   5.027  13.500  0.3405  0.7905  3.5872
  787TIP3   OH223775   0.691   2.923  14.012 -0.5602  0.4832  0.3067
  787TIP3    H123776   0.608   2.875  14.020 -0.0014 -0.4372  0.6654
  787TIP3    H223777   0.754   2.858  13.983  0.0876  1.1465  0.1989
  788TIP3   OH223778   3.865   4.580  15.514  0.0258 -0.2452  0.0557
  788TIP3    H123779   3.925   4.654  15.518 -0.6010  0.2170  1.4939
  788TIP3    H223780   3.782   4.619  15.485 -0.3209 -0.3503  0.8711
  789TIP3   OH223781   5.873   5.205   1.281  0.3287  0.3225  0.3142
  789TIP3    H123782   5.817   5.224   1.206 -1.3165 -0.8149  1.1682
  789TIP3    H223783   5.813   5.210   1.356  0.9497 -2.4594  1.1323
  790TIP3   OH223784   6.661   3.751   2.623  0.2360  0.1806  0.3714
  790TIP3    H123785   6.688   3.843   2.620 -0.4396  0.5360  2.7425
  790TIP3    H223786   6.583   3.747   2.567  1.9828  0.2928 -2.2424
  791TIP3   OH223787   3.981   3.593  13.523  0.1266 -0.0204  0.1132
  791TIP3    H123788   4.038   3.551  13.588  0.6864 -0.1897 -0.4775
  791TIP3    H223789   3.943   3.521  13.473  2.9883  0.0852 -2.5364
  792TIP3   OH223790   3.728   3.544   1.918 -0.4798  0.1239  0.3418
  792TIP3    H123791   3.817   3.511   1.932 -0.5010 -0.0653  0.0167
  792TIP3    H223792   3.727   3.575   1.828 -1.1000 -0.9908 -0.0542
  793TIP3   OH223793   6.625   2.025   4.793 -0.1576 -0.9321  0.1853
  793TIP3    H123794   6.688   2.070   4.737  0.7966 -0.3938  1.6417
  793TIP3    H223795   6.661   1.937   4.804  0.1951 -0.7168  0.7777
  794TIP3   OH223796   3.962   0.801  11.897  0.4239 -0.2268 -0.0466
  794TIP3    H123797   4.024   0.870  11.921 -0.1116  0.5645 -0.8893
  794TIP3    H223798   3.876   0.835  11.922  0.2338 -0.9515  0.3155
  795TIP3   OH223799   5.508   6.225  14.625 -0.5516 -0.2039  0.0460
  795TIP3    H123800   5.485   6.147  14.574  0.2890 -1.6558  1.7963
  795TIP3    H223801   5.439   6.232  14.691 -0.3116  0.1988  0.2596
  796TIP3   OH223802   2.838   0.269  12.199  0.1184 -0.1793 -0.4279
  796TIP3    H123803   2.903   0.338  12.184 -1.0146  0.8373 -0.8531
  796TIP3    H223804   2.755   0.310  12.175 -0.7732 -1.1960  0.8226
  797TIP3   OH223805   2.893   4.072   4.882  0.5396 -0.0170  0.3881
  797TIP3    H123806   2.831   4.007   4.849 -0.9211  0.8284  1.3478
  797TIP3    H223807   2.960   4.021   4.926  0.1242 -0.9311 -0.0185
  798TIP3   OH223808   4.786   6.518  14.228 -0.3340  0.3221  0.2993
  798TIP3    H123809   4.868   6.565  14.235  0.4863 -1.0776  0.4797
  798TIP3    H223810   4.765   6.520  14.135  0.8506 -0.7941 -0.0255
  799TIP3   OH223811   5.839   4.476  16.267 -0.0309 -0.0739  0.0802
  799TIP3    H123812   5.746   4.453  16.266  0.1729 -1.0168  1.0736
  799TIP3    H223813   5.850   4.533  16.190 -1.2082 -0.7995 -0.6682
  800TIP3   OH223814   4.369   1.066  15.894  0.5078  0.3457  0.0326
  800TIP3    H123815   4.380   1.048  15.801  0.8218  3.2539 -0.5743
  800TIP3    H223816   4.312   0.995  15.925  1.3322 -1.3458 -2.0657
  801TIP3   OH223817   5.778   5.023  15.836 -0.4793  0.5608 -0.5512
  801TIP3    H123818   5.701   5.073  15.808 -0.9653  0.5880  0.7831
  801TIP3    H223819   5.742   4.948  15.883  0.2803 -0.3513 -1.3842
  802TIP3   OH223820   6.454   6.780   3.242 -0.3779  0.1923 -0.1518
  802TIP3    H123821   6.542   6.805   3.217 -1.1345  1.2968 -1.8822
  802TIP3    H223822   6.398   6.849   3.207 -2.0846 -1.3251 -0.5675
  803TIP3   OH223823   3.441   6.377   4.859  0.6554  0.4107  0.5576
  803TIP3    H123824   3.468   6.374   4.767 -0.6940  0.4040  0.1412
  803TIP3    H223825   3.360   6.428   4.858 -0.2707 -0.9749  1.5071
  804TIP3   OH223826   6.096   2.051   6.112 -0.3357 -0.1697  0.3845
  804TIP3    H123827   6.014   2.076   6.070 -0.0986 -0.0246 -0.0073
  804TIP3    H223828   6.070   2.005   6.192 -0.7902  0.2958  0.5104
  805TIP3   OH223829   2.835   5.978  14.108  0.0924 -0.6803  0.4336
  805TIP3    H123830   2.783   6.013  14.036  0.3734 -3.0759 -1.0306
  805TIP3    H223831   2.771   5.939  14.167  0.0494 -3.5273 -1.3110
  806TIP3   OH223832   0.434   0.052  11.432 -0.7153  0.6784 -0.2364
  806TIP3    H123833   0.513   0.084  11.475 -0.9417  1.6263 -0.5000
  806TIP3    H223834   0.410  -0.026  11.481 -0.9110  1.6623  1.3167
  807TIP3   OH223835   5.490   3.935   0.041 -0.2523  0.0164  0.1480
  807TIP3    H123836   5.540   3.959   0.118 -0.6668 -0.0959  0.4520
  807TIP3    H223837   5.516   3.999  -0.025 -1.9247  1.8031  1.1538
  808TIP3   OH223838   0.954   4.191  10.822  0.3155 -0.0018 -0.5661
  808TIP3    H123839   0.862   4.197  10.848  0.4001  2.9220 -0.5924
  808TIP3    H223840   0.991   4.127  10.882 -1.4979 -0.4135  0.1884
  809TIP3   OH223841   0.074   0.729   1.432  0.3293 -0.0593 -0.4395
  809TIP3    H123842   0.064   0.760   1.342 -0.0355 -0.3692 -0.5041
  809TIP3    H223843   0.168   0.739   1.449  0.2692  0.8270 -0.5514
  810TIP3   OH223844   6.369   3.334   2.418  0.1392  0.6560 -0.2638
  810TIP3    H123845   6.310   3.407   2.400 -0.9076  0.2296  1.2205
  810TIP3    H223846   6.411   3.357   2.501 -0.2484 -0.4320  0.2518
  811TIP3   OH223847   1.022   0.613   2.109  0.4938  0.4867 -0.2138
  811TIP3    H123848   0.929   0.600   2.127  0.7969 -1.9468 -0.1185
  811TIP3    H223849   1.024   0.673   2.035 -1.1170  1.1189  0.2115
  812TIP3   OH223850   0.809   1.575   2.289  0.1187  0.1548  0.3601
  812TIP3    H123851   0.875   1.531   2.343 -0.3062 -1.6658 -0.5281
  812TIP3    H223852   0.727   1.564   2.336 -0.2047 -1.1888 -0.4711
  813TIP3   OH223853   5.598   5.290   2.808 -0.2203 -0.2035  0.1248
  813TIP3    H123854   5.628   5.203   2.785  0.9472 -0.2694  1.7071
  813TIP3    H223855   5.601   5.292   2.904 -1.1157  1.2647  0.1580
  814TIP3   OH223856   3.431   1.604  16.620 -0.2394  0.2402  0.2638
  814TIP3    H123857   3.489   1.534  16.588  1.5217  1.6727  0.1857
  814TIP3    H223858   3.345   1.581  16.584  0.2701 -1.8545  0.2094
  815TIP3   OH223859   5.022   6.648  14.227  0.1249  0.2602  0.0688
  815TIP3    H123860   5.021   6.739  14.256 -1.5062  1.1824 -2.5099
  815TIP3    H223861   5.057   6.652  14.138  2.1830 -2.0040  0.6720
  816TIP3   OH223862   5.582   4.593  12.301 -0.4309 -0.0843  0.0619
  816TIP3    H123863   5.559   4.650  12.374 -0.4523  0.9255 -0.7217
  816TIP3    H223864   5.536   4.629  12.225  0.4964 -0.4329 -0.6926
  817TIP3   OH223865   6.640   1.571  14.984  0.3244 -0.4785  0.8463
  817TIP3    H123866   6.648   1.483  15.021  1.1225 -0.8862 -0.2669
  817TIP3    H223867   6.716   1.618  15.018  1.1259 -0.8902 -0.3687
  818TIP3   OH223868   3.211   1.350  16.227 -0.0036 -0.0499  0.3047
  818TIP3    H123869   3.196   1.263  16.191  1.2188  0.3632 -1.3179
  818TIP3    H223870   3.205   1.409  16.152  2.4253  0.8737  0.7193
  819TIP3   OH223871   1.336   4.603  15.685 -0.2818 -0.4559  0.3327
  819TIP3    H123872   1.311   4.522  15.641 -3.2670  1.2554 -1.4308
  819TIP3    H223873   1.289   4.601  15.768 -1.0763 -0.1468 -0.1055
  820TIP3   OH223874   4.710   6.088   5.232 -0.1826 -0.2560  0.1667
  820TIP3    H123875   4.743   6.099   5.321  0.0461 -0.1893  0.0736
  820TIP3    H223876   4.634   6.146   5.227  0.3254  0.4056  0.0424
  821TIP3   OH223877   6.216   1.705   6.386 -0.0717 -0.2369 -0.2339
  821TIP3    H123878   6.143   1.649   6.360  0.8551 -1.9326  0.5863
  821TIP3    H223879   6.232   1.682   6.478  2.6985 -1.4496 -0.8860
  822TIP3   OH223880   0.844   6.331   1.275 -0.3223 -0.3946 -0.2942
  822TIP3    H123881   0.793   6.379   1.210  1.0829  0.8126 -0.5541
  822TIP3    H223882   0.934   6.332   1.241  0.1744 -1.0253  0.9381
  823TIP3   OH223883   0.767   2.160   4.288  0.3862  0.3247 -0.4399
  823TIP3    H123884   0.709   2.085   4.298  0.4323  0.1836 -1.1805
  823TIP3    H223885   0.854   2.125   4.307  0.5299 -0.0459 -1.7206
  824TIP3   OH223886   4.821   2.240   5.391 -0.2846 -0.1276  0.0578
  824TIP3    H123887   4.727   2.251   5.403 -0.1594  1.0710 -0.0106
  824TIP3    H223888   4.848   2.315   5.338  0.9788  0.4421  1.4411
  825TIP3   OH223889   3.505   3.135   0.678 -0.7886 -0.2271  0.3624
  825TIP3    H123890   3.568   3.200   0.646  1.3319 -1.3743  1.9524
  825TIP3    H223891   3.428   3.187   0.704 -1.1555  1.0840 -2.8730
  826TIP3   OH223892   0.643   4.077   4.232  0.0734 -0.8708 -0.2812
  826TIP3    H123893   0.655   3.982   4.232  0.4443 -0.8342 -1.2825
  826TIP3    H223894   0.726   4.111   4.267  0.3598 -0.8766 -0.9485
  827TIP3   OH223895   1.809   3.035  10.699 -0.1659 -0.0140  0.0221
  827TIP3    H123896   1.796   3.130  10.691  0.8310 -0.0628 -3.3627
  827TIP3    H223897   1.721   2.998  10.691 -0.2386  0.5384 -2.7388
  828TIP3   OH223898   2.363   4.949   4.232  0.0890  0.2661 -0.5298
  828TIP3    H123899   2.362   5.039   4.200 -1.5637  0.3484 -0.3530
  828TIP3    H223900   2.353   4.956   4.327 -1.9979 -0.0831 -0.6657
  829TIP3   OH223901   4.027   4.128   0.415 -0.8546 -0.3587 -0.0391
  829TIP3    H123902   4.037   4.212   0.371  0.1391 -0.1177  0.6275
  829TIP3    H223903   4.105   4.119   0.470 -0.4690 -2.1655 -0.8172
  830TIP3   OH223904   3.931   0.340   3.084  0.3580  0.1283  0.9545
  830TIP3    H123905   4.025   0.329   3.096  0.5335  0.4370 -0.0367
  830TIP3    H223906   3.919   0.342   2.989 -0.9940 -2.6592  0.9692
  831TIP3   OH223907   6.718   3.910  10.968 -0.1374 -0.3518  0.6950
  831TIP3    H123908   6.810   3.902  10.992 -0.1677 -1.4674  0.4792
  831TIP3    H223909   6.686   3.820  10.963 -0.9745 -0.0255 -0.2236
  832TIP3   OH223910   6.714   1.476   5.764 -0.5107 -0.1892 -0.1917
  832TIP3    H123911   6.624   1.450   5.781 -0.6676  0.0672 -0.6227
  832TIP3    H223912   6.708   1.568   5.737 -0.3480 -0.7807 -2.3572
  833TIP3   OH223913   1.872   0.889  14.226  0.2763 -0.3478 -0.0241
  833TIP3    H123914   1.779   0.876  14.246  0.3439 -0.3282  0.3028
  833TIP3    H223915   1.872   0.935  14.142  0.0095 -1.4022 -0.6205
  834TIP3   OH223916   3.542   0.180  16.174  0.1756  0.0466  0.9825
  834TIP3    H123917   3.573   0.255  16.123  0.8833 -0.5087  0.5738
  834TIP3    H223918   3.451   0.201  16.195 -0.3170  0.0685 -0.9577
  835TIP3   OH223919   3.031   3.715   4.165 -0.2722  0.1677  0.0341
  835TIP3    H123920   2.941   3.705   4.136 -0.1939  2.4952 -1.2147
  835TIP3    H223921   3.041   3.809   4.182  2.3111  0.2382 -1.3662
  836TIP3   OH223922   4.365   1.574  12.022  0.1491  0.0800  0.7608
  836TIP3    H123923   4.396   1.485  12.008 -2.0115 -0.3857 -1.7826
  836TIP3    H223924   4.329   1.573  12.111  1.8751 -0.9772  1.4982
  837TIP3   OH223925   4.866   1.999  15.711  0.0151  0.3817 -0.0185
  837TIP3    H123926   4.952   2.035  15.687 -1.0553  2.5097 -0.9480
  837TIP3    H223927   4.804   2.069  15.691 -2.1794 -1.7159 -1.1088
  838TIP3   OH223928   3.120   1.598   1.229 -0.7915 -0.0087 -0.0018
  838TIP3    H123929   3.176   1.668   1.196 -0.6458 -0.4532 -0.7089
  838TIP3    H223930   3.144   1.590   1.321  1.1899 -0.9943 -0.5568
  839TIP3   OH223931   5.922   3.579  13.295  0.3680  0.0459 -0.2287
  839TIP3    H123932   5.833   3.562  13.324 -0.6249  1.1575 -2.3740
  839TIP3    H223933   5.941   3.668  13.324  0.3748  0.1874 -0.6538
  840TIP3   OH223934   5.773   5.299   3.625  0.1482  0.0635  0.2680
  840TIP3    H123935   5.750   5.355   3.551  1.1325 -0.5432 -0.5359
  840TIP3    H223936   5.809   5.359   3.691  2.0683  0.3314 -0.9405
  841TIP3   OH223937   6.820   4.262  12.917  0.1070 -0.1874 -0.3503
  841TIP3    H123938   6.909   4.290  12.935 -0.3315  1.1968 -0.2116
  841TIP3    H223939   6.826   4.167  12.906  1.6369 -0.0758 -0.6658
  842TIP3   OH223940   1.797   0.181  12.207  0.4199  0.3111 -0.0655
  842TIP3    H123941   1.852   0.245  12.254 -1.0989  1.8320 -0.2708
  842TIP3    H223942   1.806   0.206  12.115  0.1704 -0.0524 -0.1882
  843TIP3   OH223943   5.732   3.731  11.450 -0.1018 -0.5399  0.3122
  843TIP3    H123944   5.799   3.742  11.517  0.5448 -2.0837 -0.0415
  843TIP3    H223945   5.650   3.725  11.500 -0.3493  3.3817  0.6478
  844TIP3   OH223946   4.634   0.369  14.596 -0.5765  0.6391  0.1668
  844TIP3    H123947   4.691   0.396  14.524 -1.3828 -0.2858 -0.8479
  844TIP3    H223948   4.548   0.361  14.557 -1.0568  0.2186  1.2691
  845TIP3   OH223949   0.767   2.190   6.037  0.2314  0.3711  0.1471
  845TIP3    H123950   0.797   2.171   6.126  1.7324  1.6993 -0.0353
  845TIP3    H223951   0.675   2.214   6.048 -0.3066 -1.8267  0.9923
  846TIP3   OH223952   1.856   2.606   2.497 -0.0220 -0.1368  0.1404
  846TIP3    H123953   1.884   2.615   2.406  1.8864 -0.6238  0.6527
  846TIP3    H223954   1.760   2.604   2.492 -0.0721  2.5176 -1.5942
  847TIP3   OH223955   4.410   3.261  15.123 -0.4944  0.1918 -0.0126
  847TIP3    H123956   4.380   3.198  15.189 -0.8440 -0.7506 -1.0372
  847TIP3    H223957   4.330   3.287  15.077 -0.1535  0.1114 -0.6704
  848TIP3   OH223958   3.762   2.684   2.332 -0.5418  0.5976  0.1713
  848TIP3    H123959   3.809   2.744   2.390  1.1131 -2.1373  1.9394
  848TIP3    H223960   3.760   2.729   2.248  1.5928  2.6329  1.0819
  849TIP3   OH223961   3.094   2.587  16.715  0.4461 -0.2949 -0.3714
  849TIP3    H123962   3.103   2.664  16.659 -1.7057  0.8403  0.7322
  849TIP3    H223963   3.154   2.523  16.677  1.2045  1.3977 -2.2120
  850TIP3   OH223964   1.741   4.253   3.540  0.7832 -0.5823  0.0703
  850TIP3    H123965   1.787   4.329   3.504 -0.7658 -0.0318 -0.8449
  850TIP3    H223966   1.723   4.277   3.631  0.7966 -0.0820 -0.0541
  851TIP3   OH223967   0.838   4.911  13.674 -0.1251 -0.1462  0.8584
  851TIP3    H123968   0.884   4.970  13.733 -0.2610  0.2753  0.5416
  851TIP3    H223969   0.754   4.893  13.718  1.2219 -2.8337  2.6343
  852TIP3   OH223970   3.266   3.746   4.590  0.3543  0.1082 -0.3992
  852TIP3    H123971   3.233   3.703   4.669  0.4051  1.4273  0.3702
  852TIP3    H223972   3.209   3.822   4.578  0.6778  0.2157 -1.3411
  853TIP3   OH223973   3.534   2.685   3.142  0.6931 -0.8650 -0.0564
  853TIP3    H123974   3.566   2.775   3.153  0.4978 -0.7260 -0.5881
  853TIP3    H223975   3.454   2.682   3.194  0.9498 -0.8713  0.3414
  854TIP3   OH223976   4.612   1.589   5.581  0.3776  0.0609 -0.0566
  854TIP3    H123977   4.703   1.615   5.566  0.6919  0.3207  1.9844
  854TIP3    H223978   4.609   1.564   5.673 -0.9587 -2.8449 -0.7694
  855TIP3   OH223979   6.770   5.662   5.662 -0.7769  0.0151 -0.1298
  855TIP3    H123980   6.805   5.674   5.750 -1.0429  0.4093 -0.0817
  855TIP3    H223981   6.830   5.599   5.622 -0.4656  0.0861  0.2207
  856TIP3   OH223982   1.837   2.553  15.277 -0.0584  0.1648 -0.1985
  856TIP3    H123983   1.913   2.587  15.324  0.6275  0.7654 -1.6604
  856TIP3    H223984   1.795   2.631  15.241 -2.0059 -0.0614  1.4530
  857TIP3   OH223985   6.312   5.032   1.273  0.4973 -0.0292 -0.5650
  857TIP3    H123986   6.271   5.109   1.312  0.3851 -0.7476  0.7815
  857TIP3    H223987   6.406   5.052   1.273  0.4839  0.0366 -0.0633
  858TIP3   OH223988   4.520   0.380  12.208 -0.3603 -0.3856  0.4181
  858TIP3    H123989   4.528   0.452  12.145 -0.9641 -1.1180 -0.5342
  858TIP3    H223990   4.580   0.403  12.279  1.8891 -0.4853 -1.3377
  859TIP3   OH223991   4.973   1.636  11.482  0.1237  0.3858  0.1667
  859TIP3    H123992   4.982   1.649  11.388  0.5258  1.7418  0.3719
  859TIP3    H223993   4.900   1.693  11.507  1.3345  1.6591  0.9671
  860TIP3   OH223994   4.714   0.782   0.988  0.3117 -0.7519 -0.0876
  860TIP3    H123995   4.797   0.734   0.988  0.6179 -0.2253  0.3287
  860TIP3    H223996   4.648   0.714   1.002  0.7858 -1.0034  1.0598
  861TIP3   OH223997   3.464   2.961  15.190  0.5350  0.1020  0.6284
  861TIP3    H123998   3.410   3.028  15.233 -1.3469  0.5953 -2.2646
  861TIP3    H223999   3.483   2.997  15.104  0.6406 -2.4943 -0.5098
  862TIP3   OH224000   5.511   1.842  15.209  0.0204 -0.0841 -0.8369
  862TIP3    H124001   5.453   1.838  15.133  0.5463 -1.4152 -1.1944
  862TIP3    H224002   5.599   1.853  15.171  0.3515 -1.3158 -0.4673
  863TIP3   OH224003   6.604   1.939   4.517 -0.3522 -0.3793 -0.3208
  863TIP3    H124004   6.552   1.948   4.438  0.0214 -1.1640 -0.6700
  863TIP3    H224005   6.581   2.015   4.570 -1.4109 -0.4094 -0.7152
  864TIP3   OH224006   3.389   3.397   0.829  0.1372 -0.8178  0.1109
  864TIP3    H124007   3.347   3.395   0.743  0.5847 -1.5211 -0.0974
  864TIP3    H224008   3.396   3.490   0.851 -0.1284 -0.6450 -0.5383
  865TIP3   OH224009   3.598   5.766   1.098 -0.2849  0.8066 -0.1735
  865TIP3    H124010   3.621   5.676   1.122  0.9888  1.0658 -0.3312
  865TIP3    H224011   3.525   5.788   1.155 -0.8473 -0.4440 -0.3679
  866TIP3   OH224012   4.303   5.670   0.527 -0.2119 -0.0433 -0.5084
  866TIP3    H124013   4.261   5.752   0.549  2.2772  1.0344  0.6179
  866TIP3    H224014   4.385   5.696   0.485 -0.8273 -2.0176 -3.2134
  867TIP3   OH224015   5.071   3.625   4.093 -0.1703 -0.3359 -0.2714
  867TIP3    H124016   5.011   3.658   4.160 -2.7173 -0.1006 -2.4887
  867TIP3    H224017   5.108   3.704   4.054 -0.4859 -0.3686 -0.6438
  868TIP3   OH224018   3.231   4.302   5.402  0.5255 -0.2734 -0.5764
  868TIP3    H124019   3.190   4.323   5.318  1.8809  1.8843 -0.7877
  868TIP3    H224020   3.214   4.379   5.457 -1.0065 -1.9652  1.4604
  869TIP3   OH224021   1.774   4.539  13.716  0.6290  0.0730 -0.6218
  869TIP3    H124022   1.778   4.564  13.624 -0.5233  0.9025 -0.4681
  869TIP3    H224023   1.827   4.606  13.761  1.9384 -0.8336 -0.7406
  870TIP3   OH224024   6.192   0.695   1.502  0.4919 -0.1557 -0.1904
  870TIP3    H124025   6.252   0.656   1.439  0.1127  0.0940 -0.7110
  870TIP3    H224026   6.166   0.778   1.463 -0.8167 -0.6168 -0.3567
  871TIP3   OH224027   5.066   0.082  14.678  0.4301  0.2848 -0.2694
  871TIP3    H124028   5.047   0.024  14.752  2.4242  1.0568  0.9303
  871TIP3    H224029   5.034   0.168  14.706 -1.1246  0.1141 -1.4110
  872TIP3   OH224030   2.056   6.207  16.285 -0.2008  0.1024 -0.3012
  872TIP3    H124031   2.113   6.284  16.287  1.2302 -0.8593 -1.7500
  872TIP3    H224032   2.048   6.181  16.377  0.0371  1.4334  0.1150
  873TIP3   OH224033   4.753   5.275   5.514  0.0976  0.0045 -0.0112
  873TIP3    H124034   4.818   5.205   5.507 -2.0935 -2.3667  1.4684
  873TIP3    H224035   4.760   5.306   5.605  0.9419  1.6707 -0.6094
  874TIP3   OH224036   0.031   5.444  13.192  0.8590  0.0625 -0.1330
  874TIP3    H124037   0.111   5.492  13.172  0.8958 -0.5634 -1.5820
  874TIP3    H224038  -0.038   5.510  13.189  0.7935 -0.0515 -2.9291
  875TIP3   OH224039   3.210   5.049  14.672  0.2222 -0.5089  0.2444
  875TIP3    H124040   3.299   5.083  14.669  0.1184 -0.2991 -0.7764
  875TIP3    H224041   3.199   5.019  14.762  0.4996  1.6705  1.0568
  876TIP3   OH224042   2.532   5.240  14.429 -0.5280  0.6145  0.0066
  876TIP3    H124043   2.499   5.182  14.497  0.2220  0.7325  0.4916
  876TIP3    H224044   2.623   5.258  14.455 -0.2986  0.8409 -0.9064
  877TIP3   OH224045   0.093   6.394   1.623 -0.3617 -0.0302  0.2672
  877TIP3    H124046   0.004   6.367   1.602 -0.0175 -0.4638 -0.6956
  877TIP3    H224047   0.084   6.484   1.653 -0.9839  0.4182 -1.1628
  878TIP3   OH224048   3.501   1.462  13.832 -0.3348 -0.2025 -0.9026
  878TIP3    H124049   3.427   1.406  13.855  0.4174 -0.6477  0.5714
  878TIP3    H224050   3.576   1.421  13.873  0.4187  1.2919 -0.7137
  879TIP3   OH224051   3.776   4.355   1.761  0.1522 -0.0810  0.5675
  879TIP3    H124052   3.780   4.423   1.693  0.3297 -1.0145 -0.3757
  879TIP3    H224053   3.862   4.313   1.758 -0.4323 -1.3058  0.1157
  880TIP3   OH224054   1.971   4.700   5.328 -0.0287 -0.4065  0.0419
  880TIP3    H124055   1.987   4.741   5.243  0.0173 -0.6385 -0.0617
  880TIP3    H224056   2.026   4.750   5.389 -1.2748  0.8154  0.2273
  881TIP3   OH224057   3.931   1.481  12.901 -0.1260  0.4837 -0.2164
  881TIP3    H124058   3.961   1.551  12.843 -0.3213  0.2884 -0.5538
  881TIP3    H224059   3.867   1.523  12.958 -0.5006  0.5053 -0.6469
  882TIP3   OH224060   5.524   2.231  13.794  0.2023  0.1929  0.1929
  882TIP3    H124061   5.560   2.305  13.843  1.2233  0.8187 -1.4370
  882TIP3    H224062   5.563   2.154  13.835 -0.5054  0.5530  1.6081
  883TIP3   OH224063   6.501   1.442  15.785  0.0487  0.2865  0.1587
  883TIP3    H124064   6.564   1.422  15.854 -0.1128 -1.1492 -0.0979
  883TIP3    H224065   6.457   1.359  15.766 -1.2088  1.0412 -0.3843
  884TIP3   OH224066   4.978   6.036  11.425 -0.4845  0.1841  0.0509
  884TIP3    H124067   4.977   6.035  11.329 -0.2129  0.5963  0.0413
  884TIP3    H224068   5.059   5.990  11.448  0.8834  2.4104  0.0159
  885TIP3   OH224069   1.148   1.546  16.004  0.8079  0.4746  0.1451
  885TIP3    H124070   1.124   1.617  15.944  0.9864  0.8208  0.4870
  885TIP3    H224071   1.209   1.492  15.953  0.7066  0.5856 -0.0980
  886TIP3   OH224072   5.382   4.392   2.680  0.3097 -0.0238 -0.0535
  886TIP3    H124073   5.435   4.472   2.676  2.2185 -1.2226  0.2988
  886TIP3    H224074   5.331   4.401   2.760  0.2375  0.9861 -0.1982
  887TIP3   OH224075   5.720   1.685   5.767 -0.7606 -0.1839 -0.0303
  887TIP3    H124076   5.810   1.650   5.765 -1.4148 -1.9070 -1.2351
  887TIP3    H224077   5.708   1.712   5.858  1.2705  0.9288 -0.0271
  888TIP3   OH224078   5.954   4.729  15.733 -0.4433  0.0760  0.4975
  888TIP3    H124079   5.866   4.715  15.697 -0.7279  0.5247  1.0011
  888TIP3    H224080   5.987   4.806  15.688 -0.3334 -0.0516  0.3582
  889TIP3   OH224081   0.418   6.337   1.933  0.6256 -0.4302  0.1151
  889TIP3    H124082   0.350   6.381   1.984 -1.0633 -1.5006 -1.0940
  889TIP3    H224083   0.464   6.407   1.888 -0.7106  0.2424 -0.2370
  890TIP3   OH224084   3.712   5.617   1.817 -0.5602 -0.0378 -0.2085
  890TIP3    H124085   3.700   5.677   1.891  0.8261 -1.9003  1.6175
  890TIP3    H224086   3.807   5.612   1.806 -0.6971 -1.1959 -0.9093
  891TIP3   OH224087   4.427   0.930  12.285 -0.0924  0.0566 -1.4095
  891TIP3    H124088   4.481   0.883  12.349 -0.8358 -0.6262 -1.2746
  891TIP3    H224089   4.342   0.939  12.328 -0.0990  1.1079 -1.6309
  892TIP3   OH224090   1.972   4.609   5.796 -0.3981  0.1344 -0.3962
  892TIP3    H124091   2.004   4.606   5.886  0.1657  1.3208 -0.5352
  892TIP3    H224092   1.938   4.522   5.779  0.5312 -0.4389  0.5959
  893TIP3   OH224093   3.973   1.705  16.394  0.5200 -0.1878  0.0295
  893TIP3    H124094   3.933   1.713  16.307  1.3374 -0.5925 -0.3950
  893TIP3    H224095   3.901   1.680  16.452  0.4524 -2.8687 -1.0742
  894TIP3   OH224096   3.078   0.227  16.440  0.3473 -0.3501 -0.1009
  894TIP3    H124097   2.985   0.223  16.417  0.4290 -1.8057 -0.3092
  894TIP3    H224098   3.083   0.293  16.509 -1.1764 -1.6187  1.3297
  895TIP3   OH224099   1.154   3.092  11.500 -0.4902  0.1951  0.0056
  895TIP3    H124100   1.169   3.174  11.548  1.1673 -0.9313  1.5775
  895TIP3    H224101   1.193   3.107  11.414 -0.6988  1.2438  0.0847
  896TIP3   OH224102   4.632   3.161  16.365 -0.6293 -0.5004  0.0152
  896TIP3    H124103   4.636   3.245  16.319  2.3924  0.4180  1.6586
  896TIP3    H224104   4.574   3.177  16.440 -2.7409 -0.9689 -1.4389
  897TIP3   OH224105   0.730   1.130   0.347  0.3977  0.2546  0.2410
  897TIP3    H124106   0.701   1.038   0.349 -1.7321  0.8508  2.4939
  897TIP3    H224107   0.815   1.129   0.391  0.7001 -0.7254 -0.3428
  898TIP3   OH224108   4.752   5.533   2.989  0.3735  0.3830  0.5640
  898TIP3    H124109   4.702   5.452   2.986 -2.0990  1.8011  0.4401
  898TIP3    H224110   4.827   5.517   2.931 -1.9788 -0.6517 -2.4740
  899TIP3   OH224111   3.730   6.303   0.949 -0.4824 -0.1683  0.0624
  899TIP3    H124112   3.812   6.342   0.916 -0.3310 -0.4059  0.1542
  899TIP3    H224113   3.757   6.219   0.987 -1.0286 -1.0658 -1.4585
  900TIP3   OH224114   2.465   2.282   5.550 -0.2779 -0.5841  0.3711
  900TIP3    H124115   2.527   2.210   5.537  0.8366  0.3930  0.1123
  900TIP3    H224116   2.492   2.322   5.633 -0.9791 -0.5425  0.5873
  901TIP3   OH224117   6.796   5.773   3.387 -0.1424  0.2639  0.7326
  901TIP3    H124118   6.848   5.771   3.306  0.7522  0.5572  1.2920
  901TIP3    H224119   6.721   5.829   3.365  0.7560  1.4230  0.4787
  902TIP3   OH224120   0.599   1.320  16.460 -0.3928  0.3546 -0.3147
  902TIP3    H124121   0.625   1.405  16.497 -2.2400  0.5252  0.7232
  902TIP3    H224122   0.561   1.273  16.534  2.1860 -2.1695 -0.4049
  903TIP3   OH224123   5.010   2.270   5.862  0.2458  0.2127 -0.3788
  903TIP3    H124124   5.013   2.365   5.870  0.2785  0.2112 -0.3701
  903TIP3    H224125   5.021   2.239   5.952  0.0410  0.2046 -0.3579
  904TIP3   OH224126   2.571   1.690   5.463 -0.1835 -0.2288  0.5047
  904TIP3    H124127   2.660   1.696   5.430 -0.5215 -2.5560 -1.0948
  904TIP3    H224128   2.568   1.751   5.537  2.7540 -0.2108  0.7127
  905TIP3   OH224129   5.427   3.502   6.242  0.7970 -0.1633 -0.2022
  905TIP3    H124130   5.395   3.545   6.320  2.7644  0.0926  0.5250
  905TIP3    H224131   5.490   3.564   6.204  0.1263 -0.4105 -1.8344
  906TIP3   OH224132   4.512   1.227   5.951  0.2746  0.1882 -0.2424
  906TIP3    H124133   4.426   1.198   5.981  0.3372 -0.6019 -0.8168
  906TIP3    H224134   4.568   1.222   6.029 -0.1524  0.5675  0.0964
  907TIP3   OH224135   3.933   3.616   3.462 -0.5459 -0.1084  0.4875
  907TIP3    H124136   3.883   3.551   3.511 -0.4757 -0.1080  0.5581
  907TIP3    H224137   3.971   3.568   3.388  1.2577 -0.6093  1.6836
  908TIP3   OH224138   4.005   4.787  12.783 -0.7547 -0.0587  0.0395
  908TIP3    H124139   4.038   4.809  12.870  0.3946 -0.5859 -0.2428
  908TIP3    H224140   4.013   4.692  12.778 -0.6772 -0.0211 -0.6959
  909TIP3   OH224141   1.366   5.583  15.222 -0.0144  0.0572 -0.4581
  909TIP3    H124142   1.349   5.677  15.223  2.3685  0.5366  0.4730
  909TIP3    H224143   1.365   5.558  15.315  2.9869 -0.0198 -0.3395
  910TIP3   OH224144   0.888   6.344   5.943 -0.2417 -0.2441 -0.0657
  910TIP3    H124145   0.808   6.377   5.985 -0.3981 -1.3669  0.5465
  910TIP3    H224146   0.937   6.303   6.013  0.9943  0.6118 -0.4061
  911TIP3   OH224147   4.790   0.883   0.564  0.1452 -0.6555  0.5153
  911TIP3    H124148   4.755   0.951   0.622 -0.7026 -0.1079 -0.5786
  911TIP3    H224149   4.884   0.886   0.578  0.0092 -0.1149  1.4056
  912TIP3   OH224150   0.245   0.273   2.678 -0.3410  0.2238  0.6173
  912TIP3    H124151   0.273   0.182   2.686  0.5195  0.4153 -0.1105
  912TIP3    H224152   0.239   0.288   2.584 -1.0355  0.7630  0.7376
  913TIP3   OH224153   0.350   0.046   5.000  0.3457 -0.3746 -0.0100
  913TIP3    H124154   0.336   0.127   5.050 -1.1032 -0.3188 -0.4859
  913TIP3    H224155   0.401   0.074   4.924  0.8592 -0.1247  0.4142
  914TIP3   OH224156   3.415   1.392   0.404 -0.4306 -0.1588  0.2736
  914TIP3    H124157   3.364   1.311   0.409 -1.6377  0.6436  1.8935
  914TIP3    H224158   3.487   1.379   0.466 -1.6837  0.6500  1.9857
  915TIP3   OH224159   3.741   2.877  14.868  0.4374  0.2430  0.6743
  915TIP3    H124160   3.754   2.787  14.840  1.7533  0.6767 -0.2428
  915TIP3    H224161   3.763   2.929  14.791 -0.4507  1.3555  1.1350
  916TIP3   OH224162   4.992   4.320  11.757  0.3462  0.5534 -0.0479
  916TIP3    H124163   5.077   4.302  11.719  2.1866  0.1968  3.7510
  916TIP3    H224164   5.010   4.342  11.848 -3.7018 -0.8041  1.3420
  917TIP3   OH224165   6.001   3.613   5.854 -0.0682 -0.1007 -0.4098
  917TIP3    H124166   5.971   3.587   5.941 -0.6082 -0.1882 -0.6166
  917TIP3    H224167   6.013   3.708   5.860  1.1017 -0.2698  0.1075
  918TIP3   OH224168   4.124   2.938   1.363 -0.3246 -0.4092  0.1482
  918TIP3    H124169   4.087   3.001   1.425  1.0301  0.9795 -0.3923
  918TIP3    H224170   4.218   2.948   1.371 -0.0356 -2.7140  0.3193
  919TIP3   OH224171   3.369   2.768  12.367 -0.1485  0.2055 -0.0070
  919TIP3    H124172   3.400   2.799  12.452  1.3003 -1.2905  0.0527
  919TIP3    H224173   3.318   2.689  12.388  2.8844 -2.1151 -0.6368
  920TIP3   OH224174   0.772   2.713   1.980  0.0065  0.9151  0.1163
  920TIP3    H124175   0.682   2.714   2.013 -0.1834 -1.0921 -0.2122
  920TIP3    H224176   0.772   2.775   1.908 -1.1780  0.7775 -0.0145
  921TIP3   OH224177   0.887   3.166   3.701  0.1180 -0.4708 -0.4167
  921TIP3    H124178   0.854   3.231   3.764 -1.3886 -1.3964 -0.1988
  921TIP3    H224179   0.933   3.218   3.635 -2.4918  1.0600 -1.1716
  922TIP3   OH224180   5.084   4.673  16.003 -0.5756 -0.3766 -0.2457
  922TIP3    H124181   5.109   4.754  15.959 -0.1051  0.5701  1.6626
  922TIP3    H224182   5.112   4.604  15.943 -3.0544  0.8012 -3.0212
  923TIP3   OH224183   2.385   5.785  15.049  0.2363 -0.1404  0.0142
  923TIP3    H124184   2.351   5.832  14.973 -0.2211 -0.4979 -0.0077
  923TIP3    H224185   2.331   5.815  15.122 -0.5155 -1.1164 -0.1132
  924TIP3   OH224186   6.817   5.802   0.840 -0.1908  0.5293 -0.0827
  924TIP3    H124187   6.827   5.716   0.799  0.8768  1.1090 -1.1075
  924TIP3    H224188   6.867   5.796   0.922 -1.7182 -0.4039  0.8278
  925TIP3   OH224189   4.822   6.311  15.223  0.5003  0.1487  0.3967
  925TIP3    H124190   4.884   6.335  15.291  1.3697  1.4522 -0.8038
  925TIP3    H224191   4.742   6.357  15.246  0.1346 -1.0071  1.5840
  926TIP3   OH224192   6.501   4.134  10.580 -0.4534 -0.0636  0.2301
  926TIP3    H124193   6.563   4.127  10.508 -1.9898  0.1064 -1.1484
  926TIP3    H224194   6.522   4.218  10.622  0.4284 -0.1488 -0.0255
  927TIP3   OH224195   3.227   2.258   0.763 -0.1923  0.0790 -0.5573
  927TIP3    H124196   3.288   2.328   0.742 -0.0890  0.6527  1.4342
  927TIP3    H224197   3.274   2.178   0.740 -0.3416  0.5938 -2.9187
  928TIP3   OH224198   0.946   4.820   3.845 -0.0221  0.3729 -0.5052
  928TIP3    H124199   0.855   4.821   3.815  0.2314 -1.2876 -1.4516
  928TIP3    H224200   0.998   4.816   3.765  0.8436  0.0319  0.0580
  929TIP3   OH224201   1.758   0.403   1.223 -0.1934  0.2174  0.2816
  929TIP3    H124202   1.697   0.466   1.185 -0.5078 -0.7456 -0.8593
  929TIP3    H224203   1.713   0.369   1.300 -0.5433  0.4662  0.1897
  930TIP3   OH224204   6.763   6.579   1.336 -0.5682  0.5265  0.3787
  930TIP3    H124205   6.701   6.604   1.268 -1.6829 -2.2222  0.2852
  930TIP3    H224206   6.734   6.493   1.365  2.3493 -0.2360  1.3776
  931TIP3   OH224207   2.775   5.573   2.816 -0.5402 -0.1223  0.5627
  931TIP3    H124208   2.782   5.661   2.853  0.6925 -1.0363  2.6783
  931TIP3    H224209   2.774   5.587   2.721  2.4081  2.0569  0.7186
  932TIP3   OH224210   4.070   2.234  12.511  0.3263 -0.1971 -0.0042
  932TIP3    H124211   4.017   2.270  12.582 -0.2176  0.4681 -0.7271
  932TIP3    H224212   4.067   2.300  12.442  2.0028 -0.2001 -0.1275
  933TIP3   OH224213   2.432   1.363   3.240  0.0941  0.0978  0.2598
  933TIP3    H124214   2.503   1.354   3.177  0.3212 -1.9281  0.7286
  933TIP3    H224215   2.464   1.319   3.319 -0.7153  1.3704  1.3464
  934TIP3   OH224216   2.177   3.997   0.020 -0.1575 -0.0810  0.1548
  934TIP3    H124217   2.182   4.023  -0.072 -0.8211  1.4243  0.5020
  934TIP3    H224218   2.264   4.016   0.056 -1.1399  4.0359  0.8981
  935TIP3   OH224219   0.140   1.121   3.441  0.3078 -0.0785  0.1719
  935TIP3    H124220   0.113   1.034   3.412 -1.2879 -0.1944  1.8338
  935TIP3    H224221   0.099   1.181   3.379  3.3759 -0.4372 -2.5021
  936TIP3   OH224222   4.051   2.934  12.281  0.8674  0.7680  0.3226
  936TIP3    H124223   3.956   2.939  12.273  1.0414  2.5310 -1.2040
  936TIP3    H224224   4.081   2.908  12.194  1.7697 -0.5731  0.9955
  937TIP3   OH224225   3.880   5.503   0.082 -0.3658  0.2268 -0.4115
  937TIP3    H124226   3.804   5.530   0.133 -0.1520  0.4097 -0.1916
  937TIP3    H224227   3.944   5.572   0.095 -0.4188  0.4257 -1.1713
  938TIP3   OH224228   2.186   5.688  13.314  1.0864  0.4562  0.7765
  938TIP3    H124229   2.124   5.623  13.282 -0.5264  1.6507  1.3733
  938TIP3    H224230   2.215   5.654  13.399  2.6454 -0.9401 -0.2241
  939TIP3   OH224231   1.924   3.705   4.526  0.8462  0.3374 -0.7306
  939TIP3    H124232   1.881   3.728   4.608  1.3560 -1.8150  0.2133
  939TIP3    H224233   2.015   3.731   4.537  0.9973 -0.2873 -0.4314
  940TIP3   OH224234   1.561   0.129   2.818 -0.3013 -0.2682  0.0104
  940TIP3    H124235   1.619   0.148   2.892  1.4873  0.0674 -1.4117
  940TIP3    H224236   1.530   0.215   2.789  1.4437 -0.0789 -1.4690
  941TIP3   OH224237   2.779   4.177   3.295 -0.3414  0.3782  0.6129
  941TIP3    H124238   2.687   4.194   3.275 -0.5331 -0.5085  0.6984
  941TIP3    H224239   2.781   4.084   3.318  1.1381 -0.5350 -2.6848
  942TIP3   OH224240   1.119   5.539   0.605  0.2892 -0.1108  0.1750
  942TIP3    H124241   1.146   5.462   0.555  1.2466  1.2022 -1.4121
  942TIP3    H224242   1.198   5.569   0.649 -0.4479 -1.0011  2.2618
  943TIP3   OH224243   6.673   0.267   2.912 -0.0347  0.2076 -0.4313
  943TIP3    H124244   6.722   0.348   2.898  1.2742 -0.4289  0.2584
  943TIP3    H224245   6.583   0.295   2.929  0.7028  1.6482  1.4437
  944TIP3   OH224246   4.682   1.706   6.537  0.6467 -0.2228  0.8753
  944TIP3    H124247   4.608   1.767   6.539  0.0823 -0.9022  1.2713
  944TIP3    H224248   4.753   1.756   6.497 -1.4118 -1.0139 -4.6271
  945TIP3   OH224249   3.162   6.612   4.445  0.2445  0.3596  0.1250
  945TIP3    H124250   3.147   6.690   4.391 -2.5073 -0.0882  0.0819
  945TIP3    H224251   3.103   6.546   4.408  0.5376 -0.9058  1.8088
  946TIP3   OH224252   3.999   1.786   3.220  0.2896  0.5190 -0.3001
  946TIP3    H124253   4.080   1.747   3.254 -0.2832 -0.0252  0.4741
  946TIP3    H224254   3.966   1.722   3.157  0.5966  0.8631 -0.8134
  947TIP3   OH224255   2.946   3.364   1.972 -0.1884 -0.6112 -0.3858
  947TIP3    H124256   3.002   3.359   1.894 -0.5101  3.5155 -1.1244
  947TIP3    H224257   3.006   3.354   2.045  1.0828  0.6153 -1.1966
  948TIP3   OH224258   5.805   2.513  11.945 -0.4468  0.6367  0.0236
  948TIP3    H124259   5.827   2.454  12.017 -4.3846 -1.3161 -0.1202
  948TIP3    H224260   5.809   2.459  11.866  0.1816  1.7685 -0.7453
  949TIP3   OH224261   6.676   6.393   0.339  0.1373 -0.3453 -0.3716
  949TIP3    H124262   6.645   6.303   0.328  1.2493 -0.7067 -0.7086
  949TIP3    H224263   6.748   6.401   0.277 -0.0752  0.8539 -0.4956
  950TIP3   OH224264   2.133   6.246  13.710 -0.0215  0.1336 -0.2966
  950TIP3    H124265   2.061   6.220  13.653  0.6663  0.7316 -1.4741
  950TIP3    H224266   2.200   6.280  13.651  0.9906  0.1655  0.8156
  951TIP3   OH224267   3.713   5.561  13.304  0.3061 -0.1877  0.8880
  951TIP3    H124268   3.733   5.489  13.244 -0.0203  0.7979 -0.4566
  951TIP3    H224269   3.796   5.579  13.348  0.0762 -2.3358  2.4062
  952TIP3   OH224270   6.506   0.846  12.016  0.3175 -0.2430  0.1143
  952TIP3    H124271   6.533   0.767  11.968 -1.3454 -0.4960 -0.4952
  952TIP3    H224272   6.412   0.835  12.028  0.4992  0.3538  2.5116
  953TIP3   OH224273   6.253   4.382   2.735  0.4710 -0.4844  0.3563
  953TIP3    H124274   6.285   4.443   2.801 -2.5101  1.2878  0.3712
  953TIP3    H224275   6.199   4.320   2.785  0.8528 -1.1477 -0.0467
  954TIP3   OH224276   6.323   4.093  16.501  0.6545  0.4717  0.3425
  954TIP3    H124277   6.249   4.152  16.513  0.7035  0.5170  0.4218
  954TIP3    H224278   6.395   4.149  16.472  0.9008  0.5641  1.1202
  955TIP3   OH224279   0.606   1.134   4.276 -0.7117 -0.3300  0.4451
  955TIP3    H124280   0.563   1.056   4.240  0.0169 -0.9114  0.7953
  955TIP3    H224281   0.665   1.163   4.206 -0.8796 -0.1813  0.3666
  956TIP3   OH224282   0.890   3.094   0.982 -0.5094 -0.6891 -0.2396
  956TIP3    H124283   0.822   3.120   0.920  0.0858 -0.8273 -0.9676
  956TIP3    H224284   0.960   3.057   0.927  1.0946  1.3984  0.2776
  957TIP3   OH224285   6.073   0.443   1.983 -0.2911 -0.0059  0.2165
  957TIP3    H124286   6.155   0.427   1.936 -0.0842 -0.9597  0.8605
  957TIP3    H224287   6.098   0.445   2.075 -0.6512  2.1239  0.3191
  958TIP3   OH224288   1.522   6.118   3.267  0.0846 -0.4943  0.3473
  958TIP3    H124289   1.482   6.194   3.224  1.6690 -0.1633 -0.6335
  958TIP3    H224290   1.474   6.109   3.349 -1.5262  0.2704 -0.4699
  959TIP3   OH224291   0.538   3.764   5.497 -0.5834  0.1129  0.2175
  959TIP3    H124292   0.556   3.856   5.513 -1.8796  0.5961 -0.8920
  959TIP3    H224293   0.606   3.717   5.546  0.0172  1.6361  0.9044
  960TIP3   OH224294   3.848   6.574  14.248  0.1254  0.2128 -0.0883
  960TIP3    H124295   3.882   6.593  14.161 -1.6825  2.1432 -0.4671
  960TIP3    H224296   3.924   6.580  14.306  1.6739 -2.6412 -1.6242
  961TIP3   OH224297   3.543   2.569  13.472 -0.2933  0.0739 -0.4320
  961TIP3    H124298   3.588   2.613  13.400  0.4957  1.0008  0.6009
  961TIP3    H224299   3.583   2.482  13.475  0.0003  0.1934 -0.7945
  962TIP3   OH224300   0.806   0.613  15.067  0.7213 -0.2096  0.0264
  962TIP3    H124301   0.730   0.631  15.123  1.3739  0.9086  0.5912
  962TIP3    H224302   0.874   0.585  15.128  0.4094 -2.5723 -0.6117
  963TIP3   OH224303   1.140   6.620  14.239 -0.6809  0.7049 -0.0011
  963TIP3    H124304   1.122   6.529  14.265  0.1597  0.3065 -0.7498
  963TIP3    H224305   1.053   6.659  14.229 -1.0549 -0.0086  0.3650
  964TIP3   OH224306   0.280   0.554   2.123  0.6611  0.3572 -0.3548
  964TIP3    H124307   0.239   0.481   2.076  0.5307 -0.9376  1.6402
  964TIP3    H224308   0.206   0.605   2.156  0.6817 -0.2146  0.6074
  965TIP3   OH224309   5.580   1.983   4.583  0.2222 -0.7094  0.1155
  965TIP3    H124310   5.510   2.043   4.556  0.6617  0.2132  0.9346
  965TIP3    H224311   5.636   2.036   4.641  1.6433 -1.3898 -0.5674
  966TIP3   OH224312   1.159   0.519   6.262 -0.0086 -0.0144 -0.1096
  966TIP3    H124313   1.174   0.607   6.227 -1.4534  0.1540 -0.3794
  966TIP3    H224314   1.064   0.514   6.273  0.0570 -1.5267 -0.0587
  967TIP3   OH224315   6.401   3.758  12.819  0.2678 -0.6892 -0.0098
  967TIP3    H124316   6.476   3.813  12.841 -1.1572  0.3479  2.7063
  967TIP3    H224317   6.359   3.739  12.903 -2.9548 -0.5394 -1.3994
  968TIP3   OH224318   2.607   5.720   5.127  0.3696  0.0106  0.1579
  968TIP3    H124319   2.591   5.644   5.182 -0.9601 -0.4880 -0.8519
  968TIP3    H224320   2.700   5.714   5.104  0.6768 -0.3649  1.4394
  969TIP3   OH224321   2.873   2.507   5.288 -0.3686  0.1897 -0.1437
  969TIP3    H124322   2.837   2.438   5.233 -1.6810 -0.3409  1.3395
  969TIP3    H224323   2.938   2.463   5.343  0.9493  0.7223 -1.2018
  970TIP3   OH224324   4.579   2.518  13.024 -0.2229  0.3816 -0.5042
  970TIP3    H124325   4.527   2.484  13.096 -1.5917  0.6932 -1.3169
  970TIP3    H224326   4.522   2.580  12.980  1.3296  1.8478 -0.5814
  971TIP3   OH224327   1.449   1.261  15.206  0.1315 -0.0269 -0.0901
  971TIP3    H124328   1.493   1.194  15.259 -0.8624  0.4408  1.3962
  971TIP3    H224329   1.519   1.303  15.158  0.8935 -1.4969 -0.3313
  972TIP3   OH224330   4.327   0.032  13.210 -0.1761  0.6466  0.0875
  972TIP3    H124331   4.290  -0.056  13.204 -0.5617  0.4613  3.1915
  972TIP3    H224332   4.343   0.058  13.120  1.4296 -3.1978 -0.9161
  973TIP3   OH224333   4.240   0.036   2.363 -0.2587  0.7433  0.1798
  973TIP3    H124334   4.220  -0.008   2.281  0.8105 -0.4197  0.5227
  973TIP3    H224335   4.175   0.106   2.369 -0.7639  0.4280 -1.3225
  974TIP3   OH224336   5.607   2.345  14.888 -0.0229  0.0978  0.1253
  974TIP3    H124337   5.588   2.357  14.981  0.0815 -1.0457  0.3008
  974TIP3    H224338   5.668   2.416  14.867  0.5778 -0.1098  1.1169
  975TIP3   OH224339   3.234   6.169   4.353 -0.0252 -0.0860 -0.4542
  975TIP3    H124340   3.173   6.100   4.327 -0.2151 -0.1324  0.0922
  975TIP3    H224341   3.252   6.218   4.273 -1.3274  0.3689 -0.4874
  976TIP3   OH224342   3.322   2.633  12.944 -0.3967  0.3435  0.2981
  976TIP3    H124343   3.412   2.644  12.913  0.3698 -2.7093  1.0968
  976TIP3    H224344   3.329   2.636  13.039 -1.1540  0.0358  0.3684
  977TIP3   OH224345   0.923   2.765  14.423  0.0294 -0.1157  0.0088
  977TIP3    H124346   1.005   2.813  14.414 -1.5401  2.3321 -2.5448
  977TIP3    H224347   0.913   2.718  14.341 -0.7631 -1.0678  0.6187
  978TIP3   OH224348   4.030   1.383   0.479 -0.0028 -0.4557 -0.6257
  978TIP3    H124349   4.027   1.302   0.528 -1.4797 -0.8629 -1.3397
  978TIP3    H224350   4.114   1.423   0.503  0.3112 -1.7170  0.4544
  979TIP3   OH224351   0.732   0.696  12.933  0.2311 -0.2996 -0.0955
  979TIP3    H124352   0.745   0.754  13.008 -3.1535  0.6207 -0.0377
  979TIP3    H224353   0.770   0.613  12.960  1.3116  0.6914  1.6131
  980TIP3   OH224354   3.215   4.643  14.001 -0.6059 -0.3977 -0.4949
  980TIP3    H124355   3.145   4.659  13.938 -2.7150  0.3051  1.8862
  980TIP3    H224356   3.207   4.714  14.064  1.3065 -1.1582  0.6884
  981TIP3   OH224357   2.985   4.829   4.025  0.5874 -0.0911  0.0054
  981TIP3    H124358   3.010   4.838   3.933  1.1107  1.5574  0.2610
  981TIP3    H224359   2.890   4.827   4.025  0.6010 -1.6229 -0.6618
  982TIP3   OH224360   1.365   4.726  10.994 -0.4661 -0.4143 -0.7277
  982TIP3    H124361   1.300   4.715  10.925  0.4376 -0.4677 -1.5949
  982TIP3    H224362   1.371   4.820  11.006 -0.1205 -0.3731 -1.2178
  983TIP3   OH224363   6.816   3.415  14.567 -0.5082  0.2901  0.3772
  983TIP3    H124364   6.733   3.377  14.595 -0.0463 -1.9266 -1.0443
  983TIP3    H224365   6.794   3.469  14.491 -0.6481 -0.4250 -0.0987
  984TIP3   OH224366   0.374   4.107  13.237  0.0337 -0.0363 -0.1038
  984TIP3    H124367   0.401   4.176  13.298  0.1371 -1.8228  1.9755
  984TIP3    H224368   0.281   4.125  13.221  0.0681  0.6021  0.3826
  985TIP3   OH224369   6.594   5.914   4.275 -0.0343 -0.2659  0.3774
  985TIP3    H124370   6.645   5.912   4.194  0.2181 -0.4455  0.5415
  985TIP3    H224371   6.654   5.882   4.342 -0.0849  0.3775  0.7264
  986TIP3   OH224372   5.384   2.131   4.980  0.3906 -0.0894  0.4298
  986TIP3    H124373   5.448   2.116   5.049  1.9928 -0.1828 -1.0323
  986TIP3    H224374   5.300   2.107   5.020  1.3483 -0.7779  2.1094
  987TIP3   OH224375   4.184   3.232   0.883  0.5332 -0.1938  0.2176
  987TIP3    H124376   4.253   3.167   0.871  1.2864  0.5143  0.6313
  987TIP3    H224377   4.103   3.185   0.861  1.3235 -0.3285 -2.7513
  988TIP3   OH224378   5.634   5.197   4.789 -0.7852 -0.2484  0.0770
  988TIP3    H124379   5.601   5.177   4.877 -0.2384 -0.3181  0.2726
  988TIP3    H224380   5.662   5.289   4.795  3.1278 -1.3520  1.2434
  989TIP3   OH224381   0.359   2.375  10.881  0.1077  0.1332  0.4111
  989TIP3    H124382   0.396   2.434  10.815 -0.7540  2.7162  2.1159
  989TIP3    H224383   0.265   2.394  10.881 -0.7978 -3.4765 -1.0552
  990TIP3   OH224384   2.152   2.228   3.495  0.1545 -0.2610 -0.1747
  990TIP3    H124385   2.146   2.259   3.405 -1.3564 -0.0669 -0.0284
  990TIP3    H224386   2.130   2.135   3.489  2.2801 -0.8176 -0.2772
  991TIP3   OH224387   5.085   4.472   0.835  0.2154  0.1463 -0.0415
  991TIP3    H124388   5.119   4.553   0.873 -0.5500  0.8445 -0.8022
  991TIP3    H224389   4.993   4.469   0.864  0.2521 -0.4793  0.0222
  992TIP3   OH224390   0.139   5.542   0.342  0.2191  0.1441 -0.0472
  992TIP3    H124391   0.116   5.633   0.324 -1.6031 -0.2144  0.2566
  992TIP3    H224392   0.056   5.501   0.367  0.9595 -1.6672 -0.4276
  993TIP3   OH224393   0.818   2.786  15.638  0.4516  0.4698 -0.1004
  993TIP3    H124394   0.870   2.858  15.673  3.0881 -1.3486  0.0744
  993TIP3    H224395   0.843   2.782  15.545  0.7792 -0.5291  0.0204
  994TIP3   OH224396   2.172   4.216  12.200  0.3735 -0.5136 -0.1927
  994TIP3    H124397   2.177   4.296  12.148 -0.4496 -1.8157 -2.4306
  994TIP3    H224398   2.079   4.201  12.212  0.5262 -1.0331  0.3947
  995TIP3   OH224399   1.293   1.383  14.814  0.4775 -0.5095 -0.2512
  995TIP3    H124400   1.277   1.469  14.775 -1.1841 -0.6303  0.0981
  995TIP3    H224401   1.348   1.338  14.749 -0.3308  0.1037 -1.4096
  996TIP3   OH224402   2.049   3.629   3.040  0.8019  0.3195 -0.6665
  996TIP3    H124403   1.984   3.617   2.971  1.5618  0.2380 -1.3895
  996TIP3    H224404   2.071   3.540   3.067 -0.5828  0.3754  0.7545
  997TIP3   OH224405   5.146   4.801  12.972 -0.4599 -0.1071  0.1691
  997TIP3    H124406   5.161   4.857  13.048  0.5279 -0.7814  0.4766
  997TIP3    H224407   5.196   4.722  12.989 -0.3977 -0.3659 -1.0815
  998TIP3   OH224408   0.872   1.179  15.261 -0.1045  0.0254 -1.0281
  998TIP3    H124409   0.938   1.245  15.241 -0.2107  0.6483  0.5207
  998TIP3    H224410   0.912   1.096  15.236  1.0505  0.4517 -0.6324
  999TIP3   OH224411   1.483   3.725  15.451 -0.6135 -0.0451  0.0374
  999TIP3    H124412   1.558   3.758  15.501 -0.9352  1.3480 -0.3736
  999TIP3    H224413   1.427   3.801  15.438 -1.8885 -0.9656 -0.0776
 1000TIP3   OH224414   5.925   5.459  15.733 -0.4238 -0.5109  0.3902
 1000TIP3    H124415   5.999   5.451  15.672 -0.2947 -1.9916  0.6934
 1000TIP3    H224416   5.946   5.397  15.803 -0.3260  1.4943  2.2137
 1001TIP3   OH224417   4.952   3.369  12.762 -0.3548  0.0663 -0.0624
 1001TIP3    H124418   5.021   3.303  12.768 -1.8461 -1.6095 -0.6635
 1001TIP3    H224419   4.937   3.396  12.853  1.0190  0.4316  0.0836
 1002TIP3   OH224420   5.207   1.100   1.219  0.0157 -0.1330  0.0009
 1002TIP3    H124421   5.273   1.060   1.163 -0.8637 -0.2233 -1.0220
 1002TIP3    H224422   5.124   1.068   1.184 -0.5971  0.5579  0.7820
 1003TIP3   OH224423   3.847   2.080   1.015 -0.6823 -0.0050  0.5025
 1003TIP3    H124424   3.819   2.069   1.106 -1.3954  2.1765  0.6108
 1003TIP3    H224425   3.838   2.174   0.999  0.6057 -0.1729 -1.4630
 1004TIP3   OH224426   1.560   1.020   0.706 -0.4643  0.1617 -0.6247
 1004TIP3    H124427   1.587   0.932   0.682 -0.9713 -0.5063  1.1048
 1004TIP3    H224428   1.636   1.056   0.753 -0.3958  0.5266 -1.0053
 1005TIP3   OH224429   4.974   5.009   4.286 -0.6213 -0.5204  0.0357
 1005TIP3    H124430   5.017   4.958   4.217  0.1006  1.2547 -0.9004
 1005TIP3    H224431   5.033   5.001   4.361 -1.5847 -2.7530  0.6301
 1006TIP3   OH224432   2.942   2.587  15.990 -0.1897 -0.4547  0.5857
 1006TIP3    H124433   2.886   2.625  16.057 -0.1906 -1.5944  1.2657
 1006TIP3    H224434   2.892   2.513  15.956 -0.1917  0.1112 -0.6911
 1007TIP3   OH224435   6.251   2.749  13.575 -0.6899 -0.8820  0.4838
 1007TIP3    H124436   6.266   2.839  13.547 -3.9709 -0.0293  1.0231
 1007TIP3    H224437   6.338   2.715  13.597  0.7417  1.8153 -0.5788
 1008TIP3   OH224438   4.173   5.683   3.301  0.4063  0.0441  0.0414
 1008TIP3    H124439   4.171   5.656   3.393 -1.0520 -0.0824 -0.0145
 1008TIP3    H224440   4.219   5.612   3.256  1.8332  0.4635  0.7541
 1009TIP3   OH224441   1.076   3.690  16.986  0.0093  0.0365  0.2296
 1009TIP3    H124442   1.158   3.672  16.940 -0.5770  0.3298 -0.9465
 1009TIP3    H224443   1.043   3.770  16.947 -0.8015 -0.0226  0.7640
 1010TIP3   OH224444   6.691   1.503   1.619 -0.7984 -0.6458 -0.1636
 1010TIP3    H124445   6.597   1.491   1.606 -0.7744 -0.4405 -0.5384
 1010TIP3    H224446   6.698   1.545   1.705 -0.9694 -1.8836  0.4728
 1011TIP3   OH224447   3.295   2.397  14.075 -0.2302 -0.0487 -0.7522
 1011TIP3    H124448   3.292   2.321  14.133  0.5287 -1.1242 -2.0763
 1011TIP3    H224449   3.206   2.432  14.077  0.1179  0.9888  2.3290
 1012TIP3   OH224450   1.495   4.491   1.675 -0.4439  0.4042 -0.9863
 1012TIP3    H124451   1.576   4.520   1.633  0.6272  1.9671  1.9489
 1012TIP3    H224452   1.436   4.567   1.671  0.2006  1.0998  1.4708
 1013TIP3   OH224453   6.070   4.890  13.781  0.0835  0.6728  0.3351
 1013TIP3    H124454   6.114   4.885  13.866  0.4469  2.1266  0.2540
 1013TIP3    H224455   6.096   4.974  13.745  0.5104 -0.2210 -1.5703
 1014TIP3   OH224456   4.023   3.828   6.226 -0.3195 -0.0435 -0.0697
 1014TIP3    H124457   4.062   3.908   6.261 -1.6221  0.6585 -0.1612
 1014TIP3    H224458   3.975   3.790   6.300 -1.5252  0.4504 -0.5658
 1015TIP3   OH224459   0.973   3.978  11.830  0.0836  0.0063 -0.1350
 1015TIP3    H124460   0.904   3.912  11.835  0.6408 -0.5673  0.0704
 1015TIP3    H224461   0.965   4.014  11.742 -2.6597  2.3777  0.9094
 1016TIP3   OH224462   5.891   3.856  16.806  0.8306 -0.0533 -0.1274
 1016TIP3    H124463   5.798   3.837  16.797  0.4939  0.7020  1.4026
 1016TIP3    H224464   5.917   3.887  16.719 -0.5765  0.6297 -0.3414
 1017TIP3   OH224465   4.993   3.656   1.340 -0.3171  0.5374  0.5364
 1017TIP3    H124466   5.048   3.686   1.268  1.1866  0.3791  1.5663
 1017TIP3    H224467   4.986   3.562   1.327 -1.0425  0.6635 -0.0434
 1018TIP3   OH224468   2.291   5.096   0.962  0.1216  0.3387 -0.2063
 1018TIP3    H124469   2.241   5.148   1.025  1.0321  1.1641 -0.1303
 1018TIP3    H224470   2.304   5.012   1.005 -0.5243  0.3863  0.0911
 1019TIP3   OH224471   5.790   5.024  10.436  0.2434  0.0566 -0.2072
 1019TIP3    H124472   5.725   5.073  10.488 -0.3928 -1.3459  0.3624
 1019TIP3    H224473   5.846   5.092  10.398 -0.6625  1.2319  0.4820
 1020TIP3   OH224474   6.665   2.332   0.878 -0.0281 -0.1483  0.7161
 1020TIP3    H124475   6.739   2.352   0.822 -0.0522 -1.1017  0.3295
 1020TIP3    H224476   6.663   2.237   0.884 -1.2609 -0.1514  0.6607
 1021TIP3   OH224477   3.813   4.149   0.976  0.0919 -0.2207  0.2151
 1021TIP3    H124478   3.798   4.127   0.884 -1.1903  1.4301 -0.0094
 1021TIP3    H224479   3.725   4.158   1.014  0.4884  2.5628  0.6990
 1022TIP3   OH224480   6.281   5.823  15.314 -0.7258  0.4791 -0.2470
 1022TIP3    H124481   6.255   5.828  15.222  1.1350 -2.4452 -1.0742
 1022TIP3    H224482   6.285   5.730  15.333  1.2223  0.9329  2.1135
 1023TIP3   OH224483   6.055   3.426   1.168  0.2371  0.1461 -0.1531
 1023TIP3    H124484   5.968   3.386   1.172  0.9791 -1.4586  2.0141
 1023TIP3    H224485   6.095   3.406   1.253  2.3963  1.6322 -0.7271
 1024TIP3   OH224486   5.693   2.740   0.390  0.8741 -0.6030  0.3434
 1024TIP3    H124487   5.765   2.783   0.344  1.4354 -1.2314  0.6032
 1024TIP3    H224488   5.667   2.668   0.332 -1.6840  1.4367 -1.2309
 1025TIP3   OH224489   0.367   4.715   3.129 -0.6793  0.0007  0.5994
 1025TIP3    H124490   0.291   4.710   3.070  0.4970 -1.2187 -0.8951
 1025TIP3    H224491   0.396   4.806   3.123 -1.6478  0.3273  0.7120
 1026TIP3   OH224492   1.632   1.756  15.949  0.1483  0.5114 -0.1599
 1026TIP3    H124493   1.724   1.747  15.975  0.5631  1.0580 -1.3903
 1026TIP3    H224494   1.621   1.849  15.931  0.0658  0.0979 -2.5270
 1027TIP3   OH224495   5.756   2.567  11.141 -0.2081 -0.3780 -0.8246
 1027TIP3    H124496   5.664   2.544  11.126  0.1225 -2.4692  0.0551
 1027TIP3    H224497   5.759   2.596  11.232 -0.3740  2.2339 -1.5435
 1028TIP3   OH224498   1.157   6.001  13.866 -0.2085 -0.1285  0.1916
 1028TIP3    H124499   1.205   6.016  13.948  0.3325 -1.1055  0.0599
 1028TIP3    H224500   1.067   5.984  13.894  0.3162 -2.3206  0.7624
 1029TIP3   OH224501   4.296   5.313  10.406  0.3888 -0.2850 -0.4496
 1029TIP3    H124502   4.248   5.387  10.444  1.0501 -0.7311  1.3396
 1029TIP3    H224503   4.243   5.237  10.429  0.5177 -0.5105 -0.9055
 1030TIP3   OH224504   2.534   4.123  13.722  0.1243 -0.1124 -1.0395
 1030TIP3    H124505   2.561   4.059  13.657  0.4969  0.1246 -1.1156
 1030TIP3    H224506   2.551   4.081  13.806  0.4343 -0.0821 -1.0890
 1031TIP3   OH224507   2.593   2.659   0.119 -0.6025 -0.3142  0.4199
 1031TIP3    H124508   2.501   2.642   0.140 -0.2782  0.1255  2.4099
 1031TIP3    H224509   2.634   2.573   0.114 -1.8007 -0.8530 -4.5362
 1032TIP3   OH224510   6.199   3.662   4.106  0.2104  0.3667  0.6043
 1032TIP3    H124511   6.271   3.708   4.063  1.2921 -0.8422  1.0758
 1032TIP3    H224512   6.172   3.721   4.176 -0.1162  1.3781 -0.3355
 1033TIP3   OH224513   5.779   1.168   1.671  0.5207 -0.4418  0.4734
 1033TIP3    H124514   5.721   1.094   1.653 -0.8536  1.1481 -2.2540
 1033TIP3    H224515   5.812   1.194   1.585  1.0105  2.0706  1.3451
 1034TIP3   OH224516   5.431   5.147  15.822  0.3323  0.3797 -0.2053
 1034TIP3    H124517   5.479   5.108  15.749  0.1058 -0.6953  0.1998
 1034TIP3    H224518   5.388   5.223  15.784  0.3369 -0.0777 -1.1609
 1035TIP3   OH224519   4.159   2.833   1.805  0.5091 -0.2167 -0.1483
 1035TIP3    H124520   4.101   2.908   1.815  2.3909  1.4626 -1.1550
 1035TIP3    H224521   4.229   2.848   1.868  1.1656 -0.8807 -0.7051
 1036TIP3   OH224522   1.455   2.932   0.903 -0.2114 -0.0885  0.3454
 1036TIP3    H124523   1.365   2.939   0.935  0.3230  0.1939  1.8480
 1036TIP3    H224524   1.459   2.993   0.829 -1.1690  0.1092  0.4378
 1037TIP3   OH224525   0.354   1.965   2.805  0.2747 -0.1986 -0.3437
 1037TIP3    H124526   0.388   1.886   2.763  0.3977 -0.4068  0.1372
 1037TIP3    H224527   0.299   1.932   2.876  0.5453  0.1463  0.0306
 1038TIP3   OH224528   6.244   6.600   3.865  0.0383 -0.1416  0.2597
 1038TIP3    H124529   6.248   6.544   3.788 -1.2959  0.4794 -0.2850
 1038TIP3    H224530   6.183   6.556   3.924 -1.8783  1.1890 -0.6174
 1039TIP3   OH224531   0.864   4.054   2.911  0.4045  0.2663 -0.2864
 1039TIP3    H124532   0.859   4.057   2.816  1.7053  0.5096 -0.3563
 1039TIP3    H224533   0.896   4.141   2.936  2.3413 -0.5459  0.1991
 1040TIP3   OH224534   2.307   0.929   2.901 -0.5698  0.6351 -0.2429
 1040TIP3    H124535   2.219   0.941   2.865 -0.9354 -0.7778  0.1145
 1040TIP3    H224536   2.317   0.834   2.910  1.0850  0.7463 -0.4888
 1041TIP3   OH224537   1.768   4.896   5.189  0.1022  0.3252 -0.0468
 1041TIP3    H124538   1.741   4.974   5.140 -0.3690 -0.5286 -1.1882
 1041TIP3    H224539   1.864   4.901   5.190  0.1231  0.3434 -1.1096
 1042TIP3   OH224540   3.425   0.670   1.283  0.0690 -0.2166  0.3274
 1042TIP3    H124541   3.385   0.692   1.368 -0.4575 -0.4617  0.1433
 1042TIP3    H224542   3.394   0.582   1.264  1.8465 -1.0017  0.8607
 1043TIP3   OH224543   0.958   0.108  15.610  0.1013  0.1191 -0.6229
 1043TIP3    H124544   0.886   0.067  15.562  0.2885 -0.9694 -0.0120
 1043TIP3    H224545   0.926   0.115  15.700  0.3906  0.5453 -0.5518
 1044TIP3   OH224546   2.870   5.741   5.067 -0.5577  0.1292  0.7619
 1044TIP3    H124547   2.912   5.655   5.078 -1.8327 -0.3793  1.7995
 1044TIP3    H224548   2.915   5.797   5.129  1.8477  0.8683 -1.4682
 1045TIP3   OH224549   3.646   0.732  14.705  0.6018 -0.5173  0.5936
 1045TIP3    H124550   3.621   0.725  14.613  1.6951  0.2624  0.2109
 1045TIP3    H224551   3.735   0.695  14.709  0.6392 -0.3762  1.2920
 1046TIP3   OH224552   5.097   4.744   3.197  0.7281 -0.8065  0.0742
 1046TIP3    H124553   5.132   4.730   3.109  2.0337 -0.4983  0.5120
 1046TIP3    H224554   5.003   4.729   3.188  0.8842 -1.1723 -1.2828
 1047TIP3   OH224555   0.685   3.188   0.823  0.3611  0.4509  0.1435
 1047TIP3    H124556   0.634   3.147   0.894  0.0466  0.6955  0.0603
 1047TIP3    H224557   0.639   3.270   0.805 -1.4700 -1.0169 -2.5203
 1048TIP3   OH224558   2.151   3.912   0.359  0.2625 -0.3234  0.6549
 1048TIP3    H124559   2.093   3.921   0.283  3.0311  2.5745 -1.3814
 1048TIP3    H224560   2.215   3.846   0.334  1.6751  1.2244 -0.0047
 1049TIP3   OH224561   4.820   5.052  12.794 -0.3694  0.2312  0.7822
 1049TIP3    H124562   4.837   5.022  12.705 -1.5309 -0.1438  0.6747
 1049TIP3    H224563   4.798   4.973  12.843  1.3225  0.2737  1.7025
 1050TIP3   OH224564   4.168   3.533  11.298 -0.0760  0.4466  0.3987
 1050TIP3    H124565   4.114   3.527  11.218 -0.2375 -1.5656  0.6012
 1050TIP3    H224566   4.258   3.523  11.266 -0.1078  0.0962  0.4132
 1051TIP3   OH224567   1.968   5.125   5.292 -0.3425 -0.6246  0.4167
 1051TIP3    H124568   1.883   5.163   5.273 -0.6421 -1.7884 -0.6564
 1051TIP3    H224569   1.983   5.145   5.385 -1.4609  0.1799  0.4369
 1052TIP3   OH224570   2.862   1.139  15.756  0.3611  0.8184  0.1355
 1052TIP3    H124571   2.843   1.217  15.703 -0.8095 -0.4385 -1.3984
 1052TIP3    H224572   2.790   1.079  15.737  1.6669 -0.9742  0.5848
 1053TIP3   OH224573   6.162   6.672   5.722 -0.4606 -0.0485  0.1537
 1053TIP3    H124574   6.077   6.639   5.694 -0.8105  0.1776  0.9382
 1053TIP3    H224575   6.162   6.661   5.817  0.9848 -1.4895  0.0470
 1054TIP3   OH224576   4.941   1.448  16.698  0.0882 -0.3497  0.3797
 1054TIP3    H124577   5.019   1.495  16.727 -1.0598  1.8844  0.0256
 1054TIP3    H224578   4.953   1.438  16.603 -0.4025  0.7498  0.1877
 1055TIP3   OH224579   5.900   5.438   0.471  0.4451 -0.2508  0.1677
 1055TIP3    H124580   5.978   5.410   0.520  0.5359 -1.2165 -0.5097
 1055TIP3    H224581   5.885   5.369   0.407 -0.8111  0.0643  0.0887
 1056TIP3   OH224582   1.526   6.789  13.895  0.2022 -0.5496  0.6805
 1056TIP3    H124583   1.486   6.721  13.950  0.5620 -0.6272  0.8443
 1056TIP3    H224584   1.524   6.867  13.950 -0.3483 -0.3868  0.4375
 1057TIP3   OH224585   2.572   3.306  12.106 -0.3096  0.1513  0.7388
 1057TIP3    H124586   2.510   3.311  12.033 -0.1576  0.0780  0.6041
 1057TIP3    H224587   2.589   3.397  12.130 -0.4686  0.1706  0.7733
 1058TIP3   OH224588   4.816   3.508   1.760  0.3010 -0.7178  0.1278
 1058TIP3    H124589   4.797   3.551   1.677  2.4393  0.8301  0.3625
 1058TIP3    H224590   4.749   3.439   1.768 -2.0663  1.2914 -1.1947
 1059TIP3   OH224591   3.322   6.479  12.575 -0.2644 -0.1525 -0.1526
 1059TIP3    H124592   3.396   6.421  12.594  1.0152  1.4580 -0.0197
 1059TIP3    H224593   3.328   6.495  12.481 -0.8946 -0.5998 -0.2706
 1060TIP3   OH224594   4.801   3.814  14.590  0.0159 -0.5341 -0.7070
 1060TIP3    H124595   4.873   3.820  14.653 -1.1049  1.6826  0.4757
 1060TIP3    H224596   4.827   3.872  14.518  0.2749 -1.2756 -1.2167
 1061TIP3   OH224597   1.044   0.986   1.032 -0.5564  0.0682  0.2294
 1061TIP3    H124598   1.097   1.058   0.999 -1.6165  0.9039  0.2826
 1061TIP3    H224599   1.034   0.927   0.958 -1.0833  0.8354 -0.3303
 1062TIP3   OH224600   4.983   6.806   5.695 -0.5508  0.0301  0.0966
 1062TIP3    H124601   4.954   6.884   5.742 -0.9629  0.3052 -0.6073
 1062TIP3    H224602   4.920   6.796   5.624 -0.5874 -1.0337  0.2722
 1063TIP3   OH224603   5.016   0.771  13.389  0.2191 -0.1936  0.2210
 1063TIP3    H124604   5.023   0.740  13.299 -1.5723  0.1900 -0.0896
 1063TIP3    H224605   5.032   0.694  13.443 -1.4799 -1.1003 -0.4945
 1064TIP3   OH224606   2.005   1.181  16.246 -0.3487  0.5311  0.1973
 1064TIP3    H124607   2.030   1.272  16.264 -0.0715  0.4940  0.0118
 1064TIP3    H224608   2.089   1.134  16.241 -0.5336  0.0010  1.6495
 1065TIP3   OH224609   0.092   2.161  14.736 -0.1706 -0.4067 -0.1636
 1065TIP3    H124610   0.112   2.121  14.820 -0.0368 -0.0108 -0.0033
 1065TIP3    H224611   0.174   2.204  14.710 -0.1900 -0.5787 -0.5276
 1066TIP3   OH224612   2.560   1.300  15.811 -0.2942 -0.6803  0.1491
 1066TIP3    H124613   2.494   1.282  15.744 -0.0667 -0.8918 -0.0170
 1066TIP3    H224614   2.634   1.244  15.788  0.6160  0.8002 -0.6726
 1067TIP3   OH224615   1.520   0.749   4.862  0.2946  0.0597  0.3291
 1067TIP3    H124616   1.588   0.685   4.883  0.2888  0.4422  1.6142
 1067TIP3    H224617   1.445   0.697   4.833  0.4005 -0.5059  1.0507
 1068TIP3   OH224618   3.520   3.292  14.544 -0.8279  0.5200  0.1444
 1068TIP3    H124619   3.439   3.284  14.595 -0.4505 -0.0923  0.6541
 1068TIP3    H224620   3.492   3.279  14.453 -1.0651 -1.4212  0.4636
 1069TIP3   OH224621   3.246   3.626  11.473  0.2849 -0.2362  0.4483
 1069TIP3    H124622   3.259   3.566  11.399 -0.1043  2.8525 -2.3400
 1069TIP3    H224623   3.152   3.628  11.486  0.1669  0.7063 -0.4005
 1070TIP3   OH224624   6.574   2.049   2.228 -0.1132  0.4012 -0.2946
 1070TIP3    H124625   6.482   2.032   2.206 -0.4359  1.6319 -0.0058
 1070TIP3    H224626   6.582   2.020   2.319  0.6353 -2.5898 -1.2027
 1071TIP3   OH224627   5.461   3.394  16.107 -0.2698 -0.3208  0.0706
 1071TIP3    H124628   5.470   3.378  16.201 -2.3092 -0.0703  0.3658
 1071TIP3    H224629   5.502   3.318  16.066 -0.2524 -0.9443  1.1990
 1072TIP3   OH224630   5.794   6.261  12.873  0.8693 -0.3812  0.2246
 1072TIP3    H124631   5.873   6.302  12.837  1.3566 -1.2001  0.3352
 1072TIP3    H224632   5.823   6.225  12.958  0.3916 -0.7116  0.2492
 1073TIP3   OH224633   5.895   4.649  12.262 -0.5880 -0.3618  0.1590
 1073TIP3    H124634   5.938   4.616  12.341 -1.4325 -0.4213  0.6068
 1073TIP3    H224635   5.807   4.611  12.265  0.1341 -2.4406 -2.1500
 1074TIP3   OH224636   2.338   1.375   2.835 -0.2180 -0.0461  0.0682
 1074TIP3    H124637   2.372   1.448   2.887 -2.1267 -0.2462  1.7099
 1074TIP3    H224638   2.323   1.413   2.748  0.7878  0.9416  0.3003
 1075TIP3   OH224639   2.067   1.899   5.355 -0.1206 -0.5956  0.5462
 1075TIP3    H124640   2.128   1.873   5.286 -0.2767  1.5244 -0.4574
 1075TIP3    H224641   2.100   1.856   5.434  0.8243 -2.0010 -0.5673
 1076TIP3   OH224642   0.010   6.624   1.835 -0.1210  0.3877 -0.4528
 1076TIP3    H124643  -0.075   6.608   1.876  0.0680 -0.9789 -0.5287
 1076TIP3    H224644  -0.010   6.674   1.756 -0.7588  0.8133 -0.0289
 1077TIP3   OH224645   5.765   4.949   3.988  0.1316  0.1845 -0.2582
 1077TIP3    H124646   5.820   5.021   3.958 -0.4462 -0.4444 -3.1518
 1077TIP3    H224647   5.783   4.877   3.927 -0.0276 -1.8531  1.9395
 1078TIP3   OH224648   5.478   4.249  11.177  0.2084 -0.0302 -0.0225
 1078TIP3    H124649   5.526   4.181  11.128 -1.0875  0.7726 -2.6092
 1078TIP3    H224650   5.387   4.221  11.173 -0.1502  1.0650  0.2633
 1079TIP3   OH224651   1.160   6.337  11.985 -0.5528 -0.7795 -0.0012
 1079TIP3    H124652   1.112   6.266  11.943 -0.8455 -0.0992 -0.8672
 1079TIP3    H224653   1.107   6.415  11.968  0.8401  0.0099 -1.0368
 1080TIP3   OH224654   3.676   4.318  15.146 -0.5194  0.0731 -0.4937
 1080TIP3    H124655   3.651   4.234  15.184 -1.7221  0.2670 -0.8213
 1080TIP3    H224656   3.752   4.346  15.197 -0.8094 -0.6735  0.3694
 1081TIP3   OH224657   0.779   1.581  13.604 -0.1754  0.0852  0.6086
 1081TIP3    H124658   0.715   1.553  13.669  0.2521 -0.1512  0.9321
 1081TIP3    H224659   0.808   1.667  13.633 -1.8382  1.1251 -0.6405
 1082TIP3   OH224660   2.663   4.437   2.697 -0.4692 -0.0242  0.0598
 1082TIP3    H124661   2.729   4.412   2.761  0.7756  1.0232 -0.7544
 1082TIP3    H224662   2.584   4.391   2.725 -0.6253  2.0403  3.6027
 1083TIP3   OH224663   1.836   5.845  16.065 -0.0281  0.6450 -0.3565
 1083TIP3    H124664   1.754   5.829  16.110 -0.8196  1.3195 -1.5029
 1083TIP3    H224665   1.864   5.932  16.094 -0.1191  0.7379 -0.5441
 1084TIP3   OH224666   5.357   2.098   6.502  0.8874  0.4998  0.1029
 1084TIP3    H124667   5.382   2.034   6.435  0.6280  0.3523  0.1424
 1084TIP3    H224668   5.355   2.182   6.456 -3.1599 -0.0555 -1.1607
 1085TIP3   OH224669   5.735   2.331   3.329  0.4539 -0.2162 -0.0581
 1085TIP3    H124670   5.790   2.253   3.320 -0.0722 -0.4951 -1.1070
 1085TIP3    H224671   5.689   2.337   3.245 -0.6681  0.3446  0.5801
 1086TIP3   OH224672   6.028   1.264   4.700 -0.0224  0.1546  0.0242
 1086TIP3    H124673   6.036   1.305   4.614  1.4815  1.3526  0.6901
 1086TIP3    H224674   5.962   1.316   4.746  1.0736  1.1978  0.4754
 1087TIP3   OH224675   5.714   5.525  11.125  0.5780 -0.4434 -0.5663
 1087TIP3    H124676   5.736   5.460  11.192  0.1947 -0.9975 -0.9671
 1087TIP3    H224677   5.620   5.541  11.138  0.1574 -1.6638 -1.9044
 1088TIP3   OH224678   6.197   5.531  13.217  0.4389  0.5810 -0.3017
 1088TIP3    H124679   6.181   5.622  13.244  0.2747  0.4348  0.1067
 1088TIP3    H224680   6.286   5.513  13.247 -0.0343  0.1556  0.9011
 1089TIP3   OH224681   2.905   3.811   2.869  0.2201 -0.5917 -0.1511
 1089TIP3    H124682   2.857   3.892   2.883 -0.1931 -0.6606 -1.1181
 1089TIP3    H224683   2.983   3.819   2.924  0.7648  0.9574 -1.0940
 1090TIP3   OH224684   3.456   0.637  12.663  0.1541 -0.5437  0.2992
 1090TIP3    H124685   3.377   0.630  12.609  0.4633 -0.4412 -0.1699
 1090TIP3    H224686   3.477   0.730  12.663 -0.0526 -0.4924  0.9019
 1091TIP3   OH224687   6.044   5.121   1.589 -0.2239 -0.2552  0.4625
 1091TIP3    H124688   5.965   5.171   1.608 -0.1517  0.2668 -0.5055
 1091TIP3    H224689   6.012   5.038   1.553 -0.3688  0.5690 -1.4281
 1092TIP3   OH224690   2.640   3.617   4.736  0.2389 -0.2886  0.0324
 1092TIP3    H124691   2.631   3.566   4.816  0.7752 -0.9123 -0.2865
 1092TIP3    H224692   2.568   3.587   4.680  0.1806 -0.2438  0.0839
 1093TIP3   OH224693   6.791   5.802   3.672  0.4863  0.2148 -0.7565
 1093TIP3    H124694   6.751   5.783   3.588  1.6066 -1.4172 -0.9808
 1093TIP3    H224695   6.808   5.896   3.671  0.5291  0.2116 -2.3755
 1094TIP3   OH224696   0.126   0.794  14.032 -0.4787 -0.3684 -0.2814
 1094TIP3    H124697   0.113   0.877  13.988 -1.6550 -0.9070 -0.9895
 1094TIP3    H224698   0.056   0.790  14.097  0.8508  0.1302  1.2486
 1095TIP3   OH224699   3.776   2.073   6.212  0.1446 -0.0031 -0.4106
 1095TIP3    H124700   3.793   2.118   6.295 -1.7246 -0.4210  0.2636
 1095TIP3    H224701   3.727   2.136   6.160 -1.6083 -0.8376  0.1510
 1096TIP3   OH224702   2.703   3.153  12.706  0.0036 -0.2859  0.1778
 1096TIP3    H124703   2.733   3.108  12.627  0.2593  0.4141 -0.1300
 1096TIP3    H224704   2.655   3.086  12.755 -0.7523 -0.5515 -0.8922
 1097TIP3   OH224705   0.414   4.293  10.979 -0.0889 -0.4183  0.0349
 1097TIP3    H124706   0.437   4.379  10.944  0.0840 -0.8745 -1.0334
 1097TIP3    H224707   0.392   4.308  11.071 -1.1095  0.9279 -0.4064
 1098TIP3   OH224708   6.489   3.449   0.030 -0.0804  0.0491  0.5373
 1098TIP3    H124709   6.535   3.370   0.001 -2.4414 -0.7030 -1.5409
 1098TIP3    H224710   6.545   3.521   0.003  0.2204 -0.8396 -1.4083
 1099TIP3   OH224711   3.330   4.346   0.585  0.3580 -0.3865 -0.7479
 1099TIP3    H124712   3.302   4.377   0.498  0.6181  0.4421 -0.5447
 1099TIP3    H224713   3.369   4.260   0.568  0.6188 -0.1328 -1.4942
 1100TIP3   OH224714   4.293   6.283  14.195 -0.1304  0.0448  1.1358
 1100TIP3    H124715   4.375   6.238  14.176  0.5467  2.3304 -2.3906
 1100TIP3    H224716   4.229   6.239  14.139 -0.4554  0.4981  1.1447
 1101TIP3   OH224717   4.670   0.288  16.495  0.2736  0.6867  0.3058
 1101TIP3    H124718   4.677   0.368  16.546 -0.4839  1.9490 -1.4842
 1101TIP3    H224719   4.702   0.219  16.554  0.9715  2.2801  1.8705
 1102TIP3   OH224720   2.285   5.561  13.534 -0.2345  0.6930 -0.5767
 1102TIP3    H124721   2.241   5.508  13.601 -0.4210  0.2743 -1.0260
 1102TIP3    H224722   2.369   5.516  13.520 -0.6469  0.1586 -1.3974
 1103TIP3   OH224723   1.200   4.471   1.340  0.1813  0.5389  0.0327
 1103TIP3    H124724   1.206   4.566   1.345 -0.7884  0.5734  0.7651
 1103TIP3    H224725   1.133   4.454   1.274 -0.2332  0.3922  0.4807
 1104TIP3   OH224726   6.451   6.030  13.087  0.0678 -0.1382  0.7624
 1104TIP3    H124727   6.427   6.108  13.037 -1.4073 -0.5890  0.7485
 1104TIP3    H224728   6.457   6.061  13.178  2.1486  0.5425  0.4686
 1105TIP3   OH224729   3.584   2.851  12.028 -0.0049 -0.9327  0.0341
 1105TIP3    H124730   3.643   2.788  12.071 -0.0230 -0.0871  1.3581
 1105TIP3    H224731   3.597   2.932  12.076 -0.6324 -0.1399 -1.0912
 1106TIP3   OH224732   1.431   4.221  16.866  0.7357 -0.2904  0.4376
 1106TIP3    H124733   1.513   4.244  16.821  0.1184 -0.9072 -1.0840
 1106TIP3    H224734   1.442   4.128  16.888  0.1540 -0.6009 -0.5080
 1107TIP3   OH224735   0.481   0.299   6.048  0.3562 -0.0380 -0.4019
 1107TIP3    H124736   0.400   0.341   6.078  0.2591  0.5202 -1.3940
 1107TIP3    H224737   0.524   0.366   5.995  1.6894 -0.1798  0.4340
 1108TIP3   OH224738   2.210   1.941   2.367 -0.1394 -0.1741  0.6516
 1108TIP3    H124739   2.220   1.846   2.363  1.5560 -0.0130  0.2537
 1108TIP3    H224740   2.291   1.972   2.408 -1.4489  0.9815  2.5127
 1109TIP3   OH224741   0.824   6.628   0.980 -0.2757 -0.2442  0.0578
 1109TIP3    H124742   0.772   6.648   0.902 -0.6558  0.7908  0.5531
 1109TIP3    H224743   0.911   6.663   0.960 -0.3777  0.0369  0.0927
 1110TIP3   OH224744   4.421   5.115   0.634  0.0875 -0.8568  0.4622
 1110TIP3    H124745   4.328   5.097   0.623 -0.2870  0.5277  1.1576
 1110TIP3    H224746   4.437   5.194   0.582  0.7457 -0.7519  0.8116
 1111TIP3   OH224747   6.374   5.342   4.080  0.2012  0.6049 -0.8003
 1111TIP3    H124748   6.431   5.332   4.156  0.1209  0.9645 -0.6908
 1111TIP3    H224749   6.430   5.323   4.005  0.0620 -0.6119 -0.6095
 1112TIP3   OH224750   3.616   2.341   4.619 -0.9943  0.5814 -0.5746
 1112TIP3    H124751   3.667   2.421   4.628  0.1803 -0.1319 -0.5283
 1112TIP3    H224752   3.553   2.344   4.690 -0.5864  1.1991 -0.2244
 1113TIP3   OH224753   5.409   2.873   1.642 -0.6239 -0.4148  0.1223
 1113TIP3    H124754   5.434   2.940   1.579 -0.7480  0.0736  0.5804
 1113TIP3    H224755   5.405   2.792   1.592 -2.4403  0.2450 -0.8699
 1114TIP3   OH224756   1.077   1.231   2.980  0.1945 -0.3141 -0.5232
 1114TIP3    H124757   1.123   1.305   3.019  1.5690 -1.3185 -0.1658
 1114TIP3    H224758   1.012   1.271   2.922 -0.0037  1.1686  0.6574
 1115TIP3   OH224759   1.397   0.800  15.906 -0.3501 -0.0417 -0.2605
 1115TIP3    H124760   1.460   0.854  15.858 -2.4400  0.8344 -2.2182
 1115TIP3    H224761   1.448   0.727  15.941  1.5904  0.2117 -2.3832
 1116TIP3   OH224762   6.163   4.840  12.355 -0.5994 -0.5943  0.8179
 1116TIP3    H124763   6.246   4.821  12.313 -0.7497 -3.4164  1.5424
 1116TIP3    H224764   6.099   4.838  12.284 -0.1962  0.6312  0.3986
 1117TIP3   OH224765   2.907   2.456   0.812  0.0822 -0.0921  0.1432
 1117TIP3    H124766   2.968   2.479   0.742 -1.1559 -0.3479 -1.0685
 1117TIP3    H224767   2.936   2.369   0.841  0.5516 -0.0262 -0.1150
 1118TIP3   OH224768   6.752   4.148   3.584  0.4913  0.2961  0.1541
 1118TIP3    H124769   6.839   4.158   3.545 -0.1722 -0.0816 -1.5041
 1118TIP3    H224770   6.730   4.056   3.569 -0.7759  0.7187 -0.7615
 1119TIP3   OH224771   6.346   2.271  13.896 -0.2655  0.0503  0.0740
 1119TIP3    H124772   6.346   2.228  13.981 -2.5480 -1.4088 -0.5720
 1119TIP3    H224773   6.270   2.329  13.899 -0.2919  0.0838 -0.8977
 1120TIP3   OH224774   2.305   4.893  12.139  0.5436  0.5892 -1.0485
 1120TIP3    H124775   2.312   4.987  12.155  0.9881 -0.0011  3.6848
 1120TIP3    H224776   2.213   4.879  12.119  0.7276  2.0669 -3.3482
 1121TIP3   OH224777   3.451   0.920  15.754  0.1395  0.2044 -0.2820
 1121TIP3    H124778   3.493   0.904  15.669  0.3040 -0.1577 -0.1363
 1121TIP3    H224779   3.488   0.854  15.812 -0.0747  0.3628  0.0403
 1122TIP3   OH224780   1.857   2.465  13.574  0.1647  0.0973 -0.5015
 1122TIP3    H124781   1.916   2.406  13.527  1.7933  0.4449  1.0118
 1122TIP3    H224782   1.816   2.409  13.641  2.7323  0.8259  1.8373
 1123TIP3   OH224783   5.036   2.354   0.176  0.5378  0.3251  0.0556
 1123TIP3    H124784   4.947   2.345   0.142  0.7088  1.2219 -0.6852
 1123TIP3    H224785   5.039   2.295   0.252 -0.3901 -0.4353 -0.4652
 1124TIP3   OH224786   5.867   2.776  15.298  0.0690 -0.2399 -0.1402
 1124TIP3    H124787   5.943   2.814  15.342 -0.0057  1.1515 -1.1151
 1124TIP3    H224788   5.813   2.742  15.368  0.0283  1.7614  0.8757
 1125TIP3   OH224789   0.030   6.024   5.389 -0.2288 -0.1878 -0.0228
 1125TIP3    H124790   0.011   5.931   5.382  0.7623 -0.3059 -2.1588
 1125TIP3    H224791   0.073   6.046   5.306  0.4020  1.9727  0.7915
 1126TIP3   OH224792   3.962   6.296  11.528 -0.4007 -0.3504 -0.1943
 1126TIP3    H124793   3.936   6.204  11.523 -0.6894 -0.2796 -0.0314
 1126TIP3    H224794   3.981   6.310  11.621 -1.4854  0.0530 -0.0177
 1127TIP3   OH224795   3.438   3.538   4.301 -0.6094 -0.5583 -0.4247
 1127TIP3    H124796   3.364   3.596   4.282 -0.8453 -1.2506 -1.7725
 1127TIP3    H224797   3.502   3.559   4.233 -0.7605 -1.9501 -1.0378
 1128TIP3   OH224798   0.007   3.422  13.220  0.3899 -0.6212 -0.2780
 1128TIP3    H124799  -0.052   3.373  13.278 -0.5486 -0.3739 -0.9946
 1128TIP3    H224800   0.079   3.449  13.277 -0.5727 -0.2506  0.8312
 1129TIP3   OH224801   6.091   6.673   1.157 -0.0353  0.6793  0.8164
 1129TIP3    H124802   6.105   6.766   1.140 -0.6819  1.3681  3.5665
 1129TIP3    H224803   5.995   6.663   1.160  0.0298 -0.0358  0.7946
 1130TIP3   OH224804   0.662   3.449  13.276 -0.2774 -0.0211 -0.4001
 1130TIP3    H124805   0.668   3.438  13.181  0.4096  2.0963 -0.6599
 1130TIP3    H224806   0.649   3.543  13.288  0.4863 -0.1295  1.6218
 1131TIP3   OH224807   0.389   2.697  12.250 -0.1457 -0.0721 -0.5473
 1131TIP3    H124808   0.419   2.766  12.190  0.2009 -0.3944 -0.7442
 1131TIP3    H224809   0.427   2.617  12.215 -3.2616 -0.9380 -2.3326
 1132TIP3   OH224810   3.374   4.981   0.168  0.6292  0.4737 -0.1199
 1132TIP3    H124811   3.353   4.976   0.075  1.9159  2.6684 -0.6073
 1132TIP3    H224812   3.312   4.921   0.210 -2.3916  1.9963 -2.0123
 1133TIP3   OH224813   3.948   6.284   0.464 -0.9711  0.6511 -0.6894
 1133TIP3    H124814   3.950   6.340   0.542 -1.6652 -0.4285  0.1260
 1133TIP3    H224815   3.982   6.340   0.394 -2.4938  2.4011 -0.1112
 1134TIP3   OH224816   3.744   3.489   5.997 -0.7603 -0.1377  0.2921
 1134TIP3    H124817   3.664   3.453   6.034 -0.2043 -1.7897 -0.0233
 1134TIP3    H224818   3.785   3.536   6.069 -1.5097 -0.1595  0.7387
 1135TIP3   OH224819   5.417   5.354  16.181 -0.0913 -0.0548  0.3529
 1135TIP3    H124820   5.345   5.408  16.212  1.4769  1.2938  1.8574
 1135TIP3    H224821   5.470   5.413  16.127 -0.5387 -1.2643 -1.5140
 1136TIP3   OH224822   4.764   3.636   3.044 -0.2740 -0.3710 -0.5594
 1136TIP3    H124823   4.679   3.669   3.074  1.6198  2.3237  2.3824
 1136TIP3    H224824   4.782   3.684   2.964 -0.3911  1.0755  0.2576
 1137TIP3   OH224825   3.590   1.478  11.446  0.7158  0.8918 -0.5445
 1137TIP3    H124826   3.573   1.559  11.398  0.3925  1.6179  0.7449
 1137TIP3    H224827   3.509   1.462  11.495  0.9669  0.0700 -0.3808
 1138TIP3   OH224828   4.976   0.764   2.849 -0.4329  0.0950 -0.4513
 1138TIP3    H124829   4.919   0.701   2.805 -0.3364 -0.8719  0.7542
 1138TIP3    H224830   5.064   0.729   2.837 -0.5272 -1.0990  1.8513
 1139TIP3   OH224831   4.290   5.268  11.478 -0.0964 -0.0223  0.0597
 1139TIP3    H124832   4.264   5.179  11.502 -1.6838  0.5736  0.7142
 1139TIP3    H224833   4.301   5.313  11.562  0.6491  0.4215 -0.2682
 1140TIP3   OH224834   6.536   4.210  16.352  0.0348  0.6790  0.0651
 1140TIP3    H124835   6.507   4.174  16.268 -0.5401  0.4847  0.3449
 1140TIP3    H224836   6.599   4.146  16.385  0.2625  0.7547 -0.2089
 1141TIP3   OH224837   4.686   6.323  16.781 -0.4431  0.0300  0.0085
 1141TIP3    H124838   4.656   6.402  16.737 -2.4488 -0.2727  0.7352
 1141TIP3    H224839   4.613   6.261  16.772 -0.0256 -0.7999  1.8129
 1142TIP3   OH224840   5.751   4.774  11.838 -0.3872 -0.1523  0.0559
 1142TIP3    H124841   5.756   4.843  11.905 -0.2580  0.9757 -1.0826
 1142TIP3    H224842   5.833   4.725  11.848  0.7984  1.5379 -0.8445
 1143TIP3   OH224843   6.071   2.756  13.799  0.1394 -0.0670 -1.2827
 1143TIP3    H124844   6.149   2.758  13.743  0.8509 -2.6324 -0.5087
 1143TIP3    H224845   6.087   2.825  13.863  0.8326  0.7433 -2.2717
 1144TIP3   OH224846   4.189   4.668  13.938 -0.1619 -0.2655  0.6034
 1144TIP3    H124847   4.257   4.704  13.995  0.7866 -2.3421  0.8458
 1144TIP3    H224848   4.233   4.600  13.888 -1.7835 -0.7983 -0.1681
 1145TIP3   OH224849   1.728   3.740  12.197  0.2141 -0.8404 -0.3733
 1145TIP3    H124850   1.639   3.707  12.207  0.1478 -0.1336  1.7981
 1145TIP3    H224851   1.784   3.668  12.227  0.2778 -0.6568 -0.0450
 1146TIP3   OH224852   2.667   6.025   4.279  0.1235  0.7236  0.6849
 1146TIP3    H124853   2.734   5.982   4.227  0.7794  3.1446 -0.6221
 1146TIP3    H224854   2.585   6.007   4.232  0.2520  0.1419  0.6811
 1147TIP3   OH224855   2.844   2.087   5.057  0.9733 -0.3083  0.0421
 1147TIP3    H124856   2.776   2.155   5.058 -0.1227 -1.3461 -1.1249
 1147TIP3    H224857   2.834   2.043   5.141  0.5661 -0.0963  0.1116
 1148TIP3   OH224858   4.255   1.918   3.930  0.2705 -0.2224  0.0242
 1148TIP3    H124859   4.269   1.985   3.863  0.4723 -2.2758 -2.1235
 1148TIP3    H224860   4.343   1.888   3.952  0.1417 -0.4127  0.2805
 1149TIP3   OH224861   1.541   6.300  10.504  0.1670  0.0040 -0.0723
 1149TIP3    H124862   1.541   6.335  10.415 -2.5003 -0.1660 -0.2138
 1149TIP3    H224863   1.598   6.360  10.553  0.1148  1.2633 -1.4772
 1150TIP3   OH224864   4.166   4.266  16.499  0.2494 -0.0100 -0.3801
 1150TIP3    H124865   4.148   4.257  16.406  0.6911 -1.5700 -0.3369
 1150TIP3    H224866   4.261   4.281  16.504  0.2955 -0.3826 -0.1515
 1151TIP3   OH224867   4.433   0.264  10.775  0.1593  0.5460 -0.0926
 1151TIP3    H124868   4.442   0.359  10.766 -0.5751  0.5048 -1.7653
 1151TIP3    H224869   4.517   0.229  10.747  0.6870  0.7174  1.2492
 1152TIP3   OH224870   2.657   0.426   3.006 -0.1681  0.0180  0.3169
 1152TIP3    H124871   2.743   0.388   3.025 -0.7130 -0.9608  0.9020
 1152TIP3    H224872   2.595   0.365   3.046 -1.2190 -0.1443 -1.4636
 1153TIP3   OH224873   2.871   3.740   5.109 -0.2951  0.3552  0.1077
 1153TIP3    H124874   2.898   3.714   5.021  1.6756 -1.3080  1.1009
 1153TIP3    H224875   2.811   3.671   5.137 -0.8196  0.8107  0.1033
 1154TIP3   OH224876   1.978   2.174  11.740 -0.2580  1.3601  0.0583
 1154TIP3    H124877   1.918   2.103  11.716  0.1478  0.4398  1.6568
 1154TIP3    H224878   2.016   2.202  11.656 -1.4149  0.6143 -0.7456
 1155TIP3   OH224879   3.555   6.703  15.951  0.2551  0.3670  0.0924
 1155TIP3    H124880   3.462   6.725  15.944  0.0123 -1.0321 -2.5860
 1155TIP3    H224881   3.601   6.785  15.936 -0.5751  0.7417 -0.4691
 1156TIP3   OH224882   4.027   1.915   3.583 -0.0204 -0.4795  0.2099
 1156TIP3    H124883   4.008   1.962   3.665 -0.7021 -0.5315  0.0860
 1156TIP3    H224884   4.090   1.971   3.538 -1.4855  0.7852 -0.3393
 1157TIP3   OH224885   1.440   4.037   5.016 -0.0126  0.5704  0.3230
 1157TIP3    H124886   1.434   3.993   4.931  0.4472  1.0623  0.0280
 1157TIP3    H224887   1.506   3.986   5.064  0.6868  1.0464 -0.1016
 1158TIP3   OH224888   4.338   4.301   1.950  0.1104  0.0309  0.4630
 1158TIP3    H124889   4.347   4.290   1.855 -1.8032 -2.4158  0.4498
 1158TIP3    H224890   4.266   4.363   1.960 -1.9168 -2.1260  0.1656
 1159TIP3   OH224891   3.233   3.696   2.879  0.4351 -0.2688 -0.2059
 1159TIP3    H124892   3.290   3.737   2.814  2.0889 -1.7167  0.2613
 1159TIP3    H224893   3.264   3.728   2.963 -2.0962  2.0912 -0.0318
 1160TIP3   OH224894   6.495   6.083  10.948  0.5028 -0.4380  0.1996
 1160TIP3    H124895   6.428   6.026  10.984 -0.6437 -0.2437 -1.5163
 1160TIP3    H224896   6.450   6.167  10.934  1.6860  0.3729  0.9973
 1161TIP3   OH224897   5.890   2.454   2.839  0.3803 -0.0212 -0.7082
 1161TIP3    H124898   5.848   2.503   2.769 -1.6398 -1.2462 -0.4239
 1161TIP3    H224899   5.866   2.501   2.919 -1.5988 -1.4248 -0.4318
 1162TIP3   OH224900   1.663   1.635   1.612  0.6168 -0.1883 -0.1533
 1162TIP3    H124901   1.634   1.571   1.547 -0.3560  1.5864 -1.5355
 1162TIP3    H224902   1.608   1.619   1.688 -0.6924  0.0006 -1.0424
 1163TIP3   OH224903   1.802   5.446   3.374  0.1684  0.2049 -0.0100
 1163TIP3    H124904   1.757   5.502   3.437  0.0082  0.8076 -0.6525
 1163TIP3    H224905   1.767   5.358   3.391  0.0044  0.3872  0.6219
 1164TIP3   OH224906   3.744   3.999  10.703 -0.0548 -0.5088  0.2622
 1164TIP3    H124907   3.669   3.952  10.667  0.5196 -3.8890  2.8763
 1164TIP3    H224908   3.819   3.967  10.653 -0.0979  1.4188 -1.1029
 1165TIP3   OH224909   4.694   5.827  13.881 -0.4774 -0.4097 -0.0926
 1165TIP3    H124910   4.686   5.755  13.944 -1.5941 -1.3487 -1.2390
 1165TIP3    H224911   4.691   5.784  13.795  0.4425  0.8835 -0.7997
 1166TIP3   OH224912   6.815   3.770  16.055 -0.1595  0.4236  0.2914
 1166TIP3    H124913   6.861   3.821  16.122  1.5796  0.0162 -0.5639
 1166TIP3    H224914   6.839   3.680  16.073 -1.0366  0.1425  0.1105
 1167TIP3   OH224915   1.616   1.339   0.677 -0.0438  0.3979  0.6360
 1167TIP3    H124916   1.710   1.326   0.665 -0.3622 -1.4357 -0.2470
 1167TIP3    H224917   1.608   1.391   0.756  1.7549  1.6300  0.0609
 1168TIP3   OH224918   6.315   2.047  13.719  0.1013 -0.2583 -0.5664
 1168TIP3    H124919   6.307   2.078  13.628  0.8065  2.1807  0.1446
 1168TIP3    H224920   6.347   2.123  13.768 -1.3082 -1.1735  1.9476
 1169TIP3   OH224921   1.894   2.294  16.651  0.4854 -0.2855  0.1812
 1169TIP3    H124922   1.912   2.211  16.609  1.5016  0.3776 -0.7521
 1169TIP3    H224923   1.839   2.342  16.589  4.1707  1.7808 -1.8838
 1170TIP3   OH224924   0.433   0.743   0.182 -0.0088  0.1256  0.4410
 1170TIP3    H124925   0.497   0.789   0.236  0.1406  2.2246 -1.3640
 1170TIP3    H224926   0.348   0.770   0.218  0.0916  0.9588  0.0629
 1171TIP3   OH224927   3.516   1.689  10.717 -0.0900  0.1644  0.0298
 1171TIP3    H124928   3.480   1.711  10.632 -0.0462 -1.9133 -0.5850
 1171TIP3    H224929   3.597   1.642  10.698  1.1422  1.6457  1.3047
 1172TIP3   OH224930   1.217   0.660  10.517  0.1299 -0.0610 -0.4692
 1172TIP3    H124931   1.153   0.597  10.549 -0.6243  1.5725  1.4652
 1172TIP3    H224932   1.255   0.619  10.439 -0.4939 -2.7291  0.5436
 1173TIP3   OH224933   4.065   0.406  12.992 -0.3322  0.5171  0.1601
 1173TIP3    H124934   4.027   0.319  12.984  2.3212 -0.8603  1.3835
 1173TIP3    H224935   4.120   0.416  12.915  1.2089  0.0740  1.1684
 1174TIP3   OH224936   2.729   2.936   1.689  0.2023 -0.1570 -0.0363
 1174TIP3    H124937   2.653   2.881   1.669 -0.6776  0.6181  1.0587
 1174TIP3    H224938   2.805   2.881   1.668 -0.6150 -0.5422 -2.2972
 1175TIP3   OH224939   6.454   4.799  16.824  0.3931  0.7305 -0.5177
 1175TIP3    H124940   6.375   4.747  16.840  1.7187 -1.5436 -1.0308
 1175TIP3    H224941   6.433   4.853  16.748 -1.5936  2.3156  1.0349
 1176TIP3   OH224942   1.455   2.107  13.422 -0.2619 -0.2716  0.0261
 1176TIP3    H124943   1.503   2.186  13.397  0.1883 -1.2616 -2.5632
 1176TIP3    H224944   1.523   2.047  13.453 -0.3089 -0.3934 -0.1063
 1177TIP3   OH224945   2.179   3.553   6.952 -0.2855  0.1594 -0.3072
 1177TIP3    H124946   2.164   3.465   6.988 -0.2511 -0.1866 -1.1133
 1177TIP3    H224947   2.263   3.546   6.907 -0.6054  0.4173 -0.9453
 1178TIP3   OH224948   3.588   4.238  13.451 -0.4038 -0.1006  0.1402
 1178TIP3    H124949   3.534   4.315  13.472 -1.6717 -1.0298  0.4187
 1178TIP3    H224950   3.527   4.177  13.411  0.6633 -0.8384 -0.3878
 1179TIP3   OH224951   4.845   1.737  11.835 -0.0339  0.3871  0.2378
 1179TIP3    H124952   4.756   1.703  11.847 -0.0362 -0.2322 -1.3170
 1179TIP3    H224953   4.901   1.679  11.887 -0.5493  1.0160  1.5459
 1180TIP3   OH224954   4.378   1.033   5.523 -0.5668  0.1327 -0.4432
 1180TIP3    H124955   4.406   1.124   5.531  1.0734 -0.4372  1.0397
 1180TIP3    H224956   4.441   0.994   5.462  0.3898 -0.5867  0.9608
 1181TIP3   OH224957   2.467   3.937   5.382 -0.0943  0.1827 -0.6077
 1181TIP3    H124958   2.399   3.880   5.417 -0.0991 -0.3789 -1.5162
 1181TIP3    H224959   2.424   4.022   5.374  0.2529  0.6978  1.9222
 1182TIP3   OH224960   4.298   3.527   0.858 -0.5913  0.1549 -0.0223
 1182TIP3    H124961   4.219   3.579   0.841 -1.5065 -0.7578  1.2820
 1182TIP3    H224962   4.271   3.437   0.843  0.3058 -0.1409  0.1091
 1183TIP3   OH224963   4.649   3.250  12.427 -0.0969 -0.1982  0.3039
 1183TIP3    H124964   4.590   3.284  12.493  0.9129 -0.0035  1.1343
 1183TIP3    H224965   4.668   3.160  12.456 -1.0157 -0.7280 -0.6774
 1184TIP3   OH224966   0.941   2.321   0.574 -0.3706 -0.3154 -0.1736
 1184TIP3    H124967   0.947   2.226   0.561 -0.1814 -0.3631  0.2561
 1184TIP3    H224968   1.004   2.340   0.644  1.4339  0.4660 -1.9174
 1185TIP3   OH224969   6.552   5.074   4.109 -0.3371 -0.0121  0.4046
 1185TIP3    H124970   6.636   5.030   4.096 -1.7498 -2.9633  0.5517
 1185TIP3    H224971   6.542   5.130   4.032  2.4613  1.8346  1.1986
 1186TIP3   OH224972   0.948   2.808   6.119 -0.5297  0.0211  0.0075
 1186TIP3    H124973   0.940   2.837   6.210 -0.1970 -1.9751  0.7381
 1186TIP3    H224974   1.041   2.820   6.098 -0.4029 -0.4254  0.2910
 1187TIP3   OH224975   6.540   5.387   2.236  0.3701  0.2266  0.1314
 1187TIP3    H124976   6.483   5.464   2.232  0.7624  0.5762  0.9220
 1187TIP3    H224977   6.502   5.334   2.306  0.4478 -0.0092 -0.0055
 1188TIP3   OH224978   4.610   3.136  12.014  0.0130 -0.1757 -0.0809
 1188TIP3    H124979   4.587   3.206  12.075 -1.0676 -0.7569  0.2047
 1188TIP3    H224980   4.531   3.123  11.962 -0.5233 -2.5240  1.1961
 1189TIP3   OH224981   5.466   3.800   4.285 -0.5110 -0.1046  0.9427
 1189TIP3    H124982   5.470   3.879   4.230  0.1717  0.0112  1.1436
 1189TIP3    H224983   5.462   3.728   4.223 -0.2445  0.0488  0.7470
 1190TIP3   OH224984   3.603   6.529   2.153  0.4773 -0.4195  0.0651
 1190TIP3    H124985   3.519   6.484   2.160  0.9045 -1.3422 -0.4607
 1190TIP3    H224986   3.589   6.614   2.193 -0.4511 -0.9165  0.8182
 1191TIP3   OH224987   4.858   0.148   5.881 -0.6860  0.4169 -0.7338
 1191TIP3    H124988   4.851   0.147   5.976  0.4505  0.7261 -0.6296
 1191TIP3    H224989   4.770   0.168   5.850 -0.7418  1.8639  0.3030
 1192TIP3   OH224990   4.936   4.324  13.724 -0.0271  0.0723 -0.0989
 1192TIP3    H124991   4.896   4.346  13.640 -3.6210  1.3364  1.7607
 1192TIP3    H224992   4.984   4.402  13.749 -1.4641  0.8558  0.3205
 1193TIP3   OH224993   2.800   1.253   2.625  0.0943  0.0862  0.5876
 1193TIP3    H124994   2.851   1.173   2.612  1.1977  0.5867  1.6508
 1193TIP3    H224995   2.790   1.259   2.720 -0.3385  0.9866  0.4947
 1194TIP3   OH224996   5.580   1.287   3.381  0.2078  0.3030  0.3936
 1194TIP3    H124997   5.579   1.192   3.379  0.9018  0.2834 -1.8981
 1194TIP3    H224998   5.654   1.312   3.327 -0.3351  2.1499  0.4194
 1195TIP3   OH224999   6.403   4.895  14.515  0.0088  0.0877 -0.6501
 1195TIP3    H125000   6.347   4.965  14.549 -2.5476 -1.2247 -1.8646
 1195TIP3    H225001   6.416   4.837  14.589  0.8428  1.0129 -0.0407
 1196TIP3   OH225002   3.423   5.094  16.507  0.5708 -0.9168  0.0669
 1196TIP3    H125003   3.397   5.078  16.598  1.9991 -0.9361  0.4942
 1196TIP3    H225004   3.484   5.167  16.512  0.8104 -1.0395 -0.8543
 1197TIP3   OH225005   1.106   5.253  11.889 -0.1160  0.4079 -0.6110
 1197TIP3    H125006   1.173   5.207  11.838 -0.5180 -1.0517  0.1057
 1197TIP3    H225007   1.135   5.245  11.980  0.0958  2.1292 -0.5015
 1198TIP3   OH225008   1.125   6.731   5.679  0.0062 -0.5275 -0.1129
 1198TIP3    H125009   1.077   6.707   5.758  0.5407 -2.8802 -0.4126
 1198TIP3    H225010   1.187   6.798   5.707 -1.7340  0.7707  0.7926
 1199TIP3   OH225011   0.901   6.163   4.901 -0.4015  0.6624  0.1778
 1199TIP3    H125012   0.822   6.128   4.941  1.1655 -1.9492  1.2203
 1199TIP3    H225013   0.899   6.257   4.920 -1.9585  0.2302  2.4364
 1200TIP3   OH225014   5.902   6.606   4.323  0.6163  0.1037  0.3231
 1200TIP3    H125015   5.943   6.658   4.392 -0.1950  0.4579  0.5472
 1200TIP3    H225016   5.942   6.520   4.330  1.4618  0.4917  0.4106
 1201TIP3   OH225017   0.928   6.639  11.404 -0.1918  0.0629  0.3496
 1201TIP3    H125018   0.948   6.717  11.352  2.6748 -1.2212 -0.6835
 1201TIP3    H225019   0.989   6.643  11.478  1.5194 -2.1038 -0.8144
 1202TIP3   OH225020   4.318   5.551  12.284 -0.7481 -0.4386 -0.4178
 1202TIP3    H125021   4.316   5.510  12.197 -0.6271 -1.4533  0.0421
 1202TIP3    H225022   4.229   5.540  12.317 -0.7734 -0.1247 -0.3823
 1203TIP3   OH225023   3.055   2.388  14.292  0.4225  0.4956 -0.2366
 1203TIP3    H125024   2.969   2.421  14.319 -0.0941 -1.9261  1.4259
 1203TIP3    H225025   3.042   2.354  14.204  0.4845  2.7186 -1.1764
 1204TIP3   OH225026   3.275   6.248   5.295  0.2617  0.0721 -0.0899
 1204TIP3    H125027   3.366   6.236   5.323  0.4145  0.4448 -0.4107
 1204TIP3    H225028   3.254   6.170   5.245  0.7757  0.4777 -0.9605
 1205TIP3   OH225029   2.512   4.020   2.988 -0.0830  0.5490 -0.4477
 1205TIP3    H125030   2.429   4.036   3.034  0.6587  0.2860  1.0667
 1205TIP3    H225031   2.570   3.987   3.056  0.9703 -0.2705 -1.6951
 1206TIP3   OH225032   0.334   4.219  12.044  0.3585  0.1045  0.2506
 1206TIP3    H125033   0.343   4.314  12.037  2.6343 -0.0543  0.1459
 1206TIP3    H225034   0.247   4.200  12.010  0.4808  2.0037 -1.2757
 1207TIP3   OH225035   4.284   6.150  17.035 -0.2580  0.0455  0.0665
 1207TIP3    H125036   4.303   6.056  17.023 -0.5004 -0.0527  0.4303
 1207TIP3    H225037   4.195   6.161  17.000  0.2777  0.4257 -1.2635
 1208TIP3   OH225038   0.756   0.710   1.588 -0.4571 -0.1027 -0.2100
 1208TIP3    H125039   0.700   0.723   1.512 -0.9540 -0.0172  0.1665
 1208TIP3    H225040   0.696   0.686   1.659 -0.0793  0.4973  0.3270
 1209TIP3   OH225041   4.914   6.812   4.448 -0.0921  0.3126  0.0114
 1209TIP3    H125042   4.912   6.849   4.360  0.0317 -1.0034 -0.5510
 1209TIP3    H225043   4.822   6.795   4.469 -0.2033  1.3774  0.4868
 1210TIP3   OH225044   4.500   6.303   4.424  0.1060 -0.1455 -0.3569
 1210TIP3    H125045   4.453   6.385   4.434 -0.7346 -0.7667  1.2308
 1210TIP3    H225046   4.589   6.322   4.453  0.0295  0.2960 -0.4046
 1211TIP3   OH225047   2.161   0.329  14.474  0.1210  0.5215 -0.2808
 1211TIP3    H125048   2.207   0.365  14.550  0.1944 -1.3617  0.5941
 1211TIP3    H225049   2.078   0.296  14.508  0.8057 -1.7542 -0.6724
 1212TIP3   OH225050   5.341   6.797   3.294 -0.3388  0.2501 -0.3105
 1212TIP3    H125051   5.388   6.776   3.375 -0.0184  1.3986 -0.1908
 1212TIP3    H225052   5.249   6.777   3.314  0.1447 -3.7256 -1.0927
 1213TIP3   OH225053   4.225   3.662   1.097 -0.4798  0.3609  0.3316
 1213TIP3    H125054   4.265   3.674   1.183 -0.2288  1.4963  0.0708
 1213TIP3    H225055   4.275   3.591   1.057 -0.0743  0.3732  0.8058
 1214TIP3   OH225056   2.162   2.760   0.428  0.1509 -0.0106 -0.3685
 1214TIP3    H125057   2.148   2.731   0.338 -0.3159 -0.3061 -0.2045
 1214TIP3    H225058   2.257   2.755   0.441  0.1300 -1.0386 -0.4936
 1215TIP3   OH225059   3.444   0.024  15.106  0.7486  0.5974 -0.6985
 1215TIP3    H125060   3.487   0.034  15.021  1.8051  1.8505 -0.0581
 1215TIP3    H225061   3.355   0.056  15.092  0.6117 -0.1305 -1.5645
 1216TIP3   OH225062   1.307   6.250   1.472  0.1439 -0.3557 -0.2438
 1216TIP3    H125063   1.296   6.337   1.509  0.5602 -0.1743 -0.5327
 1216TIP3    H225064   1.269   6.190   1.536 -1.7328  0.1578 -0.8083
 1217TIP3   OH225065   0.639   0.358  14.649 -0.3092 -0.4952  0.3243
 1217TIP3    H125066   0.648   0.263  14.647  0.0369 -0.4564 -0.7376
 1217TIP3    H225067   0.708   0.388  14.709 -0.1689 -0.8929  0.3600
 1218TIP3   OH225068   6.336   4.006   0.634  0.0764  0.1841  0.6701
 1218TIP3    H125069   6.329   3.937   0.700 -2.1513 -0.1262  0.2110
 1218TIP3    H225070   6.324   4.088   0.684  0.9237  0.1241  0.9768
 1219TIP3   OH225071   3.047   6.563   3.362  0.7065 -0.4765 -0.0604
 1219TIP3    H125072   3.122   6.590   3.415  0.8956  1.2673 -1.1338
 1219TIP3    H225073   3.060   6.607   3.278 -0.7551 -1.3437 -0.7733
 1220TIP3   OH225074   5.828   6.063   0.286  0.2010 -0.1317  0.0021
 1220TIP3    H125075   5.795   6.045   0.198  0.1533 -0.4706  0.0890
 1220TIP3    H225076   5.894   5.995   0.301 -0.0227 -0.2731  0.3554
 1221TIP3   OH225077   0.473   6.742  14.957  0.2504  0.5611 -0.3720
 1221TIP3    H125078   0.459   6.735  15.051 -0.1492  0.6141 -0.4267
 1221TIP3    H225079   0.502   6.832  14.943 -0.0876  0.6707 -0.3523
 1222TIP3   OH225080   1.173   0.685  15.846  0.2805  0.3161  0.2249
 1222TIP3    H125081   1.235   0.759  15.846  0.1240  0.4543  1.0678
 1222TIP3    H225082   1.132   0.688  15.932 -0.7012  0.0484 -0.2199
 1223TIP3   OH225083   1.355   2.498   3.602  0.0268  0.2428  0.0884
 1223TIP3    H125084   1.406   2.469   3.678  2.0943  1.4670 -0.7417
 1223TIP3    H225085   1.273   2.530   3.640  0.2545 -0.8425  1.6005
 1224TIP3   OH225086   5.140   5.166   5.682  0.3384 -0.0688  0.2376
 1224TIP3    H125087   5.105   5.136   5.766 -1.6151  1.5254  0.0657
 1224TIP3    H225088   5.211   5.105   5.663 -0.7864 -2.0161  1.8247
 1225TIP3   OH225089   0.980   5.949   5.149 -0.0841 -0.3210 -0.3058
 1225TIP3    H125090   0.961   5.887   5.219 -0.1480  1.5302  1.4026
 1225TIP3    H225091   0.894   5.967   5.109 -0.4376  0.3697  0.7195
 1226TIP3   OH225092   1.176   0.352   3.565 -0.1424  0.2772 -0.0984
 1226TIP3    H125093   1.107   0.399   3.517 -1.0485 -2.5499 -1.8698
 1226TIP3    H225094   1.135   0.328   3.648 -0.0359  1.6049  0.3591
 1227TIP3   OH225095   3.440   4.005   3.333 -0.9517 -0.0416  0.1494
 1227TIP3    H125096   3.459   4.090   3.374  1.1008 -0.5351  0.3179
 1227TIP3    H225097   3.467   4.016   3.242 -0.4788 -0.5815  0.2258
 1228TIP3   OH225098   0.899   0.625   1.359 -0.5023 -0.1266 -0.2214
 1228TIP3    H125099   0.846   0.648   1.436  1.7645  0.9634  1.1601
 1228TIP3    H225100   0.865   0.680   1.289 -1.4172  0.2700  0.5115
 1229TIP3   OH225101   5.180   5.860  11.515  0.3572  0.4703  0.2158
 1229TIP3    H125102   5.151   5.770  11.499  0.2277  0.7530 -1.2181
 1229TIP3    H225103   5.275   5.858  11.501  0.3505  0.5722  0.1553
 1230TIP3   OH225104   6.615   2.950   3.911 -0.3142 -0.2285 -0.0248
 1230TIP3    H125105   6.547   2.898   3.954  1.0734  0.9121  4.0907
 1230TIP3    H225106   6.578   3.038   3.906  0.1695  0.0228  0.6058
 1231TIP3   OH225107   2.438   3.793   2.751  0.8442  0.5424 -0.4741
 1231TIP3    H125108   2.463   3.700   2.753 -0.0358  0.3145  1.0056
 1231TIP3    H225109   2.449   3.818   2.659 -0.8616 -1.5902 -1.3674
 1232TIP3   OH225110   1.698   4.222  12.632  0.2383 -0.1873 -0.1127
 1232TIP3    H125111   1.704   4.258  12.544 -0.8892 -0.6201 -0.3876
 1232TIP3    H225112   1.729   4.132  12.623 -0.1587 -0.3264 -0.1492
 1233TIP3   OH225113   1.069   6.419   6.595 -0.3320 -0.3548 -0.0880
 1233TIP3    H125114   0.984   6.412   6.552 -0.6253 -0.0623  0.4324
 1233TIP3    H225115   1.061   6.496   6.651  0.2266 -0.4118  0.0736
 1234TIP3   OH225116   6.680   2.008   3.770 -0.4910  0.7610  0.1520
 1234TIP3    H125117   6.626   2.086   3.763  0.0921  1.0803 -0.9346
 1234TIP3    H225118   6.631   1.951   3.830 -1.3438  1.5891  0.2734
 1235TIP3   OH225119   2.113   5.980   6.237 -0.7032  0.2227  0.2891
 1235TIP3    H125120   2.144   5.983   6.327 -1.0670  0.1982  0.4192
 1235TIP3    H225121   2.039   5.918   6.239 -3.4212  3.2292  0.8435
 1236TIP3   OH225122   4.776   0.297   1.380  0.3421  0.3465  0.2841
 1236TIP3    H125123   4.865   0.260   1.379 -0.3396 -1.4520 -1.6470
 1236TIP3    H225124   4.778   0.361   1.451  2.7099 -0.7872  1.3759
 1237TIP3   OH225125   4.035   2.920  13.684 -0.1452 -0.5407  0.1454
 1237TIP3    H125126   4.047   2.983  13.755  0.9067 -1.7568  1.1016
 1237TIP3    H225127   4.094   2.950  13.615 -0.0657 -0.1700  0.3704
 1238TIP3   OH225128   1.447   6.726   1.646  0.3055  0.5480  0.9569
 1238TIP3    H125129   1.484   6.756   1.563  1.9966 -0.3966  1.3245
 1238TIP3    H225130   1.382   6.661   1.621  2.1717 -1.1962  0.3408
 1239TIP3   OH225131   1.112   6.108  11.855  0.1647  0.2772  0.0511
 1239TIP3    H125132   1.073   6.023  11.874 -0.7363  0.1471 -2.0250
 1239TIP3    H225133   1.201   6.088  11.826 -0.6650 -0.2690 -2.4043
 1240TIP3   OH225134   0.349   5.181  11.049 -0.6307  0.0418 -0.2062
 1240TIP3    H125135   0.290   5.228  11.108  1.8270  2.5905  0.4683
 1240TIP3    H225136   0.337   5.224  10.964 -1.0636 -0.6936 -0.5215
 1241TIP3   OH225137   1.841   0.574  14.240  0.0652 -0.0182 -0.1909
 1241TIP3    H125138   1.877   0.646  14.292  3.0840 -0.8069 -0.9845
 1241TIP3    H225139   1.842   0.607  14.150 -3.2621  0.6300 -0.1111
 1242TIP3   OH225140   3.392   2.583  11.087  0.0485 -0.1461 -0.0517
 1242TIP3    H125141   3.401   2.533  11.168 -0.3642  0.9167  0.6878
 1242TIP3    H225142   3.395   2.675  11.116  2.1631  0.3078 -1.4937
 1243TIP3   OH225143   2.651   4.755   1.568  0.7211 -0.2872  0.6381
 1243TIP3    H125144   2.670   4.827   1.508  1.6516 -1.3244 -0.3739
 1243TIP3    H225145   2.697   4.778   1.648 -0.5181  1.1109  0.9908
 1244TIP3   OH225146   5.359   6.175   4.345 -0.2069  0.0550 -0.0379
 1244TIP3    H125147   5.409   6.168   4.426 -1.2053  1.4403  0.7496
 1244TIP3    H225148   5.350   6.269   4.330 -3.2454 -0.0618  0.3346
 1245TIP3   OH225149   2.517   3.695  16.417  0.2231 -0.5624  0.8789
 1245TIP3    H125150   2.597   3.650  16.446  0.3730  0.0078  1.3683
 1245TIP3    H225151   2.493   3.752  16.491  0.4258  0.6794  0.0186
 1246TIP3   OH225152   1.448   3.524   5.963  0.2976 -0.1662  0.8265
 1246TIP3    H125153   1.362   3.507   6.002  0.9623 -0.6507  2.1228
 1246TIP3    H225154   1.510   3.488   6.025  1.4090 -1.2460 -0.8330
 1247TIP3   OH225155   2.370   3.645  14.749  0.2873  0.0154 -0.2392
 1247TIP3    H125156   2.398   3.554  14.740 -1.0127 -0.3727 -0.5343
 1247TIP3    H225157   2.332   3.668  14.664 -0.9220  0.2738  0.3480
 1248TIP3   OH225158   4.481   1.908  16.559  0.5160 -0.0893  0.0358
 1248TIP3    H125159   4.521   1.838  16.508  0.9335 -0.1223  0.4074
 1248TIP3    H225160   4.553   1.947  16.609  0.7479  2.1346 -1.8708
 1249TIP3   OH225161   6.806   3.310  11.968  0.0424  0.4789  0.3117
 1249TIP3    H125162   6.851   3.390  11.997 -0.0662  0.3739  0.7648
 1249TIP3    H225163   6.730   3.342  11.919 -0.8030  0.6687  1.7015
 1250TIP3   OH225164   6.759   5.985  16.840 -0.4883 -0.1598 -0.4029
 1250TIP3    H125165   6.734   5.954  16.927  1.1329 -0.8673 -0.1579
 1250TIP3    H225166   6.677   5.990  16.792 -1.2928 -0.7044  0.8704
 1251TIP3   OH225167   5.969   0.119   1.170  0.2910  0.4960 -0.6574
 1251TIP3    H125168   5.887   0.111   1.121 -0.7191 -0.7813  1.1171
 1251TIP3    H225169   5.966   0.208   1.207 -0.8015  0.1238  0.1999
 1252TIP3   OH225170   1.322   6.672   1.312  0.4712  0.7823 -0.8794
 1252TIP3    H125171   1.402   6.619   1.307  0.3646  0.7096 -1.8132
 1252TIP3    H225172   1.251   6.610   1.295  0.3595  1.2556 -2.2376
 1253TIP3   OH225173   4.926   3.167   4.866 -0.5916  0.1339  0.7596
 1253TIP3    H125174   4.935   3.079   4.903  0.7748  0.2819  0.8379
 1253TIP3    H225175   5.008   3.181   4.819 -1.9995  0.1933 -1.8330
 1254TIP3   OH225176   4.763   1.793   5.929  0.8609 -0.1027  0.0949
 1254TIP3    H125177   4.732   1.707   5.903 -0.7326  0.5111 -0.1887
 1254TIP3    H225178   4.759   1.793   6.025 -2.2202  0.6362  0.0626
 1255TIP3   OH225179   6.582   4.579  16.777 -0.4026 -0.6348  0.4434
 1255TIP3    H125180   6.554   4.671  16.781 -0.8320 -0.7984  1.6366
 1255TIP3    H225181   6.558   4.551  16.689 -1.2801  0.0959  0.4291
 1256TIP3   OH225182   4.815   2.831  14.349  0.4499  0.3176 -0.2790
 1256TIP3    H125183   4.832   2.848  14.257  0.7349  2.0823  0.0699
 1256TIP3    H225184   4.901   2.825  14.389  0.3495 -1.2888 -0.2361
 1257TIP3   OH225185   0.868   3.456  16.346  0.2753  0.1246 -0.2882
 1257TIP3    H125186   0.809   3.382  16.333  1.5503 -0.9824  0.0258
 1257TIP3    H225187   0.815   3.522  16.390 -1.0526 -0.3518 -1.1323
 1258TIP3   OH225188   2.467   6.140   4.984 -0.5220  0.7053  0.3558
 1258TIP3    H125189   2.537   6.169   4.926 -0.0139 -0.4429  0.3588
 1258TIP3    H225190   2.492   6.173   5.070 -1.4621  2.7219 -0.0997
 1259TIP3   OH225191   4.861   2.326   3.450 -0.0830  0.1346 -0.3053
 1259TIP3    H125192   4.836   2.234   3.438 -2.8608  0.7351  0.0899
 1259TIP3    H225193   4.829   2.369   3.370  1.8715  0.7060 -0.8362
 1260TIP3   OH225194   1.332   1.978   3.475 -0.1891  0.2102  0.5039
 1260TIP3    H125195   1.324   1.983   3.379 -0.3290 -0.9910  0.4362
 1260TIP3    H225196   1.371   2.062   3.500  0.2413  0.3754 -0.6432
 1261TIP3   OH225197   5.412   1.691   4.469  0.2272 -0.1338  0.2700
 1261TIP3    H125198   5.406   1.774   4.517 -0.3183 -1.4796  2.7387
 1261TIP3    H225199   5.346   1.698   4.400  1.0198  1.9043 -0.3530
 1262TIP3   OH225200   6.687   1.215   5.179  0.0024  0.3461 -0.3968
 1262TIP3    H125201   6.780   1.208   5.157 -0.0809 -0.4080 -0.5315
 1262TIP3    H225202   6.686   1.256   5.266  0.3474  2.9795 -1.5194
 1263TIP3   OH225203   5.089   5.971  14.139 -0.2624 -0.3252 -0.0827
 1263TIP3    H125204   5.087   5.919  14.219  0.4906  0.7449  0.6479
 1263TIP3    H225205   5.139   5.918  14.077 -1.4270 -1.4688 -0.0963
 1264TIP3   OH225206   1.188   0.373   5.416 -0.3475  0.0602 -0.2145
 1264TIP3    H125207   1.162   0.419   5.336  2.0249 -0.1678 -1.1792
 1264TIP3    H225208   1.155   0.284   5.404 -1.4496  0.4507 -0.1648
 1265TIP3   OH225209   1.113   6.044   5.805 -0.5787 -0.3153  0.1665
 1265TIP3    H125210   1.208   6.052   5.802 -0.4606 -1.7457 -0.8638
 1265TIP3    H225211   1.087   6.100   5.879  1.3422 -2.2440  2.4963
 1266TIP3   OH225212   0.871   1.832  13.701 -0.1386  0.2998 -0.0871
 1266TIP3    H125213   0.844   1.864  13.787 -1.1848 -0.7043 -0.0192
 1266TIP3    H225214   0.923   1.903  13.665  0.0325  0.8806  1.2335
 1267TIP3   OH225215   2.593   5.114  16.694  0.4142  0.0366 -0.3795
 1267TIP3    H125216   2.573   5.155  16.778  2.2377  0.3657 -0.0561
 1267TIP3    H225217   2.642   5.035  16.717  0.0702 -0.4065 -1.1178
 1268TIP3   OH225218   0.697   5.229   3.387 -0.1607  0.3735 -0.6940
 1268TIP3    H125219   0.615   5.194   3.352  0.3992 -1.9883  0.1588
 1268TIP3    H225220   0.697   5.205   3.479  1.8808 -0.5807 -0.8772
 1269TIP3   OH225221   5.436   1.237  12.363 -0.5931  0.0806  0.3426
 1269TIP3    H125222   5.478   1.153  12.347 -0.1565  0.4831 -0.7378
 1269TIP3    H225223   5.355   1.233  12.312 -0.6215  0.2659  0.3711
 1270TIP3   OH225224   2.820   2.819   4.332  0.5956  0.0769 -0.1961
 1270TIP3    H125225   2.865   2.883   4.387  0.9712 -0.5760  0.2722
 1270TIP3    H225226   2.776   2.761   4.393 -0.7324  0.5612 -0.6446
 1271TIP3   OH225227   0.385   3.349  15.419  0.4083 -0.4100  0.1778
 1271TIP3    H125228   0.391   3.428  15.366  3.2149 -0.5785  0.0841
 1271TIP3    H225229   0.316   3.298  15.377 -0.2775  1.2362 -0.8038
 1272TIP3   OH225230   1.690   3.991  12.234 -0.3022 -0.0347  0.5421
 1272TIP3    H125231   1.666   4.005  12.142 -2.5401 -0.2532  1.0274
 1272TIP3    H225232   1.680   3.897  12.247  0.5015 -0.0754  0.8987
 1273TIP3   OH225233   0.519   4.039  15.244  0.5680 -0.0451 -0.5459
 1273TIP3    H125234   0.587   4.098  15.212  1.0426 -0.3426 -0.0942
 1273TIP3    H225235   0.438   4.076  15.209  0.9775  0.1586 -1.3252
 1274TIP3   OH225236   0.347   0.738  13.231 -0.2936  0.2438 -0.3374
 1274TIP3    H125237   0.283   0.793  13.186 -0.4261 -0.2202 -0.7240
 1274TIP3    H225238   0.350   0.657  13.180  1.7307  0.8246 -1.2484
 1275TIP3   OH225239   6.534   6.419  16.113  0.0425  0.0013  0.4118
 1275TIP3    H125240   6.443   6.409  16.140 -0.5675  2.2063 -0.6351
 1275TIP3    H225241   6.529   6.445  16.021  1.5959  2.3278  0.9090
 1276TIP3   OH225242   3.383   4.042  15.075 -0.0683 -0.7545  0.3909
 1276TIP3    H125243   3.398   4.064  15.167  0.0234 -0.4886  0.3120
 1276TIP3    H225244   3.322   4.109  15.044 -1.5988 -1.9081  0.7533
 1277TIP3   OH225245   0.873   2.251  11.412 -1.1018  0.5319  0.6921
 1277TIP3    H125246   0.935   2.235  11.340 -2.3006  1.5730 -0.6371
 1277TIP3    H225247   0.926   2.282  11.484  0.4493 -2.6019  1.0724
 1278TIP3   OH225248   5.657   5.580  16.801  0.0761  0.0517 -0.3915
 1278TIP3    H125249   5.611   5.630  16.869 -0.5610  0.3974 -1.0645
 1278TIP3    H225250   5.592   5.517  16.770  0.0351  0.5607 -1.3656
 1279TIP3   OH225251   3.565   1.973   2.952 -0.0653 -0.8274  1.1498
 1279TIP3    H125252   3.554   1.993   3.045  1.3088  0.2886  1.0890
 1279TIP3    H225253   3.638   1.911   2.949  0.2891 -0.3932  0.7675
 1280TIP3   OH225254   1.951   1.535  13.412  0.1833 -0.1294 -0.2862
 1280TIP3    H125255   1.869   1.584  13.403 -0.1347 -0.1370  1.9451
 1280TIP3    H225256   2.005   1.567  13.340 -1.8458 -0.3407 -2.0204
 1281TIP3   OH225257   4.153   3.809   3.549  0.2752 -0.3578 -0.7858
 1281TIP3    H125258   4.104   3.773   3.474 -1.7037 -0.0546  0.2860
 1281TIP3    H225259   4.085   3.829   3.614  1.6284  2.0864 -0.0023
 1282TIP3   OH225260   5.635   6.119  14.240 -0.1369 -0.3102  0.1224
 1282TIP3    H125261   5.630   6.078  14.327 -1.2599 -2.0065 -0.7069
 1282TIP3    H225262   5.695   6.064  14.191  1.8547  1.5859  0.2325
 1283TIP3   OH225263   4.105   2.453  16.384  0.1275  0.3718 -0.3247
 1283TIP3    H125264   4.089   2.488  16.297  0.2422  0.6011 -0.2560
 1283TIP3    H225265   4.185   2.496  16.413 -0.4754  1.1187  0.3134
 1284TIP3   OH225266   4.493   5.775  15.585  0.2466  0.9576 -0.2358
 1284TIP3    H125267   4.430   5.719  15.540  2.0409 -0.7556 -0.7139
 1284TIP3    H225268   4.475   5.761  15.678  0.7033 -0.4866 -0.3472
 1285TIP3   OH225269   6.070   4.234   0.636  0.1312 -0.7858  0.0913
 1285TIP3    H125270   6.154   4.230   0.682 -1.3383 -1.9210  2.9194
 1285TIP3    H225271   6.053   4.144   0.609  0.6969 -0.2318 -2.3739
 1286TIP3   OH225272   0.352   5.637   3.628  0.2532 -0.3556 -0.6685
 1286TIP3    H125273   0.412   5.654   3.700 -1.2517  0.1730  0.5151
 1286TIP3    H225274   0.268   5.620   3.670 -0.8522  0.7602 -2.3131
 1287TIP3   OH225275   6.056   3.351   3.295 -0.1564  0.0871  0.2842
 1287TIP3    H125276   6.106   3.277   3.329  0.9393  0.9008  0.5082
 1287TIP3    H225277   6.032   3.325   3.206  2.1035  0.2659 -0.4612
 1288TIP3   OH225278   5.080   3.869  16.181  0.0170 -0.8337  0.0381
 1288TIP3    H125279   5.145   3.859  16.252  1.1765  0.2244 -0.8300
 1288TIP3    H225280   5.130   3.906  16.108 -1.8933  1.7425 -0.0981
 1289TIP3   OH225281   3.080   3.645  10.610  0.4534  0.2910  0.6408
 1289TIP3    H125282   3.008   3.588  10.584  0.6413  0.2210  0.2760
 1289TIP3    H225283   3.145   3.586  10.649  2.2563 -0.3369 -2.9431
 1290TIP3   OH225284   5.633   0.150   6.461 -0.2036  0.9166  0.5678
 1290TIP3    H125285   5.598   0.145   6.550  0.7089  3.0981  1.1264
 1290TIP3    H225286   5.560   0.184   6.409 -1.7878 -3.3086 -0.2994
 1291TIP3   OH225287   0.585   4.591  16.779 -0.4011 -0.1701 -0.1392
 1291TIP3    H125288   0.503   4.545  16.760 -0.3230 -0.1859 -0.4521
 1291TIP3    H225289   0.647   4.521  16.800 -1.1148 -0.0379  2.7582
 1292TIP3   OH225290   4.105   6.628   1.008 -0.2699 -0.3377  0.1764
 1292TIP3    H125291   4.147   6.663   0.930 -0.5513 -0.5011 -0.0471
 1292TIP3    H225292   4.174   6.631   1.075  0.0261 -0.3814 -0.1251
 1293TIP3   OH225293   0.280   1.106  13.866  0.3524  0.0030  0.6558
 1293TIP3    H125294   0.229   1.136  13.791 -1.3996 -0.6246  1.5400
 1293TIP3    H225295   0.364   1.077  13.828 -0.7377 -0.9610 -1.1565
 1294TIP3   OH225296   5.112   4.948   5.300  0.1559  0.3377  0.4250
 1294TIP3    H125297   5.177   4.909   5.241 -0.5456  0.8720 -0.7284
 1294TIP3    H225298   5.070   4.873   5.342  1.1935 -0.0253  0.8413
 1295TIP3   OH225299   4.856   4.770  12.938  0.4416  0.2684 -0.0546
 1295TIP3    H125300   4.777   4.717  12.939  1.1211 -0.7568  0.5767
 1295TIP3    H225301   4.928   4.708  12.950  1.3145  1.2297 -0.1269
 1296TIP3   OH225302   0.608   6.235   6.764  0.0553 -0.1357  0.3142
 1296TIP3    H125303   0.585   6.240   6.671 -0.5375 -0.0093  0.4652
 1296TIP3    H225304   0.585   6.145   6.790 -0.3894  0.0281  0.4951
 1297TIP3   OH225305   1.631   2.365   4.028  0.3642  0.3179 -0.0587
 1297TIP3    H125306   1.645   2.274   4.051 -2.1951 -0.6334 -1.8183
 1297TIP3    H225307   1.672   2.415   4.099  2.4280 -2.1372  0.5890
 1298TIP3   OH225308   1.290   2.603   3.189 -0.4868  0.0477  0.2888
 1298TIP3    H125309   1.287   2.676   3.250  0.7342  1.2195 -0.9821
 1298TIP3    H225310   1.368   2.553   3.215  0.0681  0.5811 -0.3230
 1299TIP3   OH225311   4.844   4.061   3.617 -0.1414 -0.4600 -0.6659
 1299TIP3    H125312   4.872   4.135   3.563 -1.1532 -1.0568 -2.0807
 1299TIP3    H225313   4.831   4.099   3.704  0.4607  0.7761 -1.0819
 1300TIP3   OH225314   3.977   3.767  12.197 -0.2856  0.0702  0.0891
 1300TIP3    H125315   3.937   3.791  12.281  1.6688  2.2638  0.5172
 1300TIP3    H225316   3.918   3.804  12.131 -1.3592 -0.8706  0.4875
 1301TIP3   OH225317   3.233   1.898  15.685  0.6085 -0.2544 -0.7390
 1301TIP3    H125318   3.153   1.894  15.737  0.0658 -2.1903 -1.6248
 1301TIP3    H225319   3.208   1.860  15.600  2.0514  0.6385 -1.6041
 1302TIP3   OH225320   1.196   3.812  11.389  0.0418  0.0903 -0.3803
 1302TIP3    H125321   1.143   3.778  11.317  0.7722 -2.0057  0.0222
 1302TIP3    H225322   1.172   3.759  11.465 -0.1119  1.7157  0.7592
 1303TIP3   OH225323   5.666   3.807   5.201 -0.1468  0.3316 -0.4178
 1303TIP3    H125324   5.601   3.873   5.224  1.3721  1.5532  0.6169
 1303TIP3    H225325   5.628   3.759   5.127 -1.9098  1.4071 -0.2471
 1304TIP3   OH225326   5.861   3.706   3.554  0.0941  0.3295 -0.3876
 1304TIP3    H125327   5.943   3.750   3.532 -0.3735  1.6955  0.4764
 1304TIP3    H225328   5.856   3.632   3.493  1.9125  0.2669 -0.5132
 1305TIP3   OH225329   1.590   5.514   1.285  0.1266  0.2165 -0.0688
 1305TIP3    H125330   1.579   5.609   1.280  0.0065  0.2674  0.9498
 1305TIP3    H225331   1.683   5.502   1.306  0.5270  0.0307 -1.7602
 1306TIP3   OH225332   0.828   5.606  11.160 -0.4265 -0.2631  0.1708
 1306TIP3    H125333   0.899   5.631  11.101 -1.2796 -1.1066 -1.2477
 1306TIP3    H225334   0.819   5.681  11.220  2.6935 -0.7747  1.4487
 1307TIP3   OH225335   2.253   2.665  12.420  0.5011 -0.0936 -0.3607
 1307TIP3    H125336   2.265   2.704  12.507  1.3781  0.0892 -0.5530
 1307TIP3    H225337   2.279   2.574  12.431 -0.0970 -0.2588 -0.2667
 1308TIP3   OH225338   4.454   2.339   2.306  0.2636 -1.0676 -0.2114
 1308TIP3    H125339   4.407   2.385   2.237  0.6622  0.3569  0.4254
 1308TIP3    H225340   4.393   2.337   2.379  0.5252 -0.8675  0.0130
 1309TIP3   OH225341   2.541   3.617  13.505  0.0722  0.5830 -0.0582
 1309TIP3    H125342   2.578   3.604  13.418  1.8258 -0.2825  0.7747
 1309TIP3    H225343   2.454   3.576  13.500 -0.7405  2.3828 -1.9599
 1310TIP3   OH225344   5.100   4.750   0.912  0.2391 -0.1115 -0.1513
 1310TIP3    H125345   5.147   4.749   0.828 -0.4758 -0.4187 -0.5573
 1310TIP3    H225346   5.058   4.836   0.915  1.9040  0.7098  0.8413
 1311TIP3   OH225347   3.748   3.672   0.580 -0.0825  0.2600 -0.4538
 1311TIP3    H125348   3.751   3.648   0.673  1.3201 -0.9063 -0.7556
 1311TIP3    H225349   3.700   3.755   0.578 -1.0024 -0.1877  1.1929
 1312TIP3   OH225350   5.205   6.789   2.335 -0.6044  0.7834 -0.0721
 1312TIP3    H125351   5.138   6.746   2.281  1.4167 -2.1067 -0.4959
 1312TIP3    H225352   5.214   6.732   2.411  2.5541  0.0389 -0.8868
 1313TIP3   OH225353   2.880   5.076  13.812  0.3623  0.1315 -0.2044
 1313TIP3    H125354   2.863   5.008  13.877  0.9563 -1.5440 -1.7346
 1313TIP3    H225355   2.933   5.141  13.859  0.2885 -0.7402  1.1404
 1314TIP3   OH225356   0.225   0.069  14.760 -0.1075  0.1329  0.2379
 1314TIP3    H125357   0.280   0.094  14.685  0.2673 -0.4056  0.3270
 1314TIP3    H225358   0.208  -0.024  14.746  1.0239 -0.2867  1.4874
 1315TIP3   OH225359   5.663   5.880  16.179 -0.1243 -0.3432  0.7031
 1315TIP3    H125360   5.710   5.843  16.254  0.6390 -0.0803  0.3659
 1315TIP3    H225361   5.707   5.964  16.162 -0.6253 -0.1564  0.2843
 1316TIP3   OH225362   5.360   4.845  13.360  0.0326 -0.5043  0.2354
 1316TIP3    H125363   5.318   4.792  13.427  1.0825 -0.0698  1.2709
 1316TIP3    H225364   5.437   4.881  13.403  0.8813 -0.4202 -1.2914
 1317TIP3   OH225365   4.077   5.597  15.521 -0.2969 -0.1577 -0.1393
 1317TIP3    H125366   4.120   5.667  15.472 -0.8542 -0.7096 -1.4629
 1317TIP3    H225367   4.146   5.563  15.578  0.5471  0.1596 -0.9254
 1318TIP3   OH225368   1.673   4.663   3.025 -0.0104 -0.4180  0.1405
 1318TIP3    H125369   1.765   4.657   3.052  0.1664 -1.2913 -0.6102
 1318TIP3    H225370   1.625   4.681   3.106  0.9517  1.5242  0.3321
 1319TIP3   OH225371   2.306   3.987  14.582 -0.2339  0.6170 -0.1355
 1319TIP3    H125372   2.356   3.937  14.647 -0.9848  0.0640  0.0264
 1319TIP3    H225373   2.217   3.951  14.587 -0.9884  2.4773  0.5206
 1320TIP3   OH225374   1.432   2.802   3.802  1.1341 -0.1763  0.5094
 1320TIP3    H125375   1.518   2.784   3.766  1.6408  2.0373  0.4338
 1320TIP3    H225376   1.419   2.896   3.786 -1.8668 -0.6648 -0.7156
 1321TIP3   OH225377   5.779   6.811   0.518 -0.2068  0.1132  0.2010
 1321TIP3    H125378   5.835   6.832   0.443  0.1669  1.6683  0.8706
 1321TIP3    H225379   5.695   6.785   0.479  0.7048 -1.4909 -0.7935
 1322TIP3   OH225380   0.965   1.899   2.635 -0.3413  0.5031 -0.9839
 1322TIP3    H125381   0.967   1.806   2.657  0.6268  1.0522  1.6577
 1322TIP3    H225382   0.878   1.914   2.599 -0.4503 -1.4272 -1.6417
 1323TIP3   OH225383   1.591   3.348  13.241 -0.8124  0.2524  0.3857
 1323TIP3    H125384   1.669   3.329  13.293 -2.3315 -1.1569  2.2936
 1323TIP3    H225385   1.589   3.443  13.234  1.5206  0.3156 -0.5364
 1324TIP3   OH225386   1.176   5.097   2.752  0.3725 -0.4022  0.3098
 1324TIP3    H125387   1.180   5.120   2.845  3.5110 -0.2394  0.2142
 1324TIP3    H225388   1.227   5.016   2.745  0.9467  0.0750 -1.3934
 1325TIP3   OH225389   3.782   5.777   5.084 -0.3966  0.1449  0.9448
 1325TIP3    H125390   3.818   5.815   5.004  1.1324 -0.3204  1.3872
 1325TIP3    H225391   3.807   5.685   5.081 -1.6836 -0.2360  1.2183
 1326TIP3   OH225392   0.931   0.464   3.469  0.3871 -0.5611 -0.0569
 1326TIP3    H125393   0.864   0.488   3.533 -1.2418 -2.9828 -0.7183
 1326TIP3    H225394   0.902   0.506   3.388  0.6681 -0.1487  0.0537
 1327TIP3   OH225395   2.332   6.522  14.168  0.0710  0.1533  0.2420
 1327TIP3    H125396   2.249   6.544  14.210  0.5659  0.0574  1.2874
 1327TIP3    H225397   2.398   6.572  14.217  0.5286  1.2015 -1.3400
 1328TIP3   OH225398   5.896   2.238   2.612  0.0468  0.1493 -0.3458
 1328TIP3    H125399   5.825   2.296   2.584 -0.5300 -1.2130 -1.8388
 1328TIP3    H225400   5.919   2.189   2.533  1.4407 -0.6923  0.5554
 1329TIP3   OH225401   3.308   3.778  15.070 -0.0495  0.3781  0.6786
 1329TIP3    H125402   3.314   3.775  15.165  1.5146  0.1536  0.5992
 1329TIP3    H225403   3.321   3.870  15.048  2.7999  0.0611  0.5799
 1330TIP3   OH225404   3.162   1.818   5.905  0.3607 -0.1372  0.9749
 1330TIP3    H125405   3.189   1.796   5.994  0.2060  0.6708  1.2283
 1330TIP3    H225406   3.202   1.903   5.887 -0.5524  0.2507  0.7121
 1331TIP3   OH225407   2.368   3.673  13.780  0.0986  0.3059 -0.0152
 1331TIP3    H125408   2.376   3.732  13.706  0.3402 -0.6122 -0.7425
 1331TIP3    H225409   2.293   3.707  13.830 -1.8634 -0.5948 -2.1740
 1332TIP3   OH225410   2.102   1.130  12.320  0.8089  0.6921  0.1780
 1332TIP3    H125411   2.067   1.150  12.233 -1.1221  3.8583  1.5147
 1332TIP3    H225412   2.089   1.036  12.330  1.6404  0.1008 -3.0999
 1333TIP3   OH225413   1.701   5.934  12.491 -0.3885  0.6654  0.2210
 1333TIP3    H125414   1.792   5.922  12.464  0.2882  3.6423  0.8405
 1333TIP3    H225415   1.664   5.846  12.491  2.1302 -0.4922 -1.2337
 1334TIP3   OH225416   3.740   6.131  14.315  0.6168  0.0727 -0.5124
 1334TIP3    H125417   3.705   6.069  14.380  1.0938  0.8306  0.4984
 1334TIP3    H225418   3.724   6.089  14.231 -0.6741 -0.6279  0.0449
 1335TIP3   OH225419   3.076   5.128  11.456 -0.3281  0.6449  0.9371
 1335TIP3    H125420   3.045   5.064  11.392  0.4936 -1.1133  2.1908
 1335TIP3    H225421   3.047   5.212  11.422 -1.1196 -0.3392 -1.0070
 1336TIP3   OH225422   3.830   1.712  13.967 -0.0610  0.0141 -0.1233
 1336TIP3    H125423   3.761   1.655  13.935  0.8692 -0.5157 -1.2594
 1336TIP3    H225424   3.875   1.661  14.035 -0.8522  0.4154  0.7200
 1337TIP3   OH225425   0.335   0.060  10.674  0.2173  0.2427  0.0544
 1337TIP3    H125426   0.276   0.029  10.741  0.7196 -0.5782  0.1256
 1337TIP3    H225427   0.287   0.131  10.630  0.5185  1.9916  2.3647
 1338TIP3   OH225428   4.297   1.368   0.347 -0.1686  0.2785 -0.0198
 1338TIP3    H125429   4.268   1.283   0.380 -1.9077  0.9155  0.1888
 1338TIP3    H225430   4.256   1.375   0.261 -1.7055  1.7097  0.7748
 1339TIP3   OH225431   3.190   1.275  11.663 -0.6835 -1.0094 -0.1793
 1339TIP3    H125432   3.162   1.189  11.629 -1.8130 -1.3418  1.4666
 1339TIP3    H225433   3.109   1.315  11.695  0.0730  0.0176  0.4938
 1340TIP3   OH225434   6.562   4.702  16.424  0.5878  0.4234  0.0108
 1340TIP3    H125435   6.485   4.652  16.400  0.1481  1.0576  0.0787
 1340TIP3    H225436   6.615   4.642  16.476 -0.0356  0.1015  0.2786
 1341TIP3   OH225437   2.043   4.242   3.571  0.2117  0.3532 -0.4387
 1341TIP3    H125438   2.070   4.285   3.490 -0.2889 -0.1148 -0.8672
 1341TIP3    H225439   1.950   4.222   3.558  0.3018 -0.3642 -0.0363
 1342TIP3   OH225440   5.760   4.222   2.172  0.1924  0.1806 -0.1508
 1342TIP3    H125441   5.692   4.203   2.237  0.5602 -1.1367 -0.1239
 1342TIP3    H225442   5.788   4.136   2.140  0.8936  0.7579 -1.1532
 1343TIP3   OH225443   4.254   2.484   2.964  0.5767 -0.0414 -0.5977
 1343TIP3    H125444   4.175   2.441   2.995  0.0667 -0.7702 -2.7007
 1343TIP3    H225445   4.326   2.431   2.998  0.1824  0.3841  0.9827
 1344TIP3   OH225446   3.968   2.999   6.302  0.3000  0.6161 -0.2307
 1344TIP3    H125447   4.019   3.075   6.328 -0.7100  0.9790  0.7629
 1344TIP3    H225448   3.886   3.007   6.352 -0.5631 -0.1470 -1.4661
 1345TIP3   OH225449   5.583   0.174   1.068 -0.4274 -0.7200 -0.2870
 1345TIP3    H125450   5.488   0.164   1.081 -0.3481 -2.2049 -0.7134
 1345TIP3    H225451   5.616   0.205   1.152 -1.3122  0.0904 -0.2122
 1346TIP3   OH225452   5.773   3.540   2.980 -0.5348 -0.1457  0.1490
 1346TIP3    H125453   5.726   3.459   3.004 -0.5591 -0.1811 -0.0160
 1346TIP3    H225454   5.768   3.543   2.884 -2.2223  1.0424  0.2223
 1347TIP3   OH225455   0.108   4.752   6.458 -0.2954 -0.4877 -0.2823
 1347TIP3    H125456   0.014   4.770   6.451  0.0484  1.4230 -0.5250
 1347TIP3    H225457   0.142   4.769   6.370  0.1610 -2.0996 -0.4381
 1348TIP3   OH225458   0.581   5.189  11.845  0.1745  0.6732  0.2129
 1348TIP3    H125459   0.585   5.208  11.751 -0.4258  0.3822  0.1240
 1348TIP3    H225460   0.556   5.273  11.885 -0.0629  0.6773  0.0608
 1349TIP3   OH225461   5.945   4.482   0.081 -0.6176  0.5570 -0.3832
 1349TIP3    H125462   6.032   4.454   0.111 -1.1478 -1.4648 -0.5643
 1349TIP3    H225463   5.920   4.552   0.141  0.4042 -0.0437  0.7953
 1350TIP3   OH225464   5.593   0.121   3.267 -0.2137  0.1362 -0.0865
 1350TIP3    H125465   5.546   0.038   3.272  0.2275 -0.2003 -1.1246
 1350TIP3    H225466   5.554   0.166   3.191  0.2310  0.4278 -0.1456
 1351TIP3   OH225467   3.332   6.426   1.650  0.3092 -0.2684  0.7406
 1351TIP3    H125468   3.357   6.354   1.707 -0.3330 -0.7158  0.4702
 1351TIP3    H225469   3.399   6.428   1.581 -0.6735 -1.8430 -0.3217
 1352TIP3   OH225470   0.410   3.697   3.147  0.2287  0.1837  0.6979
 1352TIP3    H125471   0.435   3.634   3.079 -2.3416 -0.3186  0.1255
 1352TIP3    H225472   0.456   3.667   3.225  3.7145  1.0968 -0.8235
 1353TIP3   OH225473   6.635   0.924   5.478 -0.1915  0.3169 -0.1301
 1353TIP3    H125474   6.548   0.898   5.508 -0.0973 -0.7513 -0.7094
 1353TIP3    H225475   6.626   0.937   5.384  0.2215  0.4249 -0.1583
 1354TIP3   OH225476   1.567   1.427   1.897  0.3343 -0.1866 -0.4186
 1354TIP3    H125477   1.651   1.439   1.852 -0.2195  2.2340 -0.9055
 1354TIP3    H225478   1.507   1.487   1.853 -1.2788 -0.7299  0.9471
 1355TIP3   OH225479   1.300   1.932   3.190 -0.1038  0.4622  0.5736
 1355TIP3    H125480   1.246   1.855   3.170  0.3654  0.0136  0.9937
 1355TIP3    H225481   1.389   1.906   3.163  0.3891  0.1664  2.3483
 1356TIP3   OH225482   1.934   5.882   5.055  0.0248  0.1154  0.0970
 1356TIP3    H125483   1.932   5.932   5.137 -1.8085 -0.1782  0.2582
 1356TIP3    H225484   1.950   5.791   5.083  0.3599  0.1510  0.0327
 1357TIP3   OH225485   4.980   1.277   1.257 -0.2724  0.7639  0.0786
 1357TIP3    H125486   5.065   1.238   1.281  0.5118  1.6174 -1.1714
 1357TIP3    H225487   4.951   1.321   1.336  0.2945  0.1742  0.6286
 1358TIP3   OH225488   6.135   0.573   4.993 -0.0763  0.0231 -0.1334
 1358TIP3    H125489   6.183   0.630   5.053 -0.3374  0.6363 -0.5050
 1358TIP3    H225490   6.085   0.515   5.051  0.4241 -0.0331  0.2458
 1359TIP3   OH225491   6.061   0.404   4.710  0.2496 -0.5783  0.1951
 1359TIP3    H125492   6.053   0.458   4.631 -0.6911 -3.0817 -1.5474
 1359TIP3    H225493   6.155   0.393   4.723  0.4141  0.0532 -0.4469
 1360TIP3   OH225494   0.452   0.825   5.982  0.7122  0.4748  0.0016
 1360TIP3    H125495   0.435   0.902   6.036  0.7704  0.6015 -0.1602
 1360TIP3    H225496   0.372   0.773   5.990  0.8297  0.3543  0.4360
 1361TIP3   OH225497   0.959   4.144  13.646  0.0775  0.0175  0.5585
 1361TIP3    H125498   0.918   4.231  13.652 -1.0359 -0.4174 -0.3152
 1361TIP3    H225499   1.046   4.161  13.611  0.0364  0.8251  0.8272
 1362TIP3   OH225500   4.551   2.538   0.692  0.3873 -0.0069 -0.1337
 1362TIP3    H125501   4.461   2.558   0.718  0.4752 -0.6343  0.6945
 1362TIP3    H225502   4.551   2.543   0.597 -0.4485  0.2903 -0.1216
 1363TIP3   OH225503   1.691   5.765  10.870  0.1030 -0.0761  0.0805
 1363TIP3    H125504   1.752   5.822  10.917 -0.8368 -0.2209  1.5086
 1363TIP3    H225505   1.611   5.765  10.922 -1.4816  0.7779 -2.1920
 1364TIP3   OH225506   2.542   3.504  16.931  0.1530  0.2057  0.1519
 1364TIP3    H125507   2.628   3.470  16.955  0.8562  1.0116 -1.0898
 1364TIP3    H225508   2.541   3.499  16.835 -0.1795  2.4744 -0.0105
 1365TIP3   OH225509   6.644   6.389   5.588 -0.6017 -0.2363  0.0230
 1365TIP3    H125510   6.638   6.332   5.511 -1.5851 -0.7158  0.4368
 1365TIP3    H225511   6.553   6.413   5.607 -0.2467  1.1704  0.0981
 1366TIP3   OH225512   3.330   0.694   2.453 -0.0372  0.0645 -1.1631
 1366TIP3    H125513   3.363   0.697   2.363  1.7263 -0.3041 -0.5779
 1366TIP3    H225514   3.367   0.613   2.489 -2.9963 -1.3063 -0.8935
 1367TIP3   OH225515   1.889   2.688   5.289  0.3726 -0.5108  0.3250
 1367TIP3    H125516   1.900   2.621   5.222 -2.4515 -0.5078 -0.2773
 1367TIP3    H225517   1.809   2.735   5.263  0.3177  0.8126  2.6111
 1368TIP3   OH225518   5.024   4.627  16.261 -0.8246  0.1508 -0.2014
 1368TIP3    H125519   5.081   4.652  16.189  0.4692 -0.6033  0.5279
 1368TIP3    H225520   4.941   4.603  16.219 -0.6940  1.4538 -1.2529
 1369TIP3   OH225521   4.115   1.427  10.637  0.1424 -0.3882  0.5203
 1369TIP3    H125522   4.024   1.444  10.610  1.0277 -0.3970 -2.8039
 1369TIP3    H225523   4.166   1.496  10.595  2.0153 -2.1367 -0.2318
 1370TIP3   OH225524   5.759   5.450   4.821  0.3898 -0.3269  0.0636
 1370TIP3    H125525   5.735   5.514   4.888  1.3624 -0.6136  0.7189
 1370TIP3    H225526   5.725   5.486   4.739  0.1785  0.5971  0.5492
 1371TIP3   OH225527   1.546   4.060   5.557 -0.1584  0.1609  0.1334
 1371TIP3    H125528   1.459   4.092   5.582 -0.4807 -0.9114  0.4114
 1371TIP3    H225529   1.603   4.086   5.630 -0.1671  1.1548 -0.1993
 1372TIP3   OH225530   2.383   1.214  16.010  0.3412  0.8215 -0.4321
 1372TIP3    H125531   2.305   1.213  15.955 -0.4120  0.2828  0.5917
 1372TIP3    H225532   2.457   1.219  15.949 -0.3611 -1.6367 -1.5831
 1373TIP3   OH225533   2.804   2.745  11.900  0.2645 -0.0824 -0.4643
 1373TIP3    H125534   2.739   2.807  11.867  1.1788  0.4716 -1.2734
 1373TIP3    H225535   2.785   2.739  11.994 -1.7883 -0.9759 -0.8764
 1374TIP3   OH225536   4.603   5.708   1.476  0.7032 -0.1465 -0.0141
 1374TIP3    H125537   4.519   5.747   1.453  0.3341 -0.2988  1.0268
 1374TIP3    H225538   4.640   5.767   1.543  1.0668 -0.4891  0.0941
 1375TIP3   OH225539   4.966   2.482  12.213  0.0157 -0.0913 -0.1283
 1375TIP3    H125540   4.891   2.422  12.214 -0.0363 -0.1335 -2.2597
 1375TIP3    H225541   4.933   2.562  12.254 -1.0906 -0.2301 -0.6974
 1376TIP3   OH225542   1.354   4.018  15.901  0.3819  0.3466 -0.2599
 1376TIP3    H125543   1.261   4.010  15.877  0.7700 -1.0251 -1.4692
 1376TIP3    H225544   1.389   3.930  15.888  1.3477  0.2254  2.5705
 1377TIP3   OH225545   3.529   0.146  14.888  0.0470 -0.0826  0.1307
 1377TIP3    H125546   3.539   0.241  14.897  0.3049  0.0368 -1.2038
 1377TIP3    H225547   3.490   0.134  14.801  0.4433 -1.2136  0.0959
 1378TIP3   OH225548   2.557   2.999   2.455  0.2975  0.0282 -0.2568
 1378TIP3    H125549   2.619   3.062   2.492 -0.6900  0.0819  1.4050
 1378TIP3    H225550   2.611   2.941   2.402  1.2370  2.2856 -1.9455
 1379TIP3   OH225551   1.954   0.673  11.518  0.0316  0.4505 -0.9682
 1379TIP3    H125552   2.026   0.710  11.570 -2.2912  1.2910  1.8838
 1379TIP3    H225553   1.967   0.578  11.523  0.5214  0.5616  0.1901
 1380TIP3   OH225554   4.526   6.243  15.431 -0.3741 -0.1703  0.0220
 1380TIP3    H125555   4.533   6.160  15.385  1.2343 -0.0766  0.0459
 1380TIP3    H225556   4.554   6.224  15.520 -1.6452  0.0577  0.4986
 1381TIP3   OH225557   1.618   6.542  10.635 -0.0481  0.1440  0.1923
 1381TIP3    H125558   1.597   6.625  10.676  1.2013 -0.3635  1.9921
 1381TIP3    H225559   1.712   6.532  10.647  0.4060 -0.0715 -2.8557
 1382TIP3   OH225560   2.638   3.116  16.569  0.7184 -0.3422  0.6759
 1382TIP3    H125561   2.550   3.119  16.605  0.3444 -0.2685 -0.2232
 1382TIP3    H225562   2.632   3.161  16.484  1.6630 -0.1410  0.6945
 1383TIP3   OH225563   0.865   0.763   3.331  0.0777  0.7434 -0.1297
 1383TIP3    H125564   0.911   0.796   3.254  0.0202  0.6441 -0.2069
 1383TIP3    H225565   0.847   0.671   3.310 -0.9342  1.0131 -0.4640
 1384TIP3   OH225566   2.919   1.895  11.183  0.4529 -0.5576 -0.0780
 1384TIP3    H125567   2.947   1.834  11.114  1.4856  0.2379 -0.3924
 1384TIP3    H225568   2.861   1.843  11.239  0.6357 -1.5877 -0.8107
 1385TIP3   OH225569   0.859   1.804  11.473 -0.5849 -0.6846  0.2328
 1385TIP3    H125570   0.909   1.861  11.532 -0.7030 -0.1742 -0.1502
 1385TIP3    H225571   0.886   1.716  11.496  0.8943 -0.4008 -0.3271
 1386TIP3   OH225572   3.198   2.669   2.389 -0.4177  0.3145  0.2427
 1386TIP3    H125573   3.203   2.620   2.306 -1.4054 -0.5726  0.6832
 1386TIP3    H225574   3.220   2.759   2.365  1.6918 -0.3479 -0.5572
 1387TIP3   OH225575   5.542   0.414   3.406 -0.6420 -0.0109 -0.1154
 1387TIP3    H125576   5.624   0.449   3.371 -0.3999  0.9817  1.3573
 1387TIP3    H225577   5.522   0.470   3.481 -1.7083 -1.3793  0.6674
 1388TIP3   OH225578   4.552   1.262   5.534 -0.2144  0.1210  0.3462
 1388TIP3    H125579   4.588   1.242   5.448 -2.0982  1.4294 -0.8158
 1388TIP3    H225580   4.628   1.273   5.590  1.0465 -1.2943 -1.0007
 1389TIP3   OH225581   6.794   5.171   2.331  0.1088  0.1911  0.1297
 1389TIP3    H125582   6.740   5.092   2.328 -0.2726  0.2009  3.4835
 1389TIP3    H225583   6.738   5.239   2.294 -0.8082 -0.4712  0.2646
 1390TIP3   OH225584   3.042   2.896  15.767 -0.1114 -0.5855 -0.2687
 1390TIP3    H125585   3.053   2.813  15.813 -0.0107 -2.3637 -3.2257
 1390TIP3    H225586   3.124   2.944  15.783 -0.2209 -0.9451  1.5630
 1391TIP3   OH225587   3.576   2.000  12.932 -0.3465  0.1612  0.6582
 1391TIP3    H125588   3.588   1.912  12.896 -0.3208  0.3350  0.2399
 1391TIP3    H225589   3.655   2.016  12.984  0.1221  0.3463 -0.1099
 1392TIP3   OH225590   2.246   5.289   5.808  0.2799  0.3923 -0.5185
 1392TIP3    H125591   2.319   5.265   5.864 -0.7546 -0.1602  0.6353
 1392TIP3    H225592   2.169   5.279   5.863 -0.5600  2.6208 -1.1599
 1393TIP3   OH225593   2.425   4.656  11.501 -0.7890  0.0663  0.8802
 1393TIP3    H125594   2.439   4.678  11.409  0.1351 -0.6026  0.8476
 1393TIP3    H225595   2.360   4.586  11.499  0.0931 -0.7678  0.6427
 1394TIP3   OH225596   3.921   3.618   0.315 -0.1485  0.2611 -0.1096
 1394TIP3    H125597   3.968   3.696   0.345 -1.9334  0.3867  2.7280
 1394TIP3    H225598   3.870   3.590   0.390  0.2393 -3.6044 -1.0573
 1395TIP3   OH225599   2.891   4.695  13.877 -0.0957  0.3475  0.0075
 1395TIP3    H125600   2.843   4.760  13.928  0.7306  0.5326  0.5694
 1395TIP3    H225601   2.829   4.623  13.865 -0.0382 -0.1104  2.0812
 1396TIP3   OH225602   4.076   4.667   4.787  0.1514 -0.5132 -0.9387
 1396TIP3    H125603   3.996   4.627   4.822  0.5885  0.2623  1.0765
 1396TIP3    H225604   4.111   4.602   4.727 -0.0666 -2.4426  0.9076
 1397TIP3   OH225605   3.942   4.805   5.606 -0.1025  0.1631  0.0979
 1397TIP3    H125606   4.013   4.851   5.649 -0.2853 -1.0423  1.8153
 1397TIP3    H225607   3.887   4.874   5.569  0.8428  1.1919  0.5655
 1398TIP3   OH225608   5.548   6.638  14.343 -0.3267 -0.0049  0.4285
 1398TIP3    H125609   5.630   6.623  14.295 -0.5610 -0.5615  0.1888
 1398TIP3    H225610   5.490   6.678  14.278 -0.0828  0.8725  0.7433
 1399TIP3   OH225611   3.980   0.615  12.606  0.5310  0.0929  0.4227
 1399TIP3    H125612   4.021   0.543  12.655 -0.8864 -1.0347  0.0396
 1399TIP3    H225613   3.903   0.638  12.658  1.5980  2.2269  1.1769
 1400TIP3   OH225614   6.030   3.693   4.651 -0.1502  0.0706 -0.0576
 1400TIP3    H125615   5.974   3.734   4.585  0.8728  1.3674 -0.1447
 1400TIP3    H225616   6.119   3.719   4.628  0.4300 -1.1550  0.6576
 1401TIP3   OH225617   0.067   3.971   0.879  0.3970 -0.0965 -0.0919
 1401TIP3    H125618   0.122   3.948   0.805  0.7346 -0.4343  0.2662
 1401TIP3    H225619  -0.022   3.967   0.844  0.5923  0.5863 -0.7084
 1402TIP3   OH225620   6.652   2.645  17.080 -0.4160  0.4663 -0.3727
 1402TIP3    H125621   6.693   2.570  17.036 -0.7224 -0.1266  0.3461
 1402TIP3    H225622   6.567   2.654  17.038 -2.1038 -2.1307  2.1697
 1403TIP3   OH225623   0.124   4.165   1.064  0.4280  0.4040 -0.2963
 1403TIP3    H125624   0.129   4.117   1.147 -0.4784  0.9996  0.1193
 1403TIP3    H225625   0.082   4.104   1.003  0.3328  0.2616 -0.0899
 1404TIP3   OH225626   3.554   3.803  15.921 -0.3869  0.2348  0.2190
 1404TIP3    H125627   3.615   3.865  15.882  2.7003 -2.4621  0.4011
 1404TIP3    H225628   3.547   3.830  16.013  2.0373 -0.3685  0.6447
 1405TIP3   OH225629   0.252   3.647  11.861 -0.7742 -0.2734  0.6555
 1405TIP3    H125630   0.235   3.637  11.955 -1.5375  2.3980  0.9055
 1405TIP3    H225631   0.172   3.688  11.827 -0.1483 -0.3625 -0.9854
 1406TIP3   OH225632   0.846   6.468   4.958  0.0096  1.1063  0.0832
 1406TIP3    H125633   0.877   6.554   4.931  2.2959  0.6220  0.9026
 1406TIP3    H225634   0.840   6.473   5.053 -0.7598  0.6233  0.0715
 1407TIP3   OH225635   4.831   2.597  15.921  0.1254  0.2431  0.1071
 1407TIP3    H125636   4.751   2.606  15.868 -1.8302  1.8405  3.0459
 1407TIP3    H225637   4.875   2.681  15.913 -1.5059  1.4621  2.7987
 1408TIP3   OH225638   3.540   5.631  12.462  0.4458  0.1128  0.4396
 1408TIP3    H125639   3.488   5.685  12.522 -0.3493 -0.5773  0.3881
 1408TIP3    H225640   3.590   5.572  12.520 -0.1234 -0.3741  0.4490
 1409TIP3   OH225641   4.692   2.069   6.008  0.1105 -0.2865  0.1976
 1409TIP3    H125642   4.766   2.113   6.051 -0.5260  1.2167 -0.1787
 1409TIP3    H225643   4.728   1.985   5.979  1.5425  0.2124  0.4429
 1410TIP3   OH225644   6.543   2.435   5.004 -0.1770  0.2125  0.3546
 1410TIP3    H125645   6.574   2.353   5.041  0.1517  0.2934  0.2641
 1410TIP3    H225646   6.458   2.414   4.965  0.3341 -0.3035 -0.5045
 1411TIP3   OH225647   5.210   3.460  14.888  0.4510  0.2290 -0.2821
 1411TIP3    H125648   5.225   3.538  14.835  1.3005  1.6603  1.9509
 1411TIP3    H225649   5.119   3.435  14.869  0.0662  1.9237 -0.8605
 1412TIP3   OH225650   0.535   5.574   4.519 -0.5482  0.1681  0.5460
 1412TIP3    H125651   0.504   5.663   4.537  0.6597  1.0628 -1.4413
 1412TIP3    H225652   0.630   5.579   4.529 -0.5933 -1.4226  2.2635
 1413TIP3   OH225653   6.425   6.504  11.915  0.5524  0.3336 -0.6612
 1413TIP3    H125654   6.488   6.433  11.923 -0.8634 -0.9490 -0.3404
 1413TIP3    H225655   6.389   6.514  12.004  0.8768  1.6308 -0.6489
 1414TIP3   OH225656   0.132   5.084   1.268  0.0980 -0.3925 -0.0291
 1414TIP3    H125657   0.185   5.161   1.250  1.9002 -1.6470 -0.4441
 1414TIP3    H225658   0.078   5.073   1.190 -0.0649  0.3666 -0.0232
 1415TIP3   OH225659   1.397   4.437  14.125  0.3234  0.6441 -0.1906
 1415TIP3    H125660   1.324   4.433  14.187  0.3849  0.5861 -0.1228
 1415TIP3    H225661   1.389   4.357  14.073  0.0789  0.8459 -0.4730
 1416TIP3   OH225662   6.203   2.253   3.165  0.3541 -0.2198 -0.3100
 1416TIP3    H125663   6.221   2.257   3.071 -0.2786  0.8459 -0.4058
 1416TIP3    H225664   6.288   2.267   3.207  0.8421 -1.8235 -0.6940
 1417TIP3   OH225665   3.915   2.328   2.613 -0.1397 -0.4780  0.0064
 1417TIP3    H125666   3.956   2.411   2.638  1.6624 -0.9127 -1.3047
 1417TIP3    H225667   3.868   2.347   2.532  1.1124 -0.9116 -0.8534
 1418TIP3   OH225668   4.320   1.562   3.898 -0.3722  0.3306 -0.6574
 1418TIP3    H125669   4.276   1.558   3.813  0.8753 -0.5684 -1.2923
 1418TIP3    H225670   4.249   1.558   3.962 -1.2866  0.3053 -1.6508
 1419TIP3   OH225671   3.355   3.203  15.777 -0.2828 -0.1410 -0.1199
 1419TIP3    H125672   3.307   3.255  15.712  0.4509 -0.0139 -0.5695
 1419TIP3    H225673   3.441   3.190  15.738 -0.0505 -0.6353  0.5441
 1420TIP3   OH225674   2.292   0.619  14.557 -0.2850  0.6670  0.8287
 1420TIP3    H125675   2.299   0.547  14.620  1.7879 -0.1498 -0.2515
 1420TIP3    H225676   2.213   0.598  14.506 -0.5795  0.0227  1.5331
 1421TIP3   OH225677   2.698   3.358   5.698 -0.7262 -0.1006 -0.1849
 1421TIP3    H125678   2.781   3.371   5.743  0.0886 -0.5448 -1.5145
 1421TIP3    H225679   2.638   3.420   5.740  0.4048  0.6003  0.4376
 1422TIP3   OH225680   1.060   3.947  14.154 -0.4357  0.9111  0.0565
 1422TIP3    H125681   1.059   3.892  14.233  0.1871  2.4442  1.1763
 1422TIP3    H225682   1.105   3.894  14.088 -1.3280 -0.5639  0.5652
 1423TIP3   OH225683   6.318   1.712   0.833 -0.1129  0.2385  1.0779
 1423TIP3    H125684   6.339   1.693   0.925  1.5497  0.8663  0.8560
 1423TIP3    H225685   6.366   1.792   0.813  0.8747 -0.7299 -0.7721
 1424TIP3   OH225686   1.625   1.883  11.528 -0.0494 -0.2412 -0.1932
 1424TIP3    H125687   1.548   1.826  11.531 -0.9131  0.7100 -2.3185
 1424TIP3    H225688   1.682   1.843  11.462  0.8438 -0.3702  0.6292
 1425TIP3   OH225689   6.534   4.248  11.167 -0.4195  0.2532  0.6427
 1425TIP3    H125690   6.489   4.235  11.251 -2.1850 -0.6199 -0.3747
 1425TIP3    H225691   6.474   4.211  11.102  2.2440 -1.8766 -0.7635
 1426TIP3   OH225692   2.840   4.272  11.035 -0.2790 -0.0980  0.2549
 1426TIP3    H125693   2.823   4.361  11.005 -0.0542 -0.9568 -2.7422
 1426TIP3    H225694   2.934   4.260  11.022 -0.5675 -1.2633 -0.9338
 1427TIP3   OH225695   1.080   0.761  13.308 -0.3909 -0.2636  0.2262
 1427TIP3    H125696   1.081   0.791  13.399  1.5139 -1.7261  0.7597
 1427TIP3    H225697   1.144   0.817  13.264  0.1536 -0.8176  0.2854
 1428TIP3   OH225698   3.923   5.519   3.403 -0.2677 -0.6427  0.2538
 1428TIP3    H125699   3.870   5.597   3.387  1.5171  0.8501  1.1576
 1428TIP3    H225700   3.972   5.506   3.322  1.4952  0.9551  0.9766
 1429TIP3   OH225701   4.464   0.762  10.403 -0.4365 -0.1885  0.4135
 1429TIP3    H125702   4.558   0.749  10.416 -0.2157  1.1200  0.2001
 1429TIP3    H225703   4.429   0.673  10.395  0.7509 -0.6987  0.6671
 1430TIP3   OH225704   6.648   1.775  14.641 -0.1622 -0.1328 -0.0704
 1430TIP3    H125705   6.642   1.692  14.688  0.1088 -1.3892 -2.1581
 1430TIP3    H225706   6.741   1.785  14.621 -0.1604  0.8092  0.3298
 1431TIP3   OH225707   2.773   6.259  11.848 -0.3158  1.0833  0.2391
 1431TIP3    H125708   2.763   6.163  11.843  1.1059  0.9772 -1.9032
 1431TIP3    H225709   2.700   6.287  11.903 -1.3819 -1.1439  0.1030
 1432TIP3   OH225710   1.229   6.511   3.938  0.1016 -0.1662  0.0464
 1432TIP3    H125711   1.319   6.529   3.911  0.4036 -0.4691  0.8147
 1432TIP3    H225712   1.231   6.421   3.971 -0.9565 -0.9553 -1.9073
 1433TIP3   OH225713   2.821   6.208  13.507  0.1409 -0.2163 -0.3655
 1433TIP3    H125714   2.893   6.254  13.463  0.8591 -0.7037  0.2659
 1433TIP3    H225715   2.744   6.263  13.491  1.1896  2.0227  1.5424
 1434TIP3   OH225716   0.537   0.559   5.901  0.2534  0.1784  0.3162
 1434TIP3    H125717   0.476   0.633   5.906  1.6154  1.2923  1.5295
 1434TIP3    H225718   0.613   0.588   5.952  0.8395 -2.0803  0.8097
 1435TIP3   OH225719   2.988   0.379  15.736  0.0380  0.5105  0.2316
 1435TIP3    H125720   3.047   0.425  15.676  1.2054 -0.8547  0.2745
 1435TIP3    H225721   2.906   0.427  15.729 -0.2814 -0.2352 -3.3882
 1436TIP3   OH225722   5.790   3.343   3.643 -0.1850 -0.0825  0.0338
 1436TIP3    H125723   5.883   3.359   3.661 -0.7758 -0.1993  4.4024
 1436TIP3    H225724   5.756   3.307   3.725 -4.3237  0.9976 -0.9793
 1437TIP3   OH225725   6.424   1.283   3.369 -0.1418 -0.2890 -0.4849
 1437TIP3    H125726   6.419   1.374   3.398 -1.1427 -0.7786  0.9717
 1437TIP3    H225727   6.352   1.240   3.413  0.6079 -1.9078 -0.7711
 1438TIP3   OH225728   0.371   6.427  11.798 -0.4041  0.3193 -0.6199
 1438TIP3    H125729   0.408   6.509  11.832 -0.5520  0.4581 -0.7944
 1438TIP3    H225730   0.311   6.398  11.867  1.0415 -0.6324  0.2943
 1439TIP3   OH225731   6.275   3.811  13.564 -0.0380 -0.3821 -0.2006
 1439TIP3    H125732   6.210   3.770  13.621  1.0965 -0.1635  1.3119
 1439TIP3    H225733   6.297   3.894  13.608  0.2785  0.1912 -1.3839
 1440TIP3   OH225734   4.593   0.186   1.063  0.4984  0.1761 -0.0330
 1440TIP3    H125735   4.654   0.259   1.057  1.5227 -0.6924 -0.5108
 1440TIP3    H225736   4.545   0.188   0.980  1.1344 -0.1990 -0.4211
 1441TIP3   OH225737   6.329   0.694   1.223 -0.1308  0.7897 -0.4896
 1441TIP3    H125738   6.294   0.665   1.139  0.4040  4.0382 -2.0120
 1441TIP3    H225739   6.404   0.638   1.239 -2.0775 -1.9983 -0.4525
 1442TIP3   OH225740   1.888   3.392  11.976  0.2830 -0.0621 -0.1440
 1442TIP3    H125741   1.899   3.455  12.047 -0.7247 -0.3389  0.2843
 1442TIP3    H225742   1.891   3.444  11.896  1.3091  0.2710  0.1071
 1443TIP3   OH225743   5.003   2.154   2.731 -0.1690 -0.1084  0.0028
 1443TIP3    H125744   5.021   2.191   2.818  0.0798  2.3140 -1.0182
 1443TIP3    H225745   5.072   2.190   2.675 -1.1413 -0.5028 -1.4969
 1444TIP3   OH225746   2.477   6.759   5.819 -0.3001 -0.4700  1.2098
 1444TIP3    H125747   2.465   6.845   5.859  0.2700  0.6042 -0.8294
 1444TIP3    H225748   2.570   6.739   5.833  0.0793  0.2422 -0.1280
 1445TIP3   OH225749   5.066   2.236  16.388  0.0084  0.1971  0.0208
 1445TIP3    H125750   5.104   2.187  16.461 -1.4386 -2.2942 -0.7816
 1445TIP3    H225751   4.972   2.231  16.402 -0.2438  2.6257 -0.2848
 1446TIP3   OH225752   0.690   1.660   1.038 -0.0301  0.6935  0.0590
 1446TIP3    H125753   0.659   1.636   1.126 -0.4358  0.8562 -0.0371
 1446TIP3    H225754   0.727   1.579   1.003 -2.0613 -0.0258 -0.5579
 1447TIP3   OH225755   4.240   4.905  14.423  0.5431  0.2361  0.3534
 1447TIP3    H125756   4.254   4.813  14.401 -0.5258 -0.3176  1.9168
 1447TIP3    H225757   4.295   4.921  14.499  1.8513  1.3296 -0.7476
 1448TIP3   OH225758   5.971   6.344  11.098  0.0397  0.0647  0.7691
 1448TIP3    H125759   5.970   6.439  11.088  0.2192 -0.1056 -1.1067
 1448TIP3    H225760   5.920   6.312  11.024 -2.3337 -1.2276  2.8195
 1449TIP3   OH225761   0.338   3.608  15.935  0.1347  0.0714 -0.0279
 1449TIP3    H125762   0.254   3.562  15.932  0.1109 -0.0225  1.3361
 1449TIP3    H225763   0.315   3.698  15.960  0.4137  0.0919  0.1624
 1450TIP3   OH225764   5.765   1.127   6.540 -0.2221  0.1592  0.0745
 1450TIP3    H125765   5.812   1.070   6.600 -0.0354 -0.1392 -0.3439
 1450TIP3    H225766   5.822   1.202   6.527 -0.2337  0.1920  0.2236
 1451TIP3   OH225767   0.609   3.398  12.985  0.4480 -0.4371 -0.5631
 1451TIP3    H125768   0.617   3.468  12.919  1.0575  0.5964  0.5696
 1451TIP3    H225769   0.515   3.391  13.000  0.2220 -1.2473 -2.0893
 1452TIP3   OH225770   5.758   5.362   6.055  0.4248 -0.2310 -0.1451
 1452TIP3    H125771   5.847   5.384   6.082  0.1483  0.4735  0.2108
 1452TIP3    H225772   5.717   5.329   6.135  0.6993 -1.6602 -0.5655
 1453TIP3   OH225773   1.494   4.299  11.739  0.1009 -0.4561 -0.2714
 1453TIP3    H125774   1.577   4.254  11.723 -0.0380 -0.7232 -0.2353
 1453TIP3    H225775   1.438   4.273  11.665 -0.4607 -1.4875  0.4964
 1454TIP3   OH225776   5.784   3.864   0.658  0.5296  0.1774  0.2999
 1454TIP3    H125777   5.819   3.869   0.747 -1.0359  0.5773  0.9315
 1454TIP3    H225778   5.721   3.937   0.653 -0.5795 -0.8007 -0.5770
 1455TIP3   OH225779   6.415   0.191   3.972 -0.2668 -0.4325 -0.0327
 1455TIP3    H125780   6.504   0.160   3.953  0.1874 -0.9089  2.4687
 1455TIP3    H225781   6.358   0.127   3.929  0.6343 -1.4030  0.1732
 1456TIP3   OH225782   0.811   0.170   3.217 -0.0045 -0.4043  0.1173
 1456TIP3    H125783   0.794   0.211   3.302 -3.2345 -0.8215 -0.2163
 1456TIP3    H225784   0.832   0.079   3.238  1.0377 -0.0973  0.5060
 1457TIP3   OH225785   3.393   3.521  14.767 -0.5199 -0.0222  0.5012
 1457TIP3    H125786   3.361   3.605  14.801  0.5456  0.4976  0.2792
 1457TIP3    H225787   3.338   3.504  14.690 -0.5544  0.6311  0.3747
 1458TIP3   OH225788   1.688   2.277  11.969  0.7181 -0.0350  0.1304
 1458TIP3    H125789   1.636   2.337  11.915 -0.9591  0.0101  1.7241
 1458TIP3    H225790   1.776   2.316  11.969  0.0415  1.5753 -0.1334
 1459TIP3   OH225791   2.493   0.314   1.174  1.2334  0.1215  0.1643
 1459TIP3    H125792   2.429   0.376   1.209  1.8944  2.7549 -2.8032
 1459TIP3    H225793   2.440   0.243   1.137  0.2633  0.3726  1.0434
 1460TIP3   OH225794   1.710   3.361  12.604 -0.1379  0.1909  0.3483
 1460TIP3    H125795   1.758   3.345  12.685  1.1235 -1.6061 -0.6927
 1460TIP3    H225796   1.635   3.301  12.608 -1.1873  1.4731  0.9948
 1461TIP3   OH225797   1.500   4.122   5.893 -0.2888 -0.1863 -0.0764
 1461TIP3    H125798   1.531   4.037   5.924  1.2232  0.7981  1.2737
 1461TIP3    H225799   1.571   4.156   5.839  0.5734  1.5017  1.9339
 1462TIP3   OH225800   3.641   6.701  16.937 -0.4387 -0.5971 -0.5245
 1462TIP3    H125801   3.641   6.792  16.907 -0.7653 -0.7278 -0.9306
 1462TIP3    H225802   3.579   6.657  16.879 -0.8654 -0.9155  0.1561
 1463TIP3   OH225803   2.540   2.225  12.178 -0.6574 -0.2643 -0.1412
 1463TIP3    H125804   2.487   2.166  12.124 -2.0405 -0.0248  0.8974
 1463TIP3    H225805   2.545   2.306  12.127  0.2818 -0.8912 -1.0624
 1464TIP3   OH225806   1.398   1.473   4.410  1.1143  0.1030  0.2123
 1464TIP3    H125807   1.464   1.540   4.428 -1.1331  1.9530  2.2347
 1464TIP3    H225808   1.371   1.441   4.496  0.5959 -1.9180 -0.6278
 1465TIP3   OH225809   1.565   5.685  12.454  0.4540 -0.0931 -0.2735
 1465TIP3    H125810   1.492   5.680  12.517  2.0496  0.3048  1.7209
 1465TIP3    H225811   1.546   5.617  12.390 -2.7639  1.4132 -1.1293
 1466TIP3   OH225812   0.229   6.099   2.029 -0.2133  0.3805 -0.3455
 1466TIP3    H125813   0.155   6.055   1.988 -1.0471  0.1999  1.2524
 1466TIP3    H225814   0.269   6.150   1.959 -0.7138 -0.9744 -1.6730
 1467TIP3   OH225815   5.337   0.530   4.418 -0.1062  0.1774 -0.9201
 1467TIP3    H125816   5.346   0.604   4.358  2.1999  0.3820 -0.4341
 1467TIP3    H225817   5.421   0.483   4.411 -0.7937 -1.3157  0.1763
 1468TIP3   OH225818   0.081   0.080  16.941 -0.3349  0.2501  0.2500
 1468TIP3    H125819   0.074   0.070  16.846 -1.5330  1.2857  0.2165
 1468TIP3    H225820   0.153   0.021  16.965 -1.1855 -1.4164 -1.0517
 1469TIP3   OH225821   1.275   0.710   5.801 -0.4730  0.3088 -0.5508
 1469TIP3    H125822   1.215   0.653   5.753  0.3901 -0.9150 -0.2414
 1469TIP3    H225823   1.265   0.796   5.759 -0.5350 -0.4673 -2.2237
 1470TIP3   OH225824   4.025   5.656   4.332  0.1816  0.0240  0.0904
 1470TIP3    H125825   3.931   5.645   4.318  0.2328 -2.5423  1.1404
 1470TIP3    H225826   4.037   5.642   4.425  1.4239  2.5617  0.3898
 1471TIP3   OH225827   0.591   4.383   5.455 -0.7574  0.1236 -0.3533
 1471TIP3    H125828   0.519   4.437   5.487 -1.7300 -1.5627  0.4482
 1471TIP3    H225829   0.602   4.409   5.364 -1.4402  1.3799 -0.1002
 1472TIP3   OH225830   5.610   3.045  13.461  0.3266 -0.4065 -0.4971
 1472TIP3    H125831   5.608   3.108  13.534  1.3782  0.4344 -1.1525
 1472TIP3    H225832   5.682   2.986  13.483  0.4144 -0.3682 -0.6817
 1473TIP3   OH225833   0.546   5.120   1.254  0.2816 -0.3815  0.1543
 1473TIP3    H125834   0.563   5.193   1.313  1.3812 -0.0335 -0.5819
 1473TIP3    H225835   0.621   5.061   1.265  0.3457 -0.4660 -0.6635
 1474TIP3   OH225836   4.756   4.314  10.912 -0.0323 -0.3526 -0.6935
 1474TIP3    H125837   4.778   4.328  11.004 -0.0626  1.1716 -0.9057
 1474TIP3    H225838   4.840   4.299  10.869  0.3325  1.9821 -0.9089
 1475TIP3   OH225839   4.190   2.948  14.877 -0.5488  0.2800 -0.7331
 1475TIP3    H125840   4.148   2.862  14.878  0.7528 -0.4085 -2.1953
 1475TIP3    H225841   4.283   2.930  14.890 -0.4225  1.6237  0.5194
 1476TIP3   OH225842   6.191   3.160   3.408 -0.0129 -0.1395 -0.0685
 1476TIP3    H125843   6.245   3.144   3.486 -0.2923  1.2741  0.4512
 1476TIP3    H225844   6.221   3.095   3.345  0.9006 -0.6950  0.8862
 1477TIP3   OH225845   5.926   3.812  13.463 -0.2348 -0.0299  0.4048
 1477TIP3    H125846   5.856   3.848  13.517  0.5215  0.9721  0.7480
 1477TIP3    H225847   5.982   3.887  13.442 -0.0561 -0.5451 -1.0822
 1478TIP3   OH225848   2.979   1.318   4.382 -0.2119 -0.3077  0.2921
 1478TIP3    H125849   2.902   1.317   4.324 -1.1740 -0.7255  1.5408
 1478TIP3    H225850   2.961   1.250   4.447  1.6194 -1.0141  0.1280
 1479TIP3   OH225851   4.854   4.163   0.031  0.0474  0.3687  0.3644
 1479TIP3    H125852   4.808   4.247   0.038  1.2701  0.9996  1.4867
 1479TIP3    H225853   4.829   4.128  -0.055 -0.6112  1.8176 -0.0618
 1480TIP3   OH225854   4.265   3.675   5.064 -0.2558  0.4983  0.0725
 1480TIP3    H125855   4.231   3.742   5.124 -3.3238 -2.5790  2.1537
 1480TIP3    H225856   4.191   3.618   5.047  2.2911 -2.8672 -0.9043
 1481TIP3   OH225857   1.973   4.924  14.907  0.2728  0.3127 -0.4584
 1481TIP3    H125858   1.975   4.891  14.996 -0.6583  0.5430 -0.3411
 1481TIP3    H225859   1.897   4.882  14.867  1.5763 -1.0322 -1.6561
 1482TIP3   OH225860   3.212   0.180  15.076 -0.1901 -0.4760  0.2059
 1482TIP3    H125861   3.170   0.200  14.993 -0.4743  1.0403  0.6648
 1482TIP3    H225862   3.147   0.130  15.125 -1.0159  0.7621  0.4272
 1483TIP3   OH225863   3.508   4.959   2.344 -0.6245 -0.0566 -0.0746
 1483TIP3    H125864   3.498   5.043   2.300 -0.6867  0.3338  0.6575
 1483TIP3    H225865   3.523   4.983   2.436 -2.7366 -0.8750  0.5268
 1484TIP3   OH225866   4.958   6.687  10.776  0.5557 -0.4009  0.3937
 1484TIP3    H125867   4.931   6.687  10.868  2.2079  1.2438  0.9537
 1484TIP3    H225868   5.048   6.656  10.778  1.1838  1.2460 -0.4202
 1485TIP3   OH225869   0.328   6.311   2.592  0.4323  0.0479  0.1838
 1485TIP3    H125870   0.401   6.257   2.623 -0.7766 -1.6872  0.1436
 1485TIP3    H225871   0.310   6.280   2.503  0.5549  1.4580 -0.3633
 1486TIP3   OH225872   3.613   2.062  12.629 -0.3210 -0.4030  0.2462
 1486TIP3    H125873   3.646   2.113  12.555  1.6376 -0.8526  0.7528
 1486TIP3    H225874   3.663   1.980  12.626 -1.6124 -1.2565  0.9262
 1487TIP3   OH225875   6.055   3.850   4.260  0.3132  0.1089 -0.0940
 1487TIP3    H125876   5.997   3.778   4.236  0.8670 -0.6888  0.9102
 1487TIP3    H225877   6.010   3.895   4.332 -0.3828  1.2564 -1.1950
 1488TIP3   OH225878   3.201   2.563  12.434  0.4785  0.4924 -0.4342
 1488TIP3    H125879   3.231   2.527  12.518  1.5016  1.2948 -0.4237
 1488TIP3    H225880   3.116   2.522  12.419  1.5675 -1.8965 -0.4475
 1489TIP3   OH225881   3.759   0.673  12.739  0.6022  0.3168  0.7417
 1489TIP3    H125882   3.715   0.732  12.799  0.9923 -0.2685  1.6206
 1489TIP3    H225883   3.718   0.588  12.755 -0.7888  0.5245 -1.3456
 1490TIP3   OH225884   6.501   5.859   0.725  0.1040 -0.3175 -0.2528
 1490TIP3    H125885   6.563   5.792   0.755  0.1687  0.1439  0.7019
 1490TIP3    H225886   6.519   5.934   0.782 -2.0809 -0.5235  0.8149
 1491TIP3   OH225887   3.099   4.475   4.504 -0.3405  0.8848 -0.6577
 1491TIP3    H125888   3.174   4.522   4.467 -0.4585 -0.0560 -2.1660
 1491TIP3    H225889   3.047   4.544   4.546  0.8750  1.6868 -0.4182
 1492TIP3   OH225890   5.874   2.587   3.813  0.2091 -0.0718 -0.5561
 1492TIP3    H125891   5.842   2.677   3.810 -0.9407 -0.4522 -0.0496
 1492TIP3    H225892   5.864   2.554   3.724  0.5994  0.2862 -0.7337
 1493TIP3   OH225893   3.451   1.924   1.562  0.7858  0.3196  0.0834
 1493TIP3    H125894   3.481   1.833   1.562  0.9189  0.3210 -2.2089
 1493TIP3    H225895   3.411   1.935   1.649  1.1193 -1.7894  0.5707
 1494TIP3   OH225896   2.247   0.001   3.527 -0.1523 -0.6597 -0.3037
 1494TIP3    H125897   2.185  -0.071   3.532 -0.0770 -0.6856  0.3066
 1494TIP3    H225898   2.332  -0.041   3.514 -0.1456 -0.6656 -0.2388
 1495TIP3   OH225899   4.429   3.707   2.245  0.0470 -0.0731 -0.1260
 1495TIP3    H125900   4.416   3.800   2.228  1.5146  0.0518 -0.7653
 1495TIP3    H225901   4.403   3.695   2.336 -0.2478  0.9431 -0.0629
 1496TIP3   OH225902   3.886   3.455  14.226  0.1065 -0.1953 -0.2544
 1496TIP3    H125903   3.855   3.365  14.229  1.6982 -0.7399  0.9946
 1496TIP3    H225904   3.926   3.470  14.311 -0.8430  1.9822 -0.1233
 1497TIP3   OH225905   2.712   5.813  16.173 -0.1665  0.2030  0.2891
 1497TIP3    H125906   2.628   5.859  16.184 -0.5645  0.1057 -1.8703
 1497TIP3    H225907   2.690   5.720  16.185 -1.0209 -0.1119 -2.7956
 1498TIP3   OH225908   0.783   5.918   5.536  0.0580 -0.3444  0.6058
 1498TIP3    H125909   0.718   5.981   5.505  0.8606  0.2483  0.0815
 1498TIP3    H225910   0.771   5.915   5.630  1.1085  1.9090  0.8741
 1499TIP3   OH225911   6.352   6.289   4.752 -0.3860  0.0273  0.0886
 1499TIP3    H125912   6.426   6.317   4.699 -0.4213  1.7875  0.8805
 1499TIP3    H225913   6.381   6.209   4.794  0.1335 -0.6484 -1.4972
 1500TIP3   OH225914   2.077   1.703  15.988  0.0911 -0.2816 -0.0835
 1500TIP3    H125915   2.150   1.753  15.953 -0.7039  1.5501  0.7407
 1500TIP3    H225916   2.077   1.723  16.082 -1.6841  0.1094 -0.1249
 1501TIP3   OH225917   2.675   4.173   1.707  0.2203 -0.4768 -0.3254
 1501TIP3    H125918   2.735   4.239   1.673 -1.0482 -0.0870 -1.9680
 1501TIP3    H225919   2.674   4.188   1.802  0.4712  1.4365 -0.5775
 1502TIP3   OH225920   6.396   1.904   5.499  0.6562  0.4139 -0.2335
 1502TIP3    H125921   6.398   1.817   5.460  0.5299  0.2895  0.0350
 1502TIP3    H225922   6.392   1.964   5.425  0.6276  0.1871 -0.4151
 1503TIP3   OH225923   6.552   4.711   4.082 -0.6119 -0.1833 -0.7843
 1503TIP3    H125924   6.647   4.706   4.088 -0.5350  0.3439 -1.4308
 1503TIP3    H225925   6.534   4.719   3.988 -1.2159  0.9138 -0.5915
 1504TIP3   OH225926   1.788   5.985   0.668  0.4925  0.4173  0.0714
 1504TIP3    H125927   1.735   6.002   0.590 -0.8970  0.7534  1.0566
 1504TIP3    H225928   1.873   6.023   0.647 -0.3657  2.0541 -0.6390
 1505TIP3   OH225929   5.015   2.716  16.406 -0.1966  0.0436  0.2402
 1505TIP3    H125930   4.974   2.770  16.339  1.0897 -0.1221 -0.7407
 1505TIP3    H225931   5.057   2.779  16.465  1.6410  0.1794 -1.1236
 1506TIP3   OH225932   0.919   4.518   3.476 -0.4993  0.1068 -0.0649
 1506TIP3    H125933   0.946   4.468   3.553  0.5059  1.0602  0.2302
 1506TIP3    H225934   0.848   4.574   3.507 -0.4087  0.1518  0.0656
 1507TIP3   OH225935   4.273   0.617   3.962  0.5804  0.0149 -0.4150
 1507TIP3    H125936   4.178   0.611   3.948  0.7566 -1.0692 -1.3189
 1507TIP3    H225937   4.285   0.697   4.013 -0.7732  0.4645 -0.7616
 1508TIP3   OH225938   0.170   1.434   3.252  0.4374 -0.3081 -0.3390
 1508TIP3    H125939   0.242   1.463   3.309  1.6579 -0.1816 -1.8856
 1508TIP3    H225940   0.155   1.508   3.193 -0.1173 -0.8019 -0.8254
 1509TIP3   OH225941   1.092   4.643   3.282  0.2772  0.1419 -0.7423
 1509TIP3    H125942   1.049   4.597   3.354  1.9837 -0.4909 -0.0676
 1509TIP3    H225943   1.073   4.735   3.298 -1.9179 -0.1817 -1.2453
 1510TIP3   OH225944   4.641   0.666  11.695 -0.3008  0.5807  0.1838
 1510TIP3    H125945   4.600   0.584  11.723  0.2854  0.5144  0.8920
 1510TIP3    H225946   4.572   0.732  11.706  0.0660  0.6844  2.5518
 1511TIP3   OH225947   4.275   4.979  11.578 -0.2680  0.2388 -0.4304
 1511TIP3    H125948   4.189   5.003  11.613 -0.4435 -2.6997  1.5812
 1511TIP3    H225949   4.258   4.903  11.523  0.7458  1.5219 -2.6326
 1512TIP3   OH225950   4.275   2.717   0.927  0.1235  0.6196 -0.2211
 1512TIP3    H125951   4.211   2.773   0.972  0.8614  1.4421 -0.1789
 1512TIP3    H225952   4.228   2.687   0.849 -0.2130  1.4983 -0.3751
 1513TIP3   OH225953   0.563   6.344  14.344  0.3728 -0.1523 -0.5321
 1513TIP3    H125954   0.528   6.416  14.396  0.3214 -0.4982 -0.0805
 1513TIP3    H225955   0.640   6.380  14.301 -0.6971  0.7140 -1.7901
 1514TIP3   OH225956   6.099   3.744   1.461 -0.5207 -0.2460 -0.2202
 1514TIP3    H125957   6.074   3.710   1.375  0.7849 -1.5681 -0.1108
 1514TIP3    H225958   6.055   3.687   1.524  0.6640 -1.0090 -0.0403
 1515TIP3   OH225959   6.082   5.253  16.628 -0.5278 -0.8148  0.3430
 1515TIP3    H125960   6.077   5.249  16.533 -0.2143 -1.2478  0.3450
 1515TIP3    H225961   6.001   5.298  16.654  0.6967  2.0122 -0.2939
 1516TIP3   OH225962   4.832   4.670  15.263 -0.1160 -0.2130 -0.1388
 1516TIP3    H125963   4.888   4.598  15.289 -1.4244 -0.5465  1.9825
 1516TIP3    H225964   4.854   4.685  15.171  3.2882 -0.3803  0.5236
 1517TIP3   OH225965   4.029   6.272   4.444 -0.0761  0.0383  0.0752
 1517TIP3    H125966   4.121   6.251   4.426 -0.9172 -2.2889 -2.1448
 1517TIP3    H225967   4.033   6.341   4.511  3.2622  0.6255 -0.5376
 1518TIP3   OH225968   4.052   6.093  11.847 -0.6303 -0.4327  0.5358
 1518TIP3    H125969   4.068   6.188  11.847 -0.9152 -0.3827  0.9961
 1518TIP3    H225970   4.136   6.055  11.822 -0.3929 -0.0765  0.7813
 1519TIP3   OH225971   6.773   5.966  14.953 -0.6648 -0.4005 -0.4505
 1519TIP3    H125972   6.718   5.996  14.880  1.9345  2.5208 -1.4214
 1519TIP3    H225973   6.846   5.921  14.911 -1.6792 -3.4842  0.7795
 1520TIP3   OH225974   3.819   0.163  17.035 -0.0238 -0.3056  0.2935
 1520TIP3    H125975   3.888   0.225  17.060  0.5634 -0.9632  0.3433
 1520TIP3    H225976   3.851   0.123  16.954  1.2044 -2.8821  1.8885
 1521TIP3   OH225977   3.146   4.816  11.502 -0.7816  0.2672 -0.3240
 1521TIP3    H125978   3.148   4.853  11.414  3.1247 -1.3745 -1.1546
 1521TIP3    H225979   3.074   4.753  11.499 -2.1383  1.7783 -1.5530
 1522TIP3   OH225980   5.023   2.070   5.493  0.1757 -0.8524 -0.3294
 1522TIP3    H125981   4.943   2.122   5.479  0.1672 -0.9328 -0.5851
 1522TIP3    H225982   5.003   2.015   5.568  0.6067  0.3639  0.7223
 1523TIP3   OH225983   3.075   4.932   4.366  0.4978  0.0071 -0.8270
 1523TIP3    H125984   3.032   4.851   4.391  0.1430  0.4220 -0.0273
 1523TIP3    H225985   3.115   4.963   4.448  2.1341 -0.2533 -1.4930
 1524TIP3   OH225986   6.532   5.107   0.447  0.3256  0.2232 -0.3713
 1524TIP3    H125987   6.541   5.023   0.491 -1.1104  0.3875  0.2906
 1524TIP3    H225988   6.620   5.129   0.418  0.8463 -1.1407  0.1230
 1525TIP3   OH225989   3.860   2.321  16.426  0.5339 -0.0324  0.2160
 1525TIP3    H125990   3.883   2.238  16.383  1.7312 -0.3759  1.4453
 1525TIP3    H225991   3.927   2.382  16.396 -1.6810  1.2420 -2.6015
 1526TIP3   OH225992   4.130   4.676   3.384  0.1536 -0.1861 -0.0104
 1526TIP3    H125993   4.040   4.672   3.417  0.8567  0.3362  2.1230
 1526TIP3    H225994   4.135   4.603   3.321 -1.9690  0.3047 -0.8492
 1527TIP3   OH225995   1.114   1.720  13.857  0.0067 -0.2689  0.3439
 1527TIP3    H125996   1.059   1.755  13.787  0.6931 -1.6412 -0.9290
 1527TIP3    H225997   1.183   1.786  13.869 -0.8216  0.5693  0.6577
 1528TIP3   OH225998   1.336   5.620   0.780 -0.4663 -0.3659  0.5338
 1528TIP3    H125999   1.327   5.712   0.806  0.7892 -0.3821  1.1395
 1528TIP3    H226000   1.429   5.600   0.795 -0.6719 -1.6746  0.2208
 1529TIP3   OH226001   3.800   6.773   3.882  0.2633 -0.5242  0.4384
 1529TIP3    H126002   3.893   6.764   3.903  0.3740  0.0760  0.2258
 1529TIP3    H226003   3.756   6.769   3.967  0.3229 -2.4953  0.4185
 1530TIP3   OH226004   1.763   3.881  16.232 -0.2804 -0.4016  0.1502
 1530TIP3    H126005   1.847   3.910  16.196 -0.2439  0.9473  1.2295
 1530TIP3    H226006   1.701   3.951  16.209 -1.0273 -1.1645 -0.2419
 1531TIP3   OH226007   5.319   4.071   2.442 -0.1848  0.0949 -0.5366
 1531TIP3    H126008   5.404   4.050   2.479  0.8514  0.5521 -2.5196
 1531TIP3    H226009   5.282   3.987   2.416 -0.1851 -0.0767  0.0244
 1532TIP3   OH226010   5.660   0.964   5.811 -0.2877  0.1842 -0.0397
 1532TIP3    H126011   5.727   0.905   5.846 -0.8419 -0.5262 -0.1563
 1532TIP3    H226012   5.708   1.043   5.787  0.8123 -0.8989 -1.6163
 1533TIP3   OH226013   3.515   3.844   4.501  0.0496  0.0087 -0.0232
 1533TIP3    H126014   3.598   3.796   4.503  0.2105  0.2061 -1.2193
 1533TIP3    H226015   3.460   3.799   4.565  0.3622 -1.4846 -0.7634
 1534TIP3   OH226016   4.892   6.073   2.683 -0.7698  0.0199 -0.0338
 1534TIP3    H126017   4.949   6.116   2.746  2.0112  0.1376 -2.3738
 1534TIP3    H226018   4.814   6.128   2.679  0.7660  2.3677  0.2898
 1535TIP3   OH226019   3.276   3.684  12.171  0.4634 -0.0708 -0.9564
 1535TIP3    H126020   3.237   3.707  12.087 -0.0243  0.5646 -0.5678
 1535TIP3    H226021   3.280   3.589  12.170 -0.2061 -0.1026 -1.4084
 1536TIP3   OH226022   3.423   5.257   6.029  0.1693  0.4054  0.3446
 1536TIP3    H126023   3.473   5.179   6.053 -0.1719  0.2877  0.6838
 1536TIP3    H226024   3.334   5.225   6.014  0.3429  0.4988 -0.9673
 1537TIP3   OH226025   3.535   3.396  16.604  0.5573 -0.0565  0.0202
 1537TIP3    H126026   3.485   3.407  16.685  1.8939  0.2931  0.8340
 1537TIP3    H226027   3.515   3.307  16.575  0.5380 -0.4126  1.0808
 1538TIP3   OH226028   5.170   3.366   2.257 -0.3320 -0.0528 -0.2815
 1538TIP3    H126029   5.118   3.439   2.292  0.7885  0.0557  1.2388
 1538TIP3    H226030   5.157   3.371   2.162 -0.2153  2.1658 -0.2233
 1539TIP3   OH226031   2.129   3.655   3.332 -0.1787 -0.7886 -0.3093
 1539TIP3    H126032   2.220   3.684   3.327  0.0857 -1.6828 -0.9575
 1539TIP3    H226033   2.096   3.662   3.243 -1.2524  1.0141  0.1744
 1540TIP3   OH226034   6.147   4.589  16.985 -0.0332  0.0504 -0.2032
 1540TIP3    H126035   6.120   4.521  17.046  1.2130 -1.2420 -1.0342
 1540TIP3    H226036   6.106   4.669  17.018 -0.4511 -0.8489  1.5516
 1541TIP3   OH226037   6.423   5.871   2.562  0.1233 -0.2820 -0.0015
 1541TIP3    H126038   6.381   5.796   2.520 -1.0933  0.8347 -0.8490
 1541TIP3    H226039   6.422   5.939   2.495  2.2376  0.1700  0.3585
 1542TIP3   OH226040   1.478   1.390  12.732  0.5100 -0.3575 -0.8117
 1542TIP3    H126041   1.429   1.323  12.780  1.8322 -0.8291 -0.0558
 1542TIP3    H226042   1.569   1.359  12.734  1.3829  2.0553  0.6510
 1543TIP3   OH226043   1.777   2.101   1.365  0.2226  0.6942 -0.7785
 1543TIP3    H126044   1.772   2.033   1.433  1.9831  1.0205 -0.2593
 1543TIP3    H226045   1.718   2.169   1.396  2.4301  1.7113  1.5696
 1544TIP3   OH226046   6.360   6.446   5.662 -0.3859  0.2914 -0.8350
 1544TIP3    H126047   6.324   6.534   5.648 -0.6547  0.1056 -1.3401
 1544TIP3    H226048   6.366   6.408   5.574  0.4135  0.0685 -0.6890
 1545TIP3   OH226049   6.179   6.628  16.664 -0.8186 -0.2538 -1.0428
 1545TIP3    H126050   6.087   6.653  16.678 -0.3247  1.9613 -1.3409
 1545TIP3    H226051   6.188   6.622  16.569 -0.3783  0.8952 -1.0955
 1546TIP3   OH226052   3.357   4.872  11.079 -0.3757  0.1768 -0.7927
 1546TIP3    H126053   3.362   4.938  11.147 -2.1209  0.4359 -0.8714
 1546TIP3    H226054   3.376   4.919  10.998 -1.4189  0.5584 -0.8263
 1547TIP3   OH226055   2.959   1.108  16.015 -0.4711 -0.1473 -0.1349
 1547TIP3    H126056   2.869   1.092  16.045 -0.8365  2.0446  0.1098
 1547TIP3    H226057   2.948   1.136  15.924  0.0015 -0.1089 -0.1790
 1548TIP3   OH226058   3.292   2.641   1.088  0.3042  0.0531 -1.1084
 1548TIP3    H126059   3.220   2.607   1.140  1.5941 -0.1405  0.6618
 1548TIP3    H226060   3.253   2.712   1.036 -1.1584 -0.1146 -0.2878
 1549TIP3   OH226061   0.475   0.474  12.536  0.2727 -0.3142 -0.6212
 1549TIP3    H126062   0.466   0.569  12.538  0.0864 -0.3385  1.0100
 1549TIP3    H226063   0.518   0.456  12.452  0.8621  1.2517 -0.6973
 1550TIP3   OH226064   6.399   6.451  14.455 -0.1620  0.1349 -0.4980
 1550TIP3    H126065   6.374   6.412  14.372  1.5939 -0.7093 -0.6762
 1550TIP3    H226066   6.420   6.376  14.511  0.7604  0.7339 -0.0105
 1551TIP3   OH226067   4.925   5.456  16.803 -0.3173 -0.0406  0.2379
 1551TIP3    H126068   4.988   5.392  16.838 -1.4530 -0.2990  1.9111
 1551TIP3    H226069   4.886   5.496  16.880 -2.2525  0.0740 -0.7455
 1552TIP3   OH226070   5.012   5.746   2.910  0.2060 -0.3199 -0.3917
 1552TIP3    H126071   4.935   5.710   2.865 -1.1104  0.8027  0.8628
 1552TIP3    H226072   4.981   5.827   2.950  2.2178  0.4861 -0.3268
 1553TIP3   OH226073   0.115   6.095   4.285 -0.1351  0.3469  0.5504
 1553TIP3    H126074   0.103   6.000   4.283  1.2750  0.1720 -0.5974
 1553TIP3    H226075   0.077   6.121   4.369  0.6421 -1.4051  1.5078
 1554TIP3   OH226076   3.315   1.675   2.313  0.0546  0.1886  0.6760
 1554TIP3    H126077   3.270   1.591   2.306 -1.1435  0.7618  1.2567
 1554TIP3    H226078   3.252   1.733   2.356 -1.2173  2.7823 -3.8837
 1555TIP3   OH226079   3.062   4.485   3.328 -0.1200  0.0513  0.3415
 1555TIP3    H126080   3.114   4.562   3.305 -3.1778  2.5376  0.9813
 1555TIP3    H226081   3.061   4.484   3.424  1.4972 -2.1055  0.4178
 1556TIP3   OH226082   4.900   6.454  15.901 -0.4798  0.7745 -0.0088
 1556TIP3    H126083   4.984   6.409  15.918  0.5351  3.0846  1.5179
 1556TIP3    H226084   4.836   6.383  15.899  1.3474 -0.9834 -0.1669
 1557TIP3   OH226085   1.090   4.659   5.828  0.0616 -0.3357  0.6555
 1557TIP3    H126086   1.185   4.668   5.827 -0.1205  3.4122  0.1522
 1557TIP3    H226087   1.069   4.626   5.915  1.7703 -0.4557  1.0501
 1558TIP3   OH226088   6.107   6.794  15.877  0.5727 -0.1258 -0.0641
 1558TIP3    H126089   6.183   6.820  15.929  1.7702 -0.6552 -1.4909
 1558TIP3    H226090   6.142   6.780  15.789 -1.3227  0.3677 -0.9438
 1559TIP3   OH226091   0.544   4.898  11.789  0.1164 -0.3690  0.2454
 1559TIP3    H126092   0.612   4.964  11.804 -0.9179  1.2399 -1.6197
 1559TIP3    H226093   0.465   4.950  11.772 -0.8670 -2.1164 -0.7345
 1560TIP3   OH226094   3.073   2.300  15.427  0.3122 -0.3755 -0.0680
 1560TIP3    H126095   3.144   2.239  15.446 -0.7438 -2.0408 -1.2690
 1560TIP3    H226096   3.117   2.378  15.394  1.6572 -0.7120  0.8493
 1561TIP3   OH226097   3.244   3.648   0.637 -0.1915  0.5891 -0.7332
 1561TIP3    H126098   3.165   3.658   0.584  1.2905  1.4603 -2.8995
 1561TIP3    H226099   3.277   3.561   0.615 -0.3650  0.3445 -0.0561
 1562TIP3   OH226100   2.066   6.397  14.464  0.0878 -0.3474  0.4027
 1562TIP3    H126101   2.065   6.481  14.418 -1.3251  0.0634  1.1293
 1562TIP3    H226102   2.158   6.371  14.464  0.3452  0.4289 -1.1931
 1563TIP3   OH226103   4.367   5.217   0.188  0.3495  0.7326  0.0294
 1563TIP3    H126104   4.378   5.308   0.215  0.7069  1.0592 -1.1890
 1563TIP3    H226105   4.303   5.220   0.117 -2.2752 -0.3517  2.1402
 1564TIP3   OH226106   6.187   2.663  14.731 -0.5428 -0.1035 -0.6305
 1564TIP3    H126107   6.261   2.620  14.687  0.6207  0.1626  0.9785
 1564TIP3    H226108   6.176   2.615  14.813 -0.6210  1.3083  0.2176
 1565TIP3   OH226109   6.102   0.266   0.689  0.2146 -0.7379 -0.1101
 1565TIP3    H126110   6.098   0.311   0.605 -1.6711  2.1119  1.3135
 1565TIP3    H226111   6.150   0.326   0.746 -2.3043 -0.4065  1.8590
 1566TIP3   OH226112   4.055   6.265  16.649 -0.0923 -0.4180  0.2135
 1566TIP3    H126113   4.010   6.204  16.591  0.0170 -0.2066 -0.0983
 1566TIP3    H226114   4.123   6.305  16.594 -0.0170 -0.1852  0.4733
 1567TIP3   OH226115   6.662   3.063   4.721  0.3209  0.0444 -0.4624
 1567TIP3    H126116   6.682   3.144   4.768  0.9615  0.1924 -0.9645
 1567TIP3    H226117   6.669   3.087   4.629 -0.4872 -0.3469 -0.6341
 1568TIP3   OH226118   3.096   5.456   1.619  0.3112  0.5599  0.4972
 1568TIP3    H126119   3.119   5.421   1.533  1.3684 -0.2758  1.0842
 1568TIP3    H226120   3.132   5.544   1.619  2.3459 -0.2079  0.8467
 1569TIP3   OH226121   0.816   0.727  11.850  0.0615  0.2279  0.0003
 1569TIP3    H126122   0.777   0.738  11.936  0.9842 -0.9002  0.5862
 1569TIP3    H226123   0.904   0.762  11.858 -0.0707  0.7670 -0.7040
 1570TIP3   OH226124   5.539   0.909   5.088  0.6953  0.1020  0.0059
 1570TIP3    H126125   5.621   0.947   5.120  1.5132 -1.2657 -0.3824
 1570TIP3    H226126   5.485   0.985   5.065  0.7987  1.1316  2.6869
 1571TIP3   OH226127   2.620   3.112   0.273 -0.5279 -0.2773 -0.0646
 1571TIP3    H126128   2.529   3.099   0.300  0.1964 -0.3270  2.5654
 1571TIP3    H226129   2.620   3.088   0.180 -2.8689 -1.7746  0.2275
 1572TIP3   OH226130   1.622   1.764  15.544  0.0296  0.0670  0.7432
 1572TIP3    H126131   1.556   1.714  15.594  0.6192 -1.2044  0.2938
 1572TIP3    H226132   1.571   1.814  15.481 -0.5240 -0.9288  0.3803
 1573TIP3   OH226133   3.562   1.432   5.593 -0.0103 -0.3098  0.1432
 1573TIP3    H126134   3.615   1.436   5.513  0.3427 -0.0226  0.3915
 1573TIP3    H226135   3.614   1.380   5.654 -0.7916 -1.5302 -0.1907
 1574TIP3   OH226136   4.295   3.757  13.394  0.3597 -0.2234  0.0686
 1574TIP3    H126137   4.380   3.726  13.426  0.1716 -0.4959  0.3088
 1574TIP3    H226138   4.267   3.690  13.331 -0.3568 -0.9025  1.0801
 1575TIP3   OH226139   3.538   1.193  13.330 -0.6232  0.2464  0.1751
 1575TIP3    H126140   3.610   1.256  13.323  1.2835 -1.7051  1.1354
 1575TIP3    H226141   3.548   1.137  13.253 -2.0060  0.7675 -0.4157
 1576TIP3   OH226142   6.460   6.074   2.367  0.1366 -0.5723 -0.2095
 1576TIP3    H126143   6.407   6.154   2.365 -2.9519 -2.4545 -0.0546
 1576TIP3    H226144   6.530   6.095   2.429  0.4595  2.5015 -1.3960
 1577TIP3   OH226145   5.285   0.646  12.183  0.2218  0.0982  0.3642
 1577TIP3    H126146   5.332   0.602  12.254  2.5464  2.1055  0.1601
 1577TIP3    H226147   5.285   0.738  12.208  0.3475  0.7319 -1.8275
 1578TIP3   OH226148   3.618   1.173  16.592  0.1606 -0.1407 -0.1542
 1578TIP3    H126149   3.696   1.204  16.546  0.5649  1.0749  1.2735
 1578TIP3    H226150   3.547   1.226  16.556  0.4477  0.6811  0.4600
 1579TIP3   OH226151   1.841   4.195  15.714 -0.0363  0.1315 -0.6059
 1579TIP3    H126152   1.796   4.148  15.644 -0.5181 -0.0474 -0.1761
 1579TIP3    H226153   1.776   4.258  15.747 -0.3273 -0.8105  0.6906
 1580TIP3   OH226154   2.197   5.500  12.508  0.4298  0.0289 -0.0052
 1580TIP3    H126155   2.227   5.427  12.563 -0.9806  0.2462  1.1093
 1580TIP3    H226156   2.140   5.459  12.443  3.9418 -0.6022 -3.0553
 1581TIP3   OH226157   0.228   2.609   1.372  0.6375  0.3001  0.4576
 1581TIP3    H126158   0.189   2.522   1.363 -0.0549  0.5053  1.2837
 1581TIP3    H226159   0.300   2.596   1.434  1.3848  0.0810 -0.4287
 1582TIP3   OH226160   1.723   4.614  13.035 -0.1688  0.5588 -0.5075
 1582TIP3    H126161   1.769   4.687  12.995 -1.0362  0.9127 -0.8723
 1582TIP3    H226162   1.642   4.606  12.986 -0.6039  0.0808  0.2653
 1583TIP3   OH226163   1.053   5.510  14.748  0.0689 -0.3086  0.2534
 1583TIP3    H126164   1.149   5.511  14.752  0.1866 -1.5433 -1.1183
 1583TIP3    H226165   1.034   5.530  14.656 -1.0217  0.4442  0.6349
 1584TIP3   OH226166   5.335   5.356  12.009 -0.0991 -0.2244 -0.1306
 1584TIP3    H126167   5.329   5.447  12.036  0.1907 -0.3815  0.4846
 1584TIP3    H226168   5.421   5.327  12.041 -0.0600 -0.6250 -0.5876
 1585TIP3   OH226169   2.294   3.684  12.101 -0.1339 -0.0971  0.6346
 1585TIP3    H126170   2.300   3.758  12.162 -0.7781  1.0739 -0.6670
 1585TIP3    H226171   2.268   3.610  12.156  0.8593  0.5415  2.0324
 1586TIP3   OH226172   2.169   3.677  13.261 -0.4302  0.2991 -0.1693
 1586TIP3    H126173   2.085   3.703  13.225 -0.6623  0.6933  0.6276
 1586TIP3    H226174   2.195   3.600  13.211 -2.4220 -1.3246  1.1336
 1587TIP3   OH226175   6.020   4.858   1.106 -0.4130 -0.3527 -0.3910
 1587TIP3    H126176   5.926   4.842   1.102 -0.5534  0.5868 -0.9527
 1587TIP3    H226177   6.051   4.848   1.016  0.0583 -0.7720 -0.1949
 1588TIP3   OH226178   5.693   3.106  11.273 -0.5520 -0.2880 -0.3308
 1588TIP3    H126179   5.653   3.019  11.275  0.0755 -0.5761  0.0308
 1588TIP3    H226180   5.722   3.116  11.182  0.6320 -1.0500 -0.0528
 1589TIP3   OH226181   1.962   1.624   1.556 -0.8410  0.0429 -0.5353
 1589TIP3    H126182   1.980   1.539   1.597 -1.6261 -0.3840 -1.0438
 1589TIP3    H226183   1.866   1.631   1.558 -0.7677  1.0811 -0.1842
 1590TIP3   OH226184   0.394   6.189  13.686  0.0491 -0.1322  0.4332
 1590TIP3    H126185   0.454   6.117  13.707 -0.3911 -0.6102  0.0927
 1590TIP3    H226186   0.451   6.264  13.669  0.8200 -1.3311 -3.1238
 1591TIP3   OH226187   5.706   2.396  12.454 -0.1526  0.0681  0.0026
 1591TIP3    H126188   5.799   2.371  12.457 -0.4506 -1.5135 -2.0012
 1591TIP3    H226189   5.671   2.366  12.538  1.1648  0.9085  0.8927
 1592TIP3   OH226190   3.235   1.259   6.453  0.1323  0.6656  0.0562
 1592TIP3    H126191   3.196   1.346   6.441  1.0891  1.1952  0.6472
 1592TIP3    H226192   3.160   1.201   6.467 -0.4743  1.6434  1.0653
 1593TIP3   OH226193   0.752   2.593  11.242 -0.0635  0.5357 -0.2435
 1593TIP3    H126194   0.716   2.537  11.311 -0.2730 -0.5903 -1.2346
 1593TIP3    H226195   0.757   2.680  11.282 -1.6881  0.2442  0.6853
 1594TIP3   OH226196   1.498   5.630  13.740 -0.2536 -0.3591 -0.0307
 1594TIP3    H126197   1.508   5.718  13.778  2.1028 -0.7235  0.3697
 1594TIP3    H226198   1.445   5.583  13.803 -0.1007  0.3021  0.6107
 1595TIP3   OH226199   0.579   5.165   0.083  0.4887  0.0822 -0.2435
 1595TIP3    H126200   0.567   5.161  -0.012  1.7160  2.3517 -0.5480
 1595TIP3    H226201   0.643   5.096   0.101 -0.5906 -1.1251 -0.8687
 1596TIP3   OH226202   4.145   2.625   3.291  0.1844  0.9380  0.2772
 1596TIP3    H126203   4.068   2.639   3.237 -0.2767  0.2941  0.7593
 1596TIP3    H226204   4.125   2.547   3.343  1.9333 -0.4619 -1.0279
 1597TIP3   OH226205   0.876   0.581  16.157  0.3526 -0.2076  0.3955
 1597TIP3    H126206   0.888   0.635  16.235 -0.7189  0.1151  0.3590
 1597TIP3    H226207   0.933   0.506  16.170 -0.1227 -0.3718  1.7021
 1598TIP3   OH226208   5.812   4.353   4.348 -0.1283 -0.1087 -0.2526
 1598TIP3    H126209   5.850   4.314   4.427 -0.4702  0.9062  0.4216
 1598TIP3    H226210   5.887   4.391   4.301  0.3024 -1.9931 -1.2095
 1599TIP3   OH226211   1.076   0.868   2.828  0.4135 -0.4488  0.4764
 1599TIP3    H126212   1.048   0.795   2.772  1.8452 -2.9490  2.7372
 1599TIP3    H226213   1.171   0.862   2.828  0.5543  1.3149  0.9604
 1600TIP3   OH226214   2.237   2.708   1.552  0.2575 -0.1824  0.0065
 1600TIP3    H126215   2.213   2.647   1.483 -1.1249  1.1169 -0.7156
 1600TIP3    H226216   2.243   2.654   1.631 -0.3130 -1.3320 -0.7141
 1601TIP3   OH226217   1.019   5.714  15.857 -0.2168  0.0715  0.2207
 1601TIP3    H126218   1.023   5.795  15.807  2.4949 -0.3647 -0.3957
 1601TIP3    H226219   1.053   5.738  15.944  0.3170 -0.3432  0.1267
 1602TIP3   OH226220   1.840   6.182   2.812 -0.2778 -0.8518  0.1814
 1602TIP3    H126221   1.897   6.105   2.806  0.8169  0.0250 -1.9571
 1602TIP3    H226222   1.884   6.241   2.873  0.2872 -0.8414 -0.2335
 1603TIP3   OH226223   6.626   0.791  14.513 -0.2347 -0.2594 -0.0905
 1603TIP3    H126224   6.689   0.720  14.519  0.0287 -0.1126 -0.9211
 1603TIP3    H226225   6.640   0.844  14.591  0.3445 -0.4897 -0.0389
 1604TIP3   OH226226   4.357   6.753  16.916  0.0274  0.0046 -0.3874
 1604TIP3    H126227   4.358   6.658  16.910  1.6138 -0.0392  0.1966
 1604TIP3    H226228   4.383   6.771  17.006 -1.6149  0.9947 -0.0571
 1605TIP3   OH226229   1.954   5.202   4.380  0.2212  0.1445  0.4060
 1605TIP3    H126230   2.032   5.204   4.324 -1.0523 -1.0485 -1.5872
 1605TIP3    H226231   1.920   5.291   4.378  1.1017  0.4922  0.6538
 1606TIP3   OH226232   2.679   2.918   4.917  0.2606 -0.0199 -0.1139
 1606TIP3    H126233   2.618   2.885   4.851  0.1942 -0.2685  0.0666
 1606TIP3    H226234   2.632   2.988   4.961  0.5493  0.5996 -0.7678
 1607TIP3   OH226235   2.886   3.059  13.729 -0.3286 -0.0440 -0.2397
 1607TIP3    H126236   2.912   3.121  13.796 -1.7919 -0.0895  0.4133
 1607TIP3    H226237   2.902   3.104  13.646 -1.5071  1.3062  0.2216
 1608TIP3   OH226238   3.012   2.863   0.035  0.0708  0.4259  0.2183
 1608TIP3    H126239   2.966   2.866   0.119  0.3035 -0.2610  0.3792
 1608TIP3    H226240   2.954   2.908  -0.026 -1.1237 -0.9915  0.2640
 1609TIP3   OH226241   6.329   4.357  15.852 -0.2042  0.4288  0.0843
 1609TIP3    H126242   6.360   4.398  15.933  0.6256  1.4177 -0.6950
 1609TIP3    H226243   6.307   4.431  15.795 -2.3343 -0.2482 -0.0465
 1610TIP3   OH226244   6.688   2.503   4.433 -0.7720 -0.5859 -0.0849
 1610TIP3    H126245   6.699   2.409   4.415 -0.4119 -0.3635 -1.0683
 1610TIP3    H226246   6.675   2.507   4.528  0.0596 -1.5609  0.0993
 1611TIP3   OH226247   5.044   3.628   5.634  0.1500 -0.4280 -0.1838
 1611TIP3    H126248   5.133   3.610   5.665 -0.5569 -0.8014  1.7267
 1611TIP3    H226249   5.053   3.708   5.582  1.3208  0.6647  1.5957
 1612TIP3   OH226250   4.106   2.092  12.857 -0.4640  0.0864 -0.7525
 1612TIP3    H126251   4.073   2.179  12.879 -2.1540 -0.5107 -0.7885
 1612TIP3    H226252   4.084   2.039  12.934  0.6962 -0.2856 -0.6644
 1613TIP3   OH226253   4.362   1.999   4.282 -0.3226 -0.2981  0.2681
 1613TIP3    H126254   4.412   2.030   4.206 -1.3968 -0.2222 -0.4257
 1613TIP3    H226255   4.273   1.988   4.249 -1.0336  0.6786  1.7626
 1614TIP3   OH226256   1.057   4.223  16.247 -0.0896  0.0658 -0.0545
 1614TIP3    H126257   1.047   4.269  16.331 -1.5882 -0.4889  0.1036
 1614TIP3    H226258   0.982   4.163  16.244  2.0047 -2.7189 -0.0699
 1615TIP3   OH226259   5.406   0.345   4.049 -0.0290  0.3515 -0.3174
 1615TIP3    H126260   5.455   0.311   4.124 -0.5342  0.4407  0.0526
 1615TIP3    H226261   5.356   0.418   4.084 -0.5594  0.1550 -0.6607
 1616TIP3   OH226262   0.222   6.182   1.730  0.0355  0.5680 -0.6154
 1616TIP3    H126263   0.313   6.208   1.740 -0.4270  2.0051  0.2752
 1616TIP3    H226264   0.179   6.261   1.695 -1.2239  0.6489  0.9936
 1617TIP3   OH226265   1.596   5.717  16.861 -0.5229 -0.2250  0.2905
 1617TIP3    H126266   1.570   5.749  16.947  1.7047  0.2038  0.8618
 1617TIP3    H226267   1.542   5.639  16.847 -3.1409  1.3887  0.6649
 1618TIP3   OH226268   6.361   2.963  14.580  0.2264  0.1865  0.1597
 1618TIP3    H126269   6.426   2.929  14.642 -1.7765 -0.4375  2.0261
 1618TIP3    H226270   6.332   3.045  14.620  0.5349  0.9782 -1.1761
 1619TIP3   OH226271   0.591   6.299   4.627 -0.2904  0.3574  0.4687
 1619TIP3    H126272   0.565   6.287   4.535  0.4558  0.7280  0.1968
 1619TIP3    H226273   0.510   6.322   4.672 -0.3530  2.3384 -0.5163
 1620TIP3   OH226274   2.033   2.875  17.028  0.2460 -0.1992 -0.7199
 1620TIP3    H126275   2.125   2.857  17.008  1.1512  3.3895 -0.3716
 1620TIP3    H226276   1.999   2.918  16.950 -1.2898 -1.6636 -0.9253
 1621TIP3   OH226277   3.953   4.504  15.922 -0.1001  0.0232 -0.3193
 1621TIP3    H126278   3.950   4.593  15.888  0.0053  1.2874  2.6415
 1621TIP3    H226279   3.868   4.492  15.965  0.8062 -0.2769  1.4939
 1622TIP3   OH226280   3.475   4.494   2.820  0.0317 -0.6254 -0.2167
 1622TIP3    H126281   3.422   4.508   2.741 -0.7237 -0.7705  0.2532
 1622TIP3    H226282   3.496   4.401   2.818  0.4491 -0.5253 -0.5133
 1623TIP3   OH226283   4.344   0.138  11.799 -0.2722  0.1914 -0.1952
 1623TIP3    H126284   4.313   0.200  11.865 -2.1271  0.6180 -1.4072
 1623TIP3    H226285   4.265   0.090  11.773  0.7104 -1.0389 -1.0049
 1624TIP3   OH226286   6.613   2.446  15.119  0.0014  0.3201 -0.1441
 1624TIP3    H126287   6.575   2.408  15.198 -0.1115  0.6652 -0.0328
 1624TIP3    H226288   6.541   2.490  15.076  0.8387  3.9762  1.7964
 1625TIP3   OH226289   5.236   1.639  11.417  0.0711 -0.0678 -0.4154
 1625TIP3    H126290   5.181   1.652  11.495 -0.0610 -2.3941 -0.0538
 1625TIP3    H226291   5.179   1.658  11.343 -0.4468  0.0537  0.0131
 1626TIP3   OH226292   2.840   4.772   0.862  0.1197 -0.2285 -0.3670
 1626TIP3    H126293   2.780   4.805   0.929 -0.1674 -1.1540 -0.1478
 1626TIP3    H226294   2.818   4.679   0.855  1.7571 -0.6699 -0.0396
 1627TIP3   OH226295   2.004   5.196   5.573  0.2519  0.8257 -0.4719
 1627TIP3    H126296   1.930   5.185   5.633 -0.7880  1.0131 -1.6750
 1627TIP3    H226297   2.038   5.283   5.591  0.2821  0.6730  0.2058
 1628TIP3   OH226298   0.857   5.013  10.981  0.2193 -0.6770 -0.6466
 1628TIP3    H126299   0.764   5.017  10.960  0.2632 -1.4225 -1.0151
 1628TIP3    H226300   0.894   4.954  10.915  0.9261 -0.5045 -0.4137
 1629TIP3   OH226301   4.688   3.640   5.281 -0.1544  0.5042 -0.3792
 1629TIP3    H126302   4.739   3.588   5.219 -0.2059  0.0249 -0.0244
 1629TIP3    H226303   4.722   3.616   5.367  1.0602  2.3844 -0.2815
 1630TIP3   OH226304   0.818   5.113  12.792 -0.0824  0.2863 -0.4180
 1630TIP3    H126305   0.852   5.153  12.872  0.6618  0.0179 -0.5978
 1630TIP3    H226306   0.831   5.019  12.805 -1.8571  0.0619  0.0161
 1631TIP3   OH226307   6.682   4.229  14.375 -0.7249  0.5557 -0.0268
 1631TIP3    H126308   6.638   4.155  14.332  0.0673  0.0255  0.0631
 1631TIP3    H226309   6.622   4.255  14.445 -0.5472 -0.6805  0.6141
 1632TIP3   OH226310   5.013   2.097  17.099  0.4236  0.0751 -0.1148
 1632TIP3    H126311   5.015   2.186  17.066 -0.5267 -0.9033 -3.1415
 1632TIP3    H226312   4.961   2.048  17.035 -0.6639 -2.3146  2.3693
 1633TIP3   OH226313   3.684   4.705  15.075  0.1602  0.7518 -0.0825
 1633TIP3    H126314   3.760   4.657  15.110  0.1835  0.2894 -0.7482
 1633TIP3    H226315   3.608   4.656  15.107  0.1549  0.9075  0.1446
 1634TIP3   OH226316   0.807   1.628  15.291 -0.5220  0.0788 -0.3766
 1634TIP3    H126317   0.816   1.694  15.222 -0.7552  0.1516 -0.3402
 1634TIP3    H226318   0.804   1.679  15.372 -0.6211  0.0182 -0.3422
 1635TIP3   OH226319   0.382   5.651   6.210  0.0644  0.3975 -0.4108
 1635TIP3    H126320   0.314   5.615   6.266 -1.1904 -2.6845 -3.5242
 1635TIP3    H226321   0.460   5.599   6.230  0.6993  1.7956  0.9349
 1636TIP3   OH226322   6.009   3.846  11.753  0.1123 -0.7192  0.0315
 1636TIP3    H126323   5.974   3.910  11.690  0.4693  1.5377  1.9978
 1636TIP3    H226324   5.936   3.786  11.769 -1.5673  1.4599  0.9466
 1637TIP3   OH226325   5.100   1.007  13.245 -0.1080 -0.1494  0.1696
 1637TIP3    H126326   5.139   1.067  13.181 -0.7541  1.1176  0.9282
 1637TIP3    H226327   5.114   0.920  13.208  1.0692  0.4431 -0.8520
 1638TIP3   OH226328   4.377   1.902   2.655  0.4430 -0.4728 -0.2511
 1638TIP3    H126329   4.404   1.987   2.621  2.3121 -1.0384 -0.2752
 1638TIP3    H226330   4.401   1.840   2.586 -2.1626 -0.9562 -0.8683
 1639TIP3   OH226331   3.504   0.423  14.902 -0.2884 -0.6852 -0.3177
 1639TIP3    H126332   3.410   0.437  14.886 -0.1294 -1.1075 -1.7758
 1639TIP3    H226333   3.532   0.501  14.950 -1.1000  0.1364 -1.1328
 1640TIP3   OH226334   4.017   4.660   0.801 -0.2274  0.0945 -0.1006
 1640TIP3    H126335   4.079   4.625   0.865 -0.8269  2.0552  1.6492
 1640TIP3    H226336   3.931   4.630   0.833 -0.4042 -0.6976 -1.2376
 1641TIP3   OH226337   0.132   2.501   0.958  1.1559 -0.5667 -0.3646
 1641TIP3    H126338   0.163   2.411   0.945  1.8571 -0.2212 -1.1068
 1641TIP3    H226339   0.071   2.516   0.886  0.0723 -0.8637  0.4665
 1642TIP3   OH226340   1.044   1.485  13.603 -0.3651  0.2862  0.3807
 1642TIP3    H126341   1.028   1.400  13.644 -0.4774  0.3827  0.5334
 1642TIP3    H226342   0.957   1.520  13.585 -0.3286 -0.2102 -0.8801
 1643TIP3   OH226343   1.538   2.041  10.325  0.8788  0.1813 -0.1160
 1643TIP3    H126344   1.587   2.003  10.252  2.0763  0.4000  0.5313
 1643TIP3    H226345   1.494   2.117  10.287  2.1014  0.7446 -0.4838
 1644TIP3   OH226346   4.350   2.078  16.960  0.1254  0.3191  0.0461
 1644TIP3    H126347   4.443   2.091  16.977  0.4920  0.0353 -1.5831
 1644TIP3    H226348   4.343   1.986  16.934 -0.0773  1.0128 -2.7125
 1645TIP3   OH226349   6.473   0.874   5.929  0.3317 -0.2868 -0.4510
 1645TIP3    H126350   6.436   0.838   5.849 -1.5440  0.7167 -0.0966
 1645TIP3    H226351   6.404   0.864   5.994  0.9924  0.8741  0.4797
 1646TIP3   OH226352   5.583   4.022   1.474  1.2309  0.1279 -0.1006
 1646TIP3    H126353   5.594   3.975   1.392  0.3260  1.5653 -1.0960
 1646TIP3    H226354   5.601   3.957   1.542  3.9012 -0.6476 -1.3930
 1647TIP3   OH226355   3.246   0.660  14.353  0.3513  0.0719  0.1276
 1647TIP3    H126356   3.166   0.688  14.309 -0.3332 -2.1040 -0.1179
 1647TIP3    H226357   3.292   0.607  14.288  1.6271  0.6271  0.5421
 1648TIP3   OH226358   1.070   2.939  13.816  1.0600 -0.2003 -0.9271
 1648TIP3    H126359   0.999   2.923  13.754 -0.5410 -0.2103  0.8373
 1648TIP3    H226360   1.069   3.034  13.830  0.4286 -0.3502  0.1570
 1649TIP3   OH226361   2.166   6.128   3.935 -0.1577 -0.2042  0.0163
 1649TIP3    H126362   2.171   6.039   3.969 -1.8233 -0.6406 -0.7867
 1649TIP3    H226363   2.079   6.159   3.960  0.7332  1.5810  1.1028
 1650TIP3   OH226364   5.400   6.574  15.445  0.5286 -0.5860  0.1065
 1650TIP3    H126365   5.374   6.640  15.381  3.0155 -0.1292 -0.5543
 1650TIP3    H226366   5.386   6.616  15.530 -0.0530 -0.0748 -0.2365
 1651TIP3   OH226367   5.481   1.770   5.226  0.8602  0.4734 -0.5381
 1651TIP3    H126368   5.448   1.707   5.161 -1.1909  2.3183 -1.4072
 1651TIP3    H226369   5.518   1.715   5.295 -0.8389 -1.7191 -1.2463
 1652TIP3   OH226370   3.089   5.229   5.086 -0.4665 -0.2672  0.0541
 1652TIP3    H126371   3.172   5.230   5.133 -1.6837 -1.3427  2.3944
 1652TIP3    H226372   3.114   5.230   4.993  2.0855  0.5965  0.6692
 1653TIP3   OH226373   0.995   2.690   4.921  0.2267  0.5080  0.0447
 1653TIP3    H126374   1.035   2.695   5.008  0.8068 -1.6404 -0.0414
 1653TIP3    H226375   0.996   2.780   4.889  1.0104  1.1709  1.8155
 1654TIP3   OH226376   0.166   0.391  14.589 -0.1715 -0.4477 -0.1715
 1654TIP3    H126377   0.073   0.394  14.564 -0.3343 -0.4151  0.4302
 1654TIP3    H226378   0.212   0.426  14.513 -0.5935 -1.1375 -0.7630
 1655TIP3   OH226379   5.947   3.854   3.296  0.0009 -0.4980  0.7242
 1655TIP3    H126380   6.038   3.858   3.325  0.6127 -2.5790 -0.7834
 1655TIP3    H226381   5.949   3.806   3.214 -2.0316  2.6468 -1.4168
 1656TIP3   OH226382   4.982   3.844  11.991 -0.5458  0.6331  0.4964
 1656TIP3    H126383   5.013   3.915  12.047 -1.5412  0.4907  1.2545
 1656TIP3    H226384   5.022   3.765  12.027 -0.1039  0.7031  0.1647
 1657TIP3   OH226385   0.308   3.738   5.713 -0.6461  0.6380  0.5125
 1657TIP3    H126386   0.267   3.652   5.719 -2.6775  1.3487 -1.6338
 1657TIP3    H226387   0.347   3.739   5.625  1.3657  1.1297  1.3619
 1658TIP3   OH226388   6.122   3.135  16.833 -0.0826 -0.5694  0.5450
 1658TIP3    H126389   6.181   3.152  16.907 -0.2442  1.8192  0.1910
 1658TIP3    H226390   6.177   3.146  16.755 -0.7072  0.4748  0.2429
 1659TIP3   OH226391   4.158   3.944  12.001 -0.1608 -0.0855  0.2394
 1659TIP3    H126392   4.113   3.863  11.977 -1.3242  0.2272  1.2217
 1659TIP3    H226393   4.097   3.988  12.061  1.4577  0.3812  1.6389
 1660TIP3   OH226394   5.289   6.097  12.294 -0.2802 -0.4891  0.1045
 1660TIP3    H126395   5.311   6.006  12.316  0.1089 -0.2263  0.8597
 1660TIP3    H226396   5.201   6.092  12.257  0.3173 -1.3586 -1.3105
 1661TIP3   OH226397   4.862   1.403   2.430  0.5823  0.2177 -0.7120
 1661TIP3    H126398   4.914   1.336   2.474 -0.5426 -0.9576 -1.1314
 1661TIP3    H226399   4.872   1.481   2.486  2.2167 -0.1536 -0.4326
 1662TIP3   OH226400   2.544   6.007   0.640 -0.9420 -0.6613  0.2647
 1662TIP3    H126401   2.496   6.081   0.678 -0.1619  1.0228 -1.8110
 1662TIP3    H226402   2.482   5.967   0.579 -1.0198 -1.1217  0.6329
 1663TIP3   OH226403   4.701   3.765  11.377  0.3407  0.3720 -0.1424
 1663TIP3    H126404   4.631   3.717  11.421  1.5780 -1.5273 -0.0997
 1663TIP3    H226405   4.664   3.790  11.292 -0.2806 -0.9779 -0.2978
 1664TIP3   OH226406   0.660   3.502   3.650 -0.3883  0.5127  0.3202
 1664TIP3    H126407   0.659   3.439   3.723  2.4728 -0.9866 -0.7426
 1664TIP3    H226408   0.574   3.544   3.653 -1.0028 -0.6544  3.5034
 1665TIP3   OH226409   1.040   4.722   0.446 -0.1826  0.2408 -0.0749
 1665TIP3    H126410   0.962   4.767   0.479  1.0723  1.2453  1.6811
 1665TIP3    H226411   1.060   4.657   0.514  0.5159  0.0271 -0.4802
 1666TIP3   OH226412   6.792   3.297  14.937  0.1873 -0.1444 -0.9129
 1666TIP3    H126413   6.829   3.216  14.973 -0.3631  0.0020  0.0172
 1666TIP3    H226414   6.851   3.321  14.865  1.0709 -0.6973 -0.3865
 1667TIP3   OH226415   3.735   4.950  16.003  0.2229  0.2687 -0.4950
 1667TIP3    H126416   3.830   4.950  15.990  0.3800 -1.5252  0.3084
 1667TIP3    H226417   3.720   4.882  16.069 -1.6824  0.1586 -0.9826
 1668TIP3   OH226418   0.403   3.308   3.630 -0.4770  0.4243  0.4602
 1668TIP3    H126419   0.314   3.333   3.607 -0.4584  0.1564  0.0862
 1668TIP3    H226420   0.450   3.307   3.546 -0.7506 -2.0194  0.2926
 1669TIP3   OH226421   5.018   1.491  17.052 -0.2737  0.2581 -0.6845
 1669TIP3    H126422   4.998   1.402  17.020 -1.1513  0.3671 -0.4636
 1669TIP3    H226423   4.938   1.518  17.096  0.1715  0.9737 -0.3192
 1670TIP3   OH226424   6.115   6.397  14.203  0.3379 -0.0774 -0.0369
 1670TIP3    H126425   6.068   6.471  14.165 -1.0410 -0.1764  1.4085
 1670TIP3    H226426   6.050   6.350  14.255  2.0603 -0.0266  2.3603
 1671TIP3   OH226427   0.925   2.751  16.302  0.3079 -0.1159 -1.4576
 1671TIP3    H126428   0.991   2.815  16.329 -1.1066  0.6057  0.5547
 1671TIP3    H226429   0.917   2.693  16.378 -0.9860 -0.5009 -1.8800
 1672TIP3   OH226430   5.412   1.809  12.176  0.2702 -0.0278  0.7060
 1672TIP3    H126431   5.341   1.750  12.201 -0.8600 -0.0306 -2.1015
 1672TIP3    H226432   5.488   1.753  12.161 -0.3511 -0.6123 -0.3642
 1673TIP3   OH226433   2.439   0.787  15.726 -0.1809 -0.0991 -0.0880
 1673TIP3    H126434   2.350   0.797  15.757 -0.9451 -0.0792 -2.1367
 1673TIP3    H226435   2.475   0.715  15.779 -0.9970  0.6365  1.5276
 1674TIP3   OH226436   1.954   2.054   2.380 -0.1987 -0.2782 -0.0950
 1674TIP3    H126437   1.940   2.072   2.287 -0.5139  0.7385  0.1263
 1674TIP3    H226438   2.046   2.029   2.387 -0.3819 -1.1751 -0.7880
 1675TIP3   OH226439   1.697   1.168   1.516 -0.1212  0.0345 -0.8544
 1675TIP3    H126440   1.657   1.116   1.586 -2.0629  2.2661 -0.1640
 1675TIP3    H226441   1.780   1.198   1.553 -0.1340 -0.5694 -0.3252
 1676TIP3   OH226442   0.889   0.165   2.103 -0.4061 -0.0549  0.1169
 1676TIP3    H126443   0.895   0.255   2.135 -1.4691 -0.3169  1.1078
 1676TIP3    H226444   0.827   0.122   2.162  1.7136 -2.0433  1.0892
 1677TIP3   OH226445   3.298   0.821   2.941  0.2214 -0.1125  0.2026
 1677TIP3    H126446   3.317   0.802   3.033  0.3247 -0.5908  0.0855
 1677TIP3    H226447   3.366   0.774   2.892 -1.5602 -2.4017 -0.2632
 1678TIP3   OH226448   0.027   1.212   1.794 -0.3476  0.8512  0.2257
 1678TIP3    H126449   0.047   1.125   1.759  2.5410  1.2801  0.5839
 1678TIP3    H226450   0.023   1.269   1.717 -0.6519  0.6797  0.1136
 1679TIP3   OH226451   3.243   3.905   5.525  0.2091 -0.1931 -0.2979
 1679TIP3    H126452   3.195   3.889   5.444 -2.7555  1.7799  0.8960
 1679TIP3    H226453   3.185   3.872   5.594  1.8611 -0.2437  1.1385
 1680TIP3   OH226454   0.497   2.016   1.738 -0.0877  0.3746 -0.2775
 1680TIP3    H126455   0.482   2.106   1.707 -2.2084  0.3457  0.4977
 1680TIP3    H226456   0.499   1.963   1.658 -1.4267  0.8127 -0.6308
 1681TIP3   OH226457   0.212   1.581   2.160  0.0064  0.3399 -0.3560
 1681TIP3    H126458   0.199   1.505   2.103 -0.9615 -0.4618  0.8645
 1681TIP3    H226459   0.245   1.649   2.102 -1.4110 -0.2811 -1.9895
 1682TIP3   OH226460   5.543   2.869  11.201 -0.2082 -1.2401 -0.1381
 1682TIP3    H126461   5.524   2.794  11.144  0.0014 -1.6964  0.3746
 1682TIP3    H226462   5.506   2.844  11.285 -0.6152 -0.5246 -0.0988
 1683TIP3   OH226463   4.132   2.605  13.102 -0.5874 -0.4620  0.2472
 1683TIP3    H126464   4.090   2.687  13.075 -0.7646 -0.3442  0.8687
 1683TIP3    H226465   4.114   2.599  13.195  2.8574  0.8463  1.1270
 1684TIP3   OH226466   6.785   0.202   5.375 -0.2516  0.5661 -0.2791
 1684TIP3    H126467   6.810   0.113   5.351  3.1241  1.6725 -1.4252
 1684TIP3    H226468   6.742   0.237   5.297  0.1290  0.5126 -0.5148
 1685TIP3   OH226469   3.003   1.256   5.162 -0.7883  0.4675  0.4922
 1685TIP3    H126470   2.956   1.210   5.092 -0.3415 -0.9259  1.0800
 1685TIP3    H226471   2.964   1.223   5.242  2.4960 -2.4506  1.1503
 1686TIP3   OH226472   1.563   5.574  15.747 -0.0250  0.2928  0.1574
 1686TIP3    H126473   1.571   5.552  15.654  0.6295  1.1165  0.0114
 1686TIP3    H226474   1.646   5.546  15.786 -0.0425  0.5425  0.3771
 1687TIP3   OH226475   5.100   1.831  11.742  0.3219  0.0188 -0.6861
 1687TIP3    H126476   5.106   1.894  11.671  0.3009  2.0313  0.9835
 1687TIP3    H226477   5.006   1.819  11.755  0.3150  0.0659 -0.6876
 1688TIP3   OH226478   2.755   4.168   2.225 -0.3335 -0.5112  0.4061
 1688TIP3    H126479   2.845   4.143   2.203 -0.3064 -1.5030  1.5378
 1688TIP3    H226480   2.763   4.257   2.259  0.3616 -0.9215  1.3423
 1689TIP3   OH226481   2.487   1.944   2.226 -0.5797  0.0933  0.0810
 1689TIP3    H126482   2.506   1.962   2.319 -1.0821  0.4708  0.1164
 1689TIP3    H226483   2.457   1.854   2.225  1.4101 -0.6261 -0.0118
 1690TIP3   OH226484   5.398   0.290  13.014 -0.1490  0.0071 -0.2769
 1690TIP3    H126485   5.439   0.367  13.054  2.1257 -1.7016  0.9430
 1690TIP3    H226486   5.391   0.311  12.921 -0.2615  1.9228  0.1227
 1691TIP3   OH226487   2.360   6.643  12.487 -0.1056 -0.4831  0.2119
 1691TIP3    H126488   2.331   6.734  12.482 -0.0293 -0.5214 -1.5655
 1691TIP3    H226489   2.281   6.593  12.505 -0.8636 -0.3596 -2.3270
 1692TIP3   OH226490   3.399   3.817   0.383 -0.4616 -0.8553 -0.0728
 1692TIP3    H126491   3.388   3.840   0.291 -0.0617  0.8029  0.2704
 1692TIP3    H226492   3.315   3.780   0.409 -1.3868  0.8754 -0.4989
 1693TIP3   OH226493   1.866   3.081   0.569 -0.3154 -0.0411 -0.3993
 1693TIP3    H126494   1.799   3.015   0.552  0.6901 -0.9889 -0.7336
 1693TIP3    H226495   1.908   3.095   0.484 -0.1767  0.6460 -0.2227
 1694TIP3   OH226496   0.011   1.073   4.901  0.4503  0.8052 -0.7712
 1694TIP3    H126497   0.094   1.030   4.881  0.4758  0.3768  0.1880
 1694TIP3    H226498   0.003   1.066   4.996 -1.8043 -1.2608 -1.0249
 1695TIP3   OH226499   2.871   2.620  13.676  0.3252  0.1481  0.0944
 1695TIP3    H126500   2.810   2.664  13.734 -1.2444 -2.6052  0.7118
 1695TIP3    H226501   2.905   2.547  13.728  0.9561 -0.7960 -1.5723
 1696TIP3   OH226502   3.024   1.474  15.752  0.6265 -0.4704  0.0082
 1696TIP3    H126503   2.957   1.433  15.697  0.2733 -0.4322  0.4079
 1696TIP3    H226504   3.106   1.459  15.704  0.4741 -1.4161  0.0170
 1697TIP3   OH226505   2.817   6.092  12.807  0.3162  0.6499  0.2414
 1697TIP3    H126506   2.855   6.171  12.846  0.7489  1.7411 -2.2040
 1697TIP3    H226507   2.750   6.124  12.748 -1.2006 -1.0097  0.9588
 1698TIP3   OH226508   6.281   3.276  13.800  0.2593 -0.6850 -0.3914
 1698TIP3    H126509   6.189   3.296  13.780 -0.3321  0.4680  2.8823
 1698TIP3    H226510   6.277   3.198  13.855  1.1935 -0.3285  0.1903
 1699TIP3   OH226511   5.592   5.109   2.358  0.2570  0.2453  0.2668
 1699TIP3    H126512   5.597   5.164   2.437  1.3185  1.5293 -0.6489
 1699TIP3    H226513   5.609   5.021   2.390 -2.6803  0.1650  1.9814
 1700TIP3   OH226514   4.569   6.373   3.157  0.7619 -0.0846  0.2909
 1700TIP3    H126515   4.611   6.304   3.208  0.7405 -0.7745 -0.5866
 1700TIP3    H226516   4.477   6.371   3.183  0.8538 -0.0585  0.6192
 1701TIP3   OH226517   6.383   5.689   4.257  0.4483  0.8268 -0.6150
 1701TIP3    H126518   6.443   5.639   4.201  2.2088 -0.7830  2.4395
 1701TIP3    H226519   6.439   5.749   4.305 -0.7641  1.0848  0.5344
 1702TIP3   OH226520   5.603   6.587  13.169  0.2927 -0.0154  0.1815
 1702TIP3    H126521   5.575   6.598  13.260  0.4850  0.5690  0.1710
 1702TIP3    H226522   5.691   6.625  13.166  0.8483 -1.2589  0.0684
 1703TIP3   OH226523   0.966   2.701   3.838 -0.5174  0.4456  0.4128
 1703TIP3    H126524   0.961   2.693   3.743 -0.9272 -0.0600  0.4720
 1703TIP3    H226525   1.026   2.774   3.853  0.3115 -0.0934 -0.2228
 1704TIP3   OH226526   6.115   0.522   1.090 -0.0067  0.0802 -0.1167
 1704TIP3    H126527   6.056   0.470   1.036  1.2196 -1.7093  0.1748
 1704TIP3    H226528   6.200   0.517   1.045  0.7829 -0.5564  1.3642
 1705TIP3   OH226529   0.074   6.177  11.865  0.4230 -0.0779 -0.1877
 1705TIP3    H126530   0.156   6.133  11.891  0.2282  0.0598  0.6943
 1705TIP3    H226531   0.016   6.105  11.838 -0.1320 -0.4812  1.9041
 1706TIP3   OH226532   0.282   4.105  14.567  0.0911 -0.8201  0.1273
 1706TIP3    H126533   0.280   4.035  14.633  1.7800 -1.9111 -0.9044
 1706TIP3    H226534   0.346   4.075  14.503  0.3295  1.3811 -0.7299
 1707TIP3   OH226535   3.754   4.896   3.465 -0.3202  0.2504  0.0820
 1707TIP3    H126536   3.728   4.908   3.374  0.1414  0.7488  0.0106
 1707TIP3    H226537   3.779   4.804   3.471  1.0504  0.5404 -0.6721
 1708TIP3   OH226538   2.152   5.066  14.073 -0.7275 -0.1715 -0.5363
 1708TIP3    H126539   2.107   5.004  14.130  0.3207  1.6963  2.5402
 1708TIP3    H226540   2.102   5.147  14.081 -0.1321  0.3468 -1.7696
 1709TIP3   OH226541   6.058   0.879   5.446 -0.2493  0.0301 -0.5847
 1709TIP3    H126542   6.095   0.792   5.463  3.1775  1.4153  0.0078
 1709TIP3    H226543   6.102   0.908   5.365 -3.4880  0.2083 -2.4350
 1710TIP3   OH226544   0.203   0.119  16.188 -0.0890 -0.5005 -0.0038
 1710TIP3    H126545   0.216   0.060  16.114 -4.1029 -1.8088  0.1279
 1710TIP3    H226546   0.225   0.206  16.152  1.8488 -1.5099 -1.4675
 1711TIP3   OH226547   2.338   6.425   5.018  0.0581 -0.4872 -0.5010
 1711TIP3    H126548   2.337   6.440   4.923  0.6597 -1.3966 -0.6660
 1711TIP3    H226549   2.272   6.357   5.032  1.4532 -1.9367 -0.5925
 1712TIP3   OH226550   0.030   5.821   4.368  0.2178 -0.4038 -0.4909
 1712TIP3    H126551   0.063   5.758   4.304 -0.3722 -1.2649  0.0229
 1712TIP3    H226552   0.055   5.783   4.453 -1.2143 -0.5793 -0.1321
 1713TIP3   OH226553   3.197   4.715   3.275  0.1007  0.3498  0.0804
 1713TIP3    H126554   3.266   4.770   3.310  0.6257  0.5018 -1.1469
 1713TIP3    H226555   3.159   4.766   3.203 -0.4512 -0.2410 -0.0579
 1714TIP3   OH226556   1.842   1.535   5.399  0.1941  0.0659  0.1938
 1714TIP3    H126557   1.768   1.519   5.339  0.4360 -0.7319  0.0913
 1714TIP3    H226558   1.894   1.454   5.394 -0.3846 -0.4998  2.3541
 1715TIP3   OH226559   0.193   5.707  10.608  0.1871 -0.2961  0.1747
 1715TIP3    H126560   0.263   5.643  10.594 -0.7862 -1.4005  0.1840
 1715TIP3    H226561   0.228   5.767  10.674  1.2193 -0.6578 -0.0310
 1716TIP3   OH226562   2.539   2.440  15.154  0.2378 -0.4169  0.1577
 1716TIP3    H126563   2.613   2.392  15.193  0.6625 -0.1651 -0.3279
 1716TIP3    H226564   2.573   2.473  15.071 -0.5884 -0.7652 -0.3360
 1717TIP3   OH226565   6.319   1.733   0.172  0.5972  0.0005  0.0470
 1717TIP3    H126566   6.394   1.711   0.116  1.4605  0.5751  0.9469
 1717TIP3    H226567   6.302   1.652   0.221 -0.2353 -0.5419 -1.0828
 1718TIP3   OH226568   2.496   5.884  12.660 -0.0286 -0.0303  0.2714
 1718TIP3    H126569   2.564   5.911  12.598 -0.3074  0.6771  0.2624
 1718TIP3    H226570   2.425   5.850  12.605  0.6592 -1.6111  0.3176
 1719TIP3   OH226571   6.028   3.511   1.626 -0.0888 -0.0822  0.6591
 1719TIP3    H126572   6.096   3.467   1.575  0.2536 -1.4441  2.2337
 1719TIP3    H226573   5.946   3.474   1.593  0.0223  0.2690 -0.0279
 1720TIP3   OH226574   5.203   4.604   1.137 -0.0660 -0.1725  0.6002
 1720TIP3    H126575   5.125   4.627   1.187 -0.8353  0.9855 -1.0097
 1720TIP3    H226576   5.199   4.662   1.060  0.1086 -2.9588 -1.6756
 1721TIP3   OH226577   3.558   2.909  13.235  0.3618 -0.2455 -0.8032
 1721TIP3    H126578   3.577   2.857  13.157  2.9612 -1.4427  0.4979
 1721TIP3    H226579   3.610   2.989  13.225 -0.6820  0.4262 -1.0609
 1722TIP3   OH226580   4.948   2.171  16.815 -0.1010 -0.7185  0.8389
 1722TIP3    H126581   4.911   2.083  16.819 -0.4608 -0.7189 -1.2356
 1722TIP3    H226582   5.007   2.169  16.740 -1.3032  1.2039 -0.2508
 1723TIP3   OH226583   5.927   6.164   6.213 -0.1582 -0.4061  0.6147
 1723TIP3    H126584   5.954   6.074   6.228  0.1390 -0.2084  1.2850
 1723TIP3    H226585   5.861   6.181   6.280 -2.4316 -1.0608 -1.3153
 1724TIP3   OH226586   2.575   3.003  11.837 -0.6491  0.6596 -0.1922
 1724TIP3    H126587   2.605   2.958  11.758  0.2237  1.8099 -0.5473
 1724TIP3    H226588   2.480   2.993  11.835 -0.4576 -1.9862  0.2909
 1725TIP3   OH226589   3.696   1.233   0.401  0.5233  0.1747 -0.1247
 1725TIP3    H126590   3.630   1.178   0.360  1.3084 -0.7881 -0.1290
 1725TIP3    H226591   3.732   1.180   0.472 -0.5533  1.6635  1.6419
 1726TIP3   OH226592   3.443   5.947  12.384  0.3447 -0.7905 -0.3912
 1726TIP3    H126593   3.507   5.895  12.336  0.9737  0.4151 -0.9298
 1726TIP3    H226594   3.376   5.968  12.319  1.6370  1.5817 -1.0733
 1727TIP3   OH226595   4.909   1.549  12.403 -0.1042 -0.1898 -0.2594
 1727TIP3    H126596   4.961   1.630  12.396  0.6624 -0.6842 -0.4518
 1727TIP3    H226597   4.835   1.563  12.344  0.6869 -0.1058 -1.2642
 1728TIP3   OH226598   0.587   2.441  15.368 -0.5176  0.0550  0.5736
 1728TIP3    H126599   0.586   2.536  15.360 -1.4370  0.0270  0.3146
 1728TIP3    H226600   0.670   2.422  15.413  0.7701  0.8087 -1.3649
 1729TIP3   OH226601   2.225   4.247   2.565 -0.3058  0.4069  0.0036
 1729TIP3    H126602   2.262   4.200   2.640  1.6903 -0.0397 -1.1903
 1729TIP3    H226603   2.274   4.214   2.490 -1.3292  1.8160 -1.3350
 1730TIP3   OH226604   3.157   5.477   2.747  0.0866  0.3131  0.2059
 1730TIP3    H126605   3.091   5.536   2.711  0.4867  0.9731  0.5247
 1730TIP3    H226606   3.236   5.531   2.754  0.1905  0.0242  1.4501
 1731TIP3   OH226607   1.512   6.327   3.795 -0.7113  0.0696  0.1478
 1731TIP3    H126608   1.543   6.378   3.869 -2.7088  1.0630  0.3732
 1731TIP3    H226609   1.489   6.242   3.833 -2.1542  0.7216  0.8164
 1732TIP3   OH226610   1.225   0.567   2.796  0.1647 -0.1267  0.0322
 1732TIP3    H126611   1.218   0.592   2.704 -0.1974  2.4988  0.6891
 1732TIP3    H226612   1.319   0.559   2.812  0.2436 -0.2308 -0.4695
 1733TIP3   OH226613   6.093   5.518   0.063 -0.0388 -0.0008 -0.1477
 1733TIP3    H126614   6.162   5.551   0.005 -1.2162  2.0065 -0.4983
 1733TIP3    H226615   6.121   5.545   0.151 -0.9657  2.0904 -0.4227
 1734TIP3   OH226616   3.609   0.120  16.782 -0.1326  0.0563  0.6510
 1734TIP3    H126617   3.695   0.120  16.740 -0.4413  0.2955 -0.0072
 1734TIP3    H226618   3.548   0.101  16.710 -0.5804 -0.7031  1.2105
 1735TIP3   OH226619   5.441   3.929  10.575  0.1626  0.0020 -0.4890
 1735TIP3    H126620   5.440   3.853  10.518 -1.3248  0.0562 -0.5569
 1735TIP3    H226621   5.414   4.002  10.519  1.0200  0.4920 -0.2864
 1736TIP3   OH226622   4.206   4.198  11.245 -0.1080 -0.5275  0.4805
 1736TIP3    H126623   4.167   4.280  11.214  1.2796 -0.1220 -0.2993
 1736TIP3    H226624   4.194   4.200  11.340 -0.0693  0.6140  0.4794
 1737TIP3   OH226625   2.736   4.551   3.811 -0.1956 -0.2916  0.2482
 1737TIP3    H126626   2.752   4.493   3.885 -1.6499 -0.7889  0.2008
 1737TIP3    H226627   2.700   4.631   3.849  0.3170 -0.0267  0.1829
 1738TIP3   OH226628   6.676   6.541   5.099  0.1240 -0.0874 -0.6010
 1738TIP3    H126629   6.580   6.548   5.100 -0.1622 -1.2759 -4.4625
 1738TIP3    H226630   6.694   6.448   5.112  0.6056 -0.1885 -1.8881
 1739TIP3   OH226631   4.648   2.485  11.256  0.0793  0.1733  0.5278
 1739TIP3    H126632   4.683   2.415  11.201  1.4945 -0.2320  1.8871
 1739TIP3    H226633   4.574   2.446  11.301  0.2833 -0.1522  0.5784
 1740TIP3   OH226634   3.951   3.143   4.437 -0.0680 -0.2354  0.2550
 1740TIP3    H126635   3.937   3.237   4.433 -1.0378 -0.4221 -2.0213
 1740TIP3    H226636   3.876   3.109   4.486  1.0499  0.2256  2.4587
 1741TIP3   OH226637   4.892   3.713  15.804 -0.3486 -0.0757  0.3275
 1741TIP3    H126638   4.932   3.720  15.717 -0.1541  0.5386  0.4672
 1741TIP3    H226639   4.857   3.623  15.806  1.3114 -0.7463  0.3340
 1742TIP3   OH226640   4.638   5.188  15.973  0.1840  0.2781 -0.0215
 1742TIP3    H126641   4.716   5.243  15.971 -0.7605  1.7962  1.6634
 1742TIP3    H226642   4.588   5.220  16.049 -2.2486 -0.3696 -1.2352
 1743TIP3   OH226643   5.208   5.508  13.744 -0.4155  0.0533  0.9345
 1743TIP3    H126644   5.299   5.505  13.715  0.2873 -0.5225  3.0618
 1743TIP3    H226645   5.183   5.416  13.754 -1.0105  0.2206  1.0546
 1744TIP3   OH226646   4.385   2.931  12.785  0.2019  0.4759 -0.3903
 1744TIP3    H126647   4.451   2.936  12.716  0.2021 -0.0405 -0.4276
 1744TIP3    H226648   4.306   2.968  12.745 -0.2196 -1.2191 -1.1784
 1745TIP3   OH226649   1.457   5.656   2.283 -0.4609  0.4877  0.2688
 1745TIP3    H126650   1.450   5.706   2.201  0.7166  1.0019  0.4548
 1745TIP3    H226651   1.479   5.722   2.349  4.5336 -0.4848 -0.0123
 1746TIP3   OH226652   2.673   3.573  14.416  0.0440  0.4531  0.0066
 1746TIP3    H126653   2.640   3.607  14.333 -1.2914  0.8674  0.6716
 1746TIP3    H226654   2.690   3.480  14.399 -0.8460  0.3792 -0.5672
 1747TIP3   OH226655   1.310   0.435  16.126  0.3860  0.3545  0.6465
 1747TIP3    H126656   1.279   0.424  16.037 -0.6749  2.5406  0.6719
 1747TIP3    H226657   1.347   0.523  16.128 -0.6892  0.8402  2.6114
 1748TIP3   OH226658   1.071   5.090   4.129  0.2354  0.0200 -0.4549
 1748TIP3    H126659   1.083   5.035   4.206 -1.2791 -0.6991 -0.6970
 1748TIP3    H226660   1.125   5.049   4.062  1.2848  0.4508  0.0909
 1749TIP3   OH226661   1.767   2.570  12.824  0.3360  0.7104  0.3861
 1749TIP3    H126662   1.847   2.600  12.781  0.6425  0.7808  0.9933
 1749TIP3    H226663   1.797   2.531  12.906 -0.2455  0.6949  0.5986
 1750TIP3   OH226664   1.622   3.597   4.671  0.4123  0.1329 -0.0704
 1750TIP3    H126665   1.706   3.552   4.680  0.2117 -0.0765  0.8618
 1750TIP3    H226666   1.633   3.654   4.595  0.5770 -1.7148 -1.5058
 1751TIP3   OH226667   5.588   2.470   3.811  0.4364 -0.1247 -0.1880
 1751TIP3    H126668   5.512   2.527   3.804  0.1617 -0.4501  0.1339
 1751TIP3    H226669   5.651   2.505   3.747 -0.6994 -0.9895 -1.8712
 1752TIP3   OH226670   1.847   3.500  12.791  1.2595 -0.0635  0.4295
 1752TIP3    H126671   1.837   3.469  12.882 -1.3454  1.4605  0.7666
 1752TIP3    H226672   1.923   3.558  12.794  2.4333 -1.5641  1.1395
 1753TIP3   OH226673   4.024   5.354  14.461  0.2105  0.1966 -0.2273
 1753TIP3    H126674   3.972   5.300  14.402  0.7421  0.4577 -0.9509
 1753TIP3    H226675   4.100   5.381  14.408  0.9638  0.0015  0.7282
 1754TIP3   OH226676   4.018   1.680  12.746  0.0161  0.7325 -0.5178
 1754TIP3    H126677   4.103   1.714  12.720  2.1428 -2.7837  1.1165
 1754TIP3    H226678   3.978   1.650  12.664  1.8406 -0.4608 -1.0353
 1755TIP3   OH226679   6.538   3.351   0.516 -0.2337  0.6207 -0.1142
 1755TIP3    H126680   6.573   3.325   0.431  1.0058  1.1534  0.2077
 1755TIP3    H226681   6.451   3.385   0.497 -1.5628 -2.7723 -0.6719
 1756TIP3   OH226682   0.234   0.592  11.973  0.3088  0.0408 -0.3442
 1756TIP3    H126683   0.157   0.572  12.027 -0.1040  0.1348 -0.8832
 1756TIP3    H226684   0.262   0.678  12.004  0.1910  0.0126 -0.1536
 1757TIP3   OH226685   1.262   4.915   5.342 -0.4851 -0.0494 -0.2033
 1757TIP3    H126686   1.344   4.937   5.387  0.3286 -1.6818 -0.8019
 1757TIP3    H226687   1.200   4.900   5.413  1.1087 -3.8968  0.6492
 1758TIP3   OH226688   2.211   5.820   4.480  0.9006  0.6378 -0.3136
 1758TIP3    H126689   2.283   5.847   4.424  1.8235  0.5324  0.7899
 1758TIP3    H226690   2.252   5.798   4.564 -0.3421  0.0263  0.1647
 1759TIP3   OH226691   1.060   0.801  12.611 -0.3171 -0.0730  0.3674
 1759TIP3    H126692   1.084   0.892  12.594 -0.4598 -0.4430 -2.1131
 1759TIP3    H226693   0.966   0.803  12.626 -1.3016 -0.2141 -4.3840
 1760TIP3   OH226694   2.145   5.039  16.106  0.5425 -0.4550 -0.0163
 1760TIP3    H126695   2.238   5.064  16.106  1.2775 -2.9075 -0.1948
 1760TIP3    H226696   2.115   5.058  16.195  1.9284 -1.8844  0.8098
 1761TIP3   OH226697   1.095   0.373  14.930 -0.3422  0.1796  0.1473
 1761TIP3    H126698   1.080   0.320  14.852  0.0417 -1.1853  0.9628
 1761TIP3    H226699   1.118   0.309  14.998 -0.1177  1.3804  1.2345
 1762TIP3   OH226700   2.834   1.014   5.993  0.0635  0.4984  0.3579
 1762TIP3    H126701   2.770   1.084   6.001 -0.7988 -0.2294  0.0235
 1762TIP3    H226702   2.789   0.937   6.029  0.1909 -0.3470 -1.2219
 1763TIP3   OH226703   0.650   1.380   4.437  0.1262  0.6057  0.0158
 1763TIP3    H126704   0.661   1.297   4.390  1.6446  0.7038  0.1466
 1763TIP3    H226705   0.678   1.360   4.527  2.1318  1.6212 -0.3203
 1764TIP3   OH226706   3.500   3.698  11.266  0.2862  0.4686  0.2910
 1764TIP3    H126707   3.424   3.719  11.213 -0.2956  2.6513  1.8398
 1764TIP3    H226708   3.488   3.607  11.292 -2.9322  1.2677  2.1203
 1765TIP3   OH226709   1.117   5.553  13.257  0.1929  0.2221 -0.1524
 1765TIP3    H126710   1.091   5.616  13.325  2.5884  1.8231 -0.5893
 1765TIP3    H226711   1.085   5.469  13.289 -1.7669  1.3934  1.2353
 1766TIP3   OH226712   2.011   3.287  12.213  0.2682  0.0324 -0.5758
 1766TIP3    H126713   1.996   3.317  12.123  0.6453 -0.6287 -0.8729
 1766TIP3    H226714   1.926   3.254  12.242 -0.1126  1.2166 -0.2973
 1767TIP3   OH226715   3.236   0.553  15.810 -0.5150  0.2421  0.1525
 1767TIP3    H126716   3.216   0.604  15.731 -1.3337 -1.9201 -1.1213
 1767TIP3    H226717   3.299   0.487  15.781 -1.6662 -1.3005  1.0008
 1768TIP3   OH226718   0.571   0.189  10.784 -0.9868 -0.0407  0.0675
 1768TIP3    H126719   0.631   0.210  10.712  0.1577 -2.5284  0.1877
 1768TIP3    H226720   0.508   0.128  10.745 -1.9599  0.5957  0.5874
 1769TIP3   OH226721   2.613   0.502  13.456 -0.2321 -0.5066 -0.3546
 1769TIP3    H126722   2.577   0.413  13.457 -0.1159 -0.5542  0.1223
 1769TIP3    H226723   2.705   0.491  13.432 -0.0399 -0.5913  0.4017
 1770TIP3   OH226724   4.528   5.662  16.108 -0.1255  0.0340 -1.3153
 1770TIP3    H126725   4.438   5.632  16.099  0.3179 -1.1801 -1.8596
 1770TIP3    H226726   4.579   5.582  16.119  0.4959  0.7738  3.0473
 1771TIP3   OH226727   2.517   1.032  10.945 -0.2704 -0.6238 -0.4258
 1771TIP3    H126728   2.582   1.042  10.876 -0.5903 -0.8884 -0.7748
 1771TIP3    H226729   2.488   1.121  10.964  0.5041 -0.4654  0.0450
 1772TIP3   OH226730   5.598   6.223   4.147  0.0329 -0.0821  0.0684
 1772TIP3    H126731   5.516   6.175   4.159  0.1771 -0.0782  1.2770
 1772TIP3    H226732   5.650   6.167   4.089 -1.0051  0.1668 -1.1332
 1773TIP3   OH226733   2.671   4.536  11.334  0.6799  0.9172  0.3285
 1773TIP3    H126734   2.644   4.447  11.315 -0.4633  1.5799 -1.3974
 1773TIP3    H226735   2.612   4.591  11.283  2.6914  2.6074 -0.3556
 1774TIP3   OH226736   2.412   0.519  11.418 -0.4094 -0.4793  0.1033
 1774TIP3    H126737   2.319   0.514  11.439 -0.2752 -0.8140  0.6393
 1774TIP3    H226738   2.417   0.584  11.348 -0.7471  1.8883  2.1035
 1775TIP3   OH226739   3.268   4.601  12.106 -0.5127 -0.3302 -0.1227
 1775TIP3    H126740   3.205   4.565  12.045 -1.8214  0.2330  0.8442
 1775TIP3    H226741   3.332   4.646  12.051  0.2760 -2.7039 -1.2427
 1776TIP3   OH226742   6.061   4.629   1.291  0.2454 -0.0934  0.2538
 1776TIP3    H126743   6.138   4.573   1.284 -0.9826 -1.7239 -1.0031
 1776TIP3    H226744   6.092   4.716   1.268  1.9414 -0.4819  0.9490
 1777TIP3   OH226745   4.141   0.664   3.544  0.0243 -0.2956 -0.4874
 1777TIP3    H126746   4.049   0.691   3.535 -0.1164 -0.6183 -0.0280
 1777TIP3    H226747   4.165   0.633   3.457 -0.0523  0.5481 -0.8286
 1778TIP3   OH226748   6.395   1.319   5.262 -0.6530  0.3575 -0.1827
 1778TIP3    H126749   6.465   1.273   5.215 -1.7390 -2.1054  0.4042
 1778TIP3    H226750   6.385   1.268   5.343 -0.5258  2.9815  1.5777
 1779TIP3   OH226751   4.157   3.462  14.371  0.1672 -0.1136  0.3690
 1779TIP3    H126752   4.140   3.536  14.312 -0.3326 -0.0565  0.5826
 1779TIP3    H226753   4.112   3.485  14.452  0.5331 -0.3693  0.6495
 1780TIP3   OH226754   4.389   6.126   2.866  0.7738 -0.2185  0.5508
 1780TIP3    H126755   4.353   6.040   2.844  1.3224 -0.4469  0.5215
 1780TIP3    H226756   4.463   6.107   2.925  0.2785  0.2932  1.3567
 1781TIP3   OH226757   0.471   2.210  15.994  0.5079 -0.3433 -0.4120
 1781TIP3    H126758   0.542   2.147  15.988  0.1305 -0.7191 -1.0716
 1781TIP3    H226759   0.395   2.164  15.961  0.0597  0.2111 -0.1704
 1782TIP3   OH226760   3.902   3.269  13.621  0.4074 -0.6203  0.1268
 1782TIP3    H126761   3.858   3.188  13.647 -1.4934  0.3318  0.0318
 1782TIP3    H226762   3.960   3.243  13.550  0.1371 -1.9543  0.3632
 1783TIP3   OH226763   5.413   1.904  14.770 -0.0875  0.6560 -0.2914
 1783TIP3    H126764   5.461   1.962  14.712 -1.7763  2.3299 -0.1186
 1783TIP3    H226765   5.322   1.934  14.764 -1.2226 -2.4342 -0.7472
 1784TIP3   OH226766   4.190   5.618   5.872 -0.0572 -0.0792 -0.5941
 1784TIP3    H126767   4.179   5.611   5.967 -0.0891  2.3181 -0.3598
 1784TIP3    H226768   4.172   5.529   5.840 -0.4064 -0.8801  1.5857
 1785TIP3   OH226769   2.554   2.605  14.656 -0.4116 -0.3799 -0.2510
 1785TIP3    H126770   2.499   2.582  14.730  2.3201  2.5857  3.0890
 1785TIP3    H226771   2.611   2.529  14.643 -0.2630 -0.5792  1.4251
 1786TIP3   OH226772   2.053   1.716  12.883  0.7544  0.2928  0.4243
 1786TIP3    H126773   1.963   1.689  12.903  0.8032 -0.6571 -0.5202
 1786TIP3    H226774   2.093   1.638  12.844  2.0364  0.6600  0.9515
 1787TIP3   OH226775   4.922   5.249  15.994 -0.2515 -0.6649 -0.3547
 1787TIP3    H126776   4.936   5.192  15.918 -0.3197 -0.0952 -0.7988
 1787TIP3    H226777   4.998   5.308  15.994 -0.5261 -0.3130 -0.2924
 1788TIP3   OH226778   3.754   6.232  15.197 -0.4806  0.7857  0.2761
 1788TIP3    H126779   3.688   6.202  15.259 -0.2117 -0.5837 -0.0736
 1788TIP3    H226780   3.817   6.281  15.251 -0.3961 -0.1455  1.0542
 1789TIP3   OH226781   3.480   1.098   4.074 -0.3777 -0.4978  0.6019
 1789TIP3    H126782   3.560   1.132   4.034 -0.6348  0.2448  0.7025
 1789TIP3    H226783   3.419   1.171   4.071 -1.9629 -1.7988 -1.9030
 1790TIP3   OH226784   6.103   1.152   1.391  0.5789  0.2883  0.0570
 1790TIP3    H126785   6.101   1.058   1.408 -2.8615  0.1874 -0.1946
 1790TIP3    H226786   6.102   1.159   1.295 -2.1631  0.4436  0.0318
 1791TIP3   OH226787   3.723   1.270  12.330  0.0279  0.0712  0.3401
 1791TIP3    H126788   3.799   1.321  12.300 -0.2985  0.9571  0.9784
 1791TIP3    H226789   3.758   1.181  12.344  0.8543  0.3729  0.2346
 1792TIP3   OH226790   2.937   0.999  17.041  0.9517  0.2407 -0.1214
 1792TIP3    H126791   2.903   1.048  17.116 -0.3297  2.4762 -2.0369
 1792TIP3    H226792   2.868   0.934  17.022 -0.6839  2.2964 -1.6915
 1793TIP3   OH226793   3.622   1.143   3.395 -0.1625 -0.5087 -0.2100
 1793TIP3    H126794   3.544   1.117   3.346  0.7859 -1.9463 -1.0440
 1793TIP3    H226795   3.633   1.236   3.375 -1.5403 -0.3273 -0.2173
 1794TIP3   OH226796   6.797   3.623   5.811  0.6462  0.2086 -0.5114
 1794TIP3    H126797   6.873   3.580   5.773  1.0542  1.5409 -1.2451
 1794TIP3    H226798   6.801   3.713   5.780 -0.7482  0.5393  0.1558
 1795TIP3   OH226799   5.478   6.331  12.736 -0.3430  0.3385  0.0411
 1795TIP3    H126800   5.387   6.331  12.706 -0.6164 -1.2386  0.7782
 1795TIP3    H226801   5.484   6.407  12.793 -1.4198  0.0274  0.5939
 1796TIP3   OH226802   3.506   1.961   3.975  0.0257 -0.2775  0.4472
 1796TIP3    H126803   3.559   1.891   4.013  1.3640 -0.3035 -1.3186
 1796TIP3    H226804   3.428   1.917   3.942 -0.0809 -0.5996  1.1066
 1797TIP3   OH226805   3.251   4.923   1.956  0.2195  0.1810 -0.7944
 1797TIP3    H126806   3.255   4.978   1.878  1.4343  0.2781 -0.6798
 1797TIP3    H226807   3.343   4.908   1.980 -0.1410  0.4895  0.8658
 1798TIP3   OH226808   6.442   4.012  12.696 -0.2815  0.0037 -0.5064
 1798TIP3    H126809   6.402   3.930  12.724  1.6171 -0.9597 -0.5207
 1798TIP3    H226810   6.522   4.019  12.748  1.7279 -0.2428 -3.3696
 1799TIP3   OH226811   3.651   2.909  11.760 -0.1732 -0.0721  0.1962
 1799TIP3    H126812   3.732   2.960  11.760 -0.6548  0.7014  0.5300
 1799TIP3    H226813   3.643   2.875  11.849  1.0994 -2.3196 -0.4599
 1800TIP3   OH226814   3.106   5.674  15.674 -0.2921  0.3963  0.3765
 1800TIP3    H126815   3.161   5.682  15.751 -0.3515  0.7101  0.3869
 1800TIP3    H226816   3.165   5.686  15.600  0.2958 -2.4965  0.2442
 1801TIP3   OH226817   5.537   2.010  13.163 -0.0112  0.1709  0.2515
 1801TIP3    H126818   5.522   2.039  13.254  1.2258  0.0167  0.5276
 1801TIP3    H226819   5.452   1.976  13.135 -0.6024  0.8524  1.1104
 1802TIP3   OH226820   0.210   2.676  15.279  0.1721 -0.0247 -0.1332
 1802TIP3    H126821   0.199   2.609  15.212  0.4157 -0.7562  0.5483
 1802TIP3    H226822   0.122   2.698  15.307  0.1400 -1.4848  1.0195
 1803TIP3   OH226823   2.987   5.907  14.361  0.5225 -0.1959  0.5557
 1803TIP3    H126824   2.984   5.824  14.408 -1.9275 -1.4900 -1.6638
 1803TIP3    H226825   2.896   5.931  14.348  1.1491  1.5563 -1.0368
 1804TIP3   OH226826   4.041   3.468  11.062 -0.2971  0.7084 -0.2574
 1804TIP3    H126827   4.033   3.380  11.024  1.7599  1.2481 -2.1891
 1804TIP3    H226828   4.006   3.527  10.995 -2.9118  1.3743  1.5638
 1805TIP3   OH226829   6.414   3.733  13.106  0.5578  0.1530  0.0807
 1805TIP3    H126830   6.338   3.733  13.165  1.6239 -0.7621  1.5292
 1805TIP3    H226831   6.475   3.795  13.146  0.5222  1.0257 -1.1728
 1806TIP3   OH226832   3.794   5.853  12.763  0.7784 -0.0235 -0.0691
 1806TIP3    H126833   3.723   5.915  12.779  1.6763  1.7804 -2.3711
 1806TIP3    H226834   3.765   5.771  12.803 -2.1117  0.8982 -0.0611
 1807TIP3   OH226835   2.965   2.139   4.044  0.1256  0.0880 -0.1174
 1807TIP3    H126836   3.012   2.151   4.127 -1.5281 -0.7981  1.0206
 1807TIP3    H226837   2.976   2.222   3.998  1.7134  0.3393  0.6410
 1808TIP3   OH226838   1.785   5.089  16.191 -0.5795 -0.1575 -0.5490
 1808TIP3    H126839   1.743   5.093  16.105  0.4039  0.2622 -1.0246
 1808TIP3    H226840   1.712   5.096  16.253 -1.2346  0.3768 -1.3433
 1809TIP3   OH226841   0.750   0.338   2.832 -0.0935 -0.1642  0.4100
 1809TIP3    H126842   0.704   0.339   2.916  1.8914  1.6918  1.5783
 1809TIP3    H226843   0.843   0.334   2.855  0.4628 -2.6127 -1.8144
 1810TIP3   OH226844   5.101   5.611  12.132 -0.0964  0.2822  0.1384
 1810TIP3    H126845   5.095   5.646  12.043 -3.2986 -0.3003  0.0076
 1810TIP3    H226846   5.131   5.521  12.120  0.3270  0.4658 -0.2403
 1811TIP3   OH226847   3.705   0.210   2.953  0.2801  0.1542 -0.0667
 1811TIP3    H126848   3.711   0.141   3.018  1.2649 -0.0696 -0.3819
 1811TIP3    H226849   3.796   0.230   2.929  0.0123  1.4497 -0.0939
 1812TIP3   OH226850   4.425   0.620   5.490 -0.2928  0.0506  0.0068
 1812TIP3    H126851   4.500   0.609   5.548 -0.7832  0.3580  0.7030
 1812TIP3    H226852   4.383   0.534   5.489  0.7856 -0.4999 -1.4161
 1813TIP3   OH226853   2.232   2.618  16.736  0.2300  0.0468 -1.1676
 1813TIP3    H126854   2.187   2.641  16.654 -1.4965 -0.1110 -0.2988
 1813TIP3    H226855   2.193   2.535  16.762  2.1442 -0.9169 -1.1369
 1814TIP3   OH226856   1.815   2.337   5.551  0.3009 -0.4130  0.5898
 1814TIP3    H126857   1.836   2.426   5.580  0.8585 -0.8738  1.6562
 1814TIP3    H226858   1.878   2.281   5.597 -0.9097 -1.4823  1.0208
 1815TIP3   OH226859   5.149   3.325  16.866 -0.3619 -0.4181 -0.5261
 1815TIP3    H126860   5.069   3.290  16.906  0.2690 -3.0712 -1.3933
 1815TIP3    H226861   5.220   3.274  16.905  0.8631  1.1941 -0.5304
 1816TIP3   OH226862   1.666   0.199  15.967  0.0882  0.2121 -0.2188
 1816TIP3    H126863   1.575   0.184  15.990  0.5131 -0.2061  1.3286
 1816TIP3    H226864   1.670   0.290  15.940 -0.8232  0.1718 -0.5071
 1817TIP3   OH226865   6.597   4.971  11.464 -0.0325  0.9254  0.0877
 1817TIP3    H126866   6.675   4.961  11.519 -0.0544 -0.4904 -0.0978
 1817TIP3    H226867   6.541   4.897  11.488  0.3945 -0.3651 -2.5075
 1818TIP3   OH226868   2.117   0.619   2.210 -0.4808  0.0196  0.1969
 1818TIP3    H126869   2.188   0.676   2.180 -0.8113  0.0724 -0.4943
 1818TIP3    H226870   2.160   0.541   2.244 -0.0505  0.4343  0.6069
 1819TIP3   OH226871   3.482   6.306  14.464 -0.4720  0.2205 -0.0060
 1819TIP3    H126872   3.452   6.383  14.512 -3.1886 -1.0273  0.4704
 1819TIP3    H226873   3.506   6.340  14.378  0.9694  1.9390  0.9889
 1820TIP3   OH226874   0.477   4.268  12.798 -0.2915  0.5008  0.5351
 1820TIP3    H126875   0.571   4.279  12.807 -0.2459  2.5234 -1.5378
 1820TIP3    H226876   0.467   4.188  12.746  0.4454  1.4765 -1.1836
 1821TIP3   OH226877   0.453   3.654  11.293 -0.3706  0.0685 -0.0938
 1821TIP3    H126878   0.547   3.645  11.311  0.2357  3.7205 -0.7340
 1821TIP3    H226879   0.445   3.637  11.199 -0.3991 -0.4092 -0.0078
 1822TIP3   OH226880   0.006   0.601   4.044  0.1872  0.4055 -0.4193
 1822TIP3    H126881   0.013   0.643   3.959  2.2554 -1.4616 -1.2568
 1822TIP3    H226882  -0.071   0.545   4.037  0.0774  0.6095 -0.8914
 1823TIP3   OH226883   6.295   1.987  11.920 -0.1830  0.4733 -0.5078
 1823TIP3    H126884   6.360   2.032  11.974 -1.5289  0.2076  1.4540
 1823TIP3    H226885   6.339   1.907  11.891  0.4180  0.3645  0.6607
 1824TIP3   OH226886   2.687   1.389   3.128 -0.2677 -0.4012  0.2569
 1824TIP3    H126887   2.687   1.475   3.084 -0.5836  0.4939  1.9245
 1824TIP3    H226888   2.691   1.326   3.056 -1.3588  0.9796 -1.1098
 1825TIP3   OH226889   6.226   6.363   0.810 -0.5982  0.1716  0.2636
 1825TIP3    H126890   6.170   6.434   0.780  1.2498  2.0661  1.0608
 1825TIP3    H226891   6.220   6.365   0.906  0.2013 -0.0918  0.3329
 1826TIP3   OH226892   2.216   2.081   5.963 -0.4467 -0.1857  0.4474
 1826TIP3    H126893   2.287   2.019   5.975 -0.8842 -1.0445 -1.0338
 1826TIP3    H226894   2.253   2.166   5.987  0.8533 -0.7156  0.3838
 1827TIP3   OH226895   2.629   4.878  15.984 -0.1684 -0.2239  0.4124
 1827TIP3    H126896   2.669   4.831  16.058 -2.2575  0.1682  1.9083
 1827TIP3    H226897   2.539   4.894  16.013 -1.2372 -0.4673 -2.4595
 1828TIP3   OH226898   4.222   6.045   1.329 -0.4950  0.2121 -0.3546
 1828TIP3    H126899   4.139   6.048   1.376 -0.0753  0.0783  0.4252
 1828TIP3    H226900   4.247   6.136   1.317  0.5324  0.2920  1.8224
 1829TIP3   OH226901   1.823   0.968  12.566  0.1599  0.7150  0.4889
 1829TIP3    H126902   1.835   1.019  12.646 -1.8039  1.5521  0.3140
 1829TIP3    H226903   1.791   1.031  12.501 -2.0571 -0.5942  0.1922
 1830TIP3   OH226904   1.414   2.624  14.494  0.1828  0.4604  0.2915
 1830TIP3    H126905   1.449   2.704  14.532 -0.6946  1.0929 -0.1978
 1830TIP3    H226906   1.321   2.642  14.481 -0.0392 -0.6603  0.2282
 1831TIP3   OH226907   4.341   0.940   1.907  0.0676 -0.3370 -0.2061
 1831TIP3    H126908   4.280   0.998   1.861  3.3504  2.2934 -1.7006
 1831TIP3    H226909   4.369   0.877   1.841 -0.3482 -0.9881  0.2280
 1832TIP3   OH226910   3.947   3.098  11.769 -0.0925  0.4973 -0.3540
 1832TIP3    H126911   4.028   3.127  11.810 -0.9203  0.9292  1.0627
 1832TIP3    H226912   3.930   3.012  11.807 -0.1757  0.3143 -0.8061
 1833TIP3   OH226913   1.600   1.416   1.450  0.2254 -0.3094 -0.2641
 1833TIP3    H126914   1.530   1.403   1.514  0.1391 -0.4864 -0.3933
 1833TIP3    H226915   1.626   1.327   1.425  2.3409 -0.3746  1.7657
 1834TIP3   OH226916   3.884   3.407   4.430 -0.0002 -0.1239 -0.2291
 1834TIP3    H126917   3.917   3.436   4.515 -0.9889  0.3628 -0.0012
 1834TIP3    H226918   3.953   3.434   4.368  1.8926 -2.6074  0.6140
 1835TIP3   OH226919   3.621   5.719  16.043 -0.6465 -0.1500 -0.4437
 1835TIP3    H126920   3.710   5.739  16.014 -0.4242 -0.1854  0.1946
 1835TIP3    H226921   3.569   5.721  15.963 -0.1356  0.2194 -0.7767
 1836TIP3   OH226922   2.643   1.033  14.062 -0.3664 -0.4132 -0.2237
 1836TIP3    H126923   2.691   0.958  14.027 -1.2654  0.1901 -3.0408
 1836TIP3    H226924   2.673   1.107  14.009 -1.6696  0.6549  0.4658
 1837TIP3   OH226925   3.750   0.216  16.487  0.4914 -0.4498 -0.0807
 1837TIP3    H126926   3.761   0.171  16.404 -0.5859 -1.0072  0.0643
 1837TIP3    H226927   3.668   0.263  16.479  0.5935 -0.1475  0.5134
 1838TIP3   OH226928   6.109   4.150   1.442 -0.1083  0.4420 -0.1462
 1838TIP3    H126929   6.088   4.239   1.468  2.9745  0.2018  4.2965
 1838TIP3    H226930   6.032   4.099   1.467 -0.7300  1.4758  0.1008
 1839TIP3   OH226931   6.480   6.750   6.350  0.2848  0.1339  0.3071
 1839TIP3    H126932   6.460   6.659   6.328 -1.5261 -0.1322  2.6430
 1839TIP3    H226933   6.574   6.750   6.371  0.0564 -1.5232  1.5259
 1840TIP3   OH226934   3.744   1.307  10.897  0.3420  0.0523 -0.1151
 1840TIP3    H126935   3.677   1.337  10.959  0.0741 -1.3023  0.2777
 1840TIP3    H226936   3.720   1.348  10.814 -2.7131 -2.6116 -0.7273
 1841TIP3   OH226937   5.583   5.904  13.541 -0.7722 -0.0300  0.4086
 1841TIP3    H126938   5.500   5.953  13.537 -0.4337  0.6161  1.0494
 1841TIP3    H226939   5.585   5.853  13.460 -1.8715 -0.1739  0.4496
 1842TIP3   OH226940   2.601   0.968   4.814  0.6193  0.3945 -0.0257
 1842TIP3    H126941   2.524   1.025   4.806 -0.9571 -1.7071 -0.9968
 1842TIP3    H226942   2.620   0.941   4.725 -0.7387 -3.0097  0.5511
 1843TIP3   OH226943   6.240   1.058   5.169 -0.1881 -0.0258 -0.3784
 1843TIP3    H126944   6.198   1.120   5.228 -0.2174  0.0483 -0.4774
 1843TIP3    H226945   6.251   1.106   5.086 -0.1052 -0.1136 -0.4190
 1844TIP3   OH226946   5.414   1.752  13.428  0.7211 -0.4515  0.1343
 1844TIP3    H126947   5.326   1.720  13.446  0.8640 -0.8595  0.1177
 1844TIP3    H226948   5.401   1.841  13.394  0.3096 -0.5508  0.0270
 1845TIP3   OH226949   2.496   5.126  12.150  0.0522  0.2444 -0.0471
 1845TIP3    H126950   2.547   5.205  12.167 -0.3371  0.3448  0.7180
 1845TIP3    H226951   2.529   5.062  12.213 -0.6138  0.2547  0.3245
 1846TIP3   OH226952   1.388   1.948   3.821 -0.7899  0.4653  0.3681
 1846TIP3    H126953   1.433   2.033   3.820 -0.3903  0.2655 -1.1204
 1846TIP3    H226954   1.295   1.970   3.823 -0.7411  1.0179 -1.2932
 1847TIP3   OH226955   4.184   6.136   4.114  0.0210  0.1908 -0.5023
 1847TIP3    H126956   4.233   6.206   4.072 -0.9151 -0.0386 -2.0496
 1847TIP3    H226957   4.219   6.131   4.203  2.7124  0.0977 -1.5004
 1848TIP3   OH226958   2.110   5.080  14.738  0.0435 -0.4012  0.1057
 1848TIP3    H126959   2.056   5.010  14.776 -2.2054  1.1965  0.0489
 1848TIP3    H226960   2.106   5.150  14.803  0.3767  0.4933 -0.8235
 1849TIP3   OH226961   0.417   3.728  13.623  0.2790  0.0891 -0.1227
 1849TIP3    H126962   0.449   3.653  13.573 -0.6333  0.1539 -0.8313
 1849TIP3    H226963   0.394   3.793  13.556 -3.0389 -0.6231  0.1671
 1850TIP3   OH226964   3.405   4.255  15.735 -0.0788  0.0988  0.2259
 1850TIP3    H126965   3.496   4.264  15.706 -0.6561  2.9564 -1.0788
 1850TIP3    H226966   3.354   4.258  15.654 -1.3946 -1.6079  0.9240
 1851TIP3   OH226967   2.012   4.706  11.563 -0.0136  0.1517 -0.3887
 1851TIP3    H126968   1.926   4.717  11.524 -0.0764 -0.5096 -0.4462
 1851TIP3    H226969   2.044   4.795  11.578 -0.8693  0.3958  0.0005
 1852TIP3   OH226970   0.683   1.327   3.046  0.4155 -0.1232  0.1182
 1852TIP3    H126971   0.733   1.292   3.120  1.1820 -2.0781 -1.2452
 1852TIP3    H226972   0.604   1.274   3.043 -0.0336  0.5423  0.0667
 1853TIP3   OH226973   2.145   5.933   6.498 -0.3264 -0.1173 -0.4171
 1853TIP3    H126974   2.150   5.964   6.588 -1.6780 -1.3117  0.0981
 1853TIP3    H226975   2.208   5.861   6.493  0.6859  0.7665 -0.8115
 1854TIP3   OH226976   0.281   6.728  12.466 -0.1263  0.0942 -0.2464
 1854TIP3    H126977   0.222   6.653  12.473 -1.1394  0.8685 -0.2073
 1854TIP3    H226978   0.285   6.746  12.372  0.4054 -0.2236 -0.2878
 1855TIP3   OH226979   2.258   0.082  15.653 -0.1110 -0.0506 -0.5887
 1855TIP3    H126980   2.302   0.126  15.726  1.2860 -0.9468 -0.8466
 1855TIP3    H226981   2.190   0.029  15.693  0.8681 -0.8094  0.1296
 1856TIP3   OH226982   5.821   1.101  12.118 -0.4346  0.1321  0.3158
 1856TIP3    H126983   5.793   1.019  12.078 -1.6138  0.8513 -0.3826
 1856TIP3    H226984   5.834   1.160  12.044 -1.1868  1.0469  0.8931
 1857TIP3   OH226985   0.293   4.319   2.437  0.5213  0.6674 -0.2067
 1857TIP3    H126986   0.218   4.260   2.427  1.0551 -0.0673 -0.0041
 1857TIP3    H226987   0.364   4.262   2.467  0.8404  1.5590  0.7808
 1858TIP3   OH226988   1.593   6.789   1.123  0.0702  0.4163 -0.0874
 1858TIP3    H126989   1.680   6.789   1.163  0.6683 -1.2797 -1.2365
 1858TIP3    H226990   1.600   6.725   1.052 -2.2884 -0.1861  0.1427
 1859TIP3   OH226991   1.582   0.945   2.343  0.3669 -0.7801  0.2508
 1859TIP3    H126992   1.497   0.978   2.371  0.5115  0.6760 -0.8838
 1859TIP3    H226993   1.587   0.970   2.250  1.1527 -2.7082 -0.2661
 1860TIP3   OH226994   5.832   5.520   3.494  0.4586 -0.2594 -0.6944
 1860TIP3    H126995   5.802   5.590   3.435 -1.1875 -0.7741 -0.5151
 1860TIP3    H226996   5.847   5.564   3.578 -1.4713 -0.2148 -0.3229
 1861TIP3   OH226997   3.179   6.148  11.316  0.0400  0.4806 -0.1312
 1861TIP3    H126998   3.241   6.124  11.248  0.5837 -0.2567  0.5957
 1861TIP3    H226999   3.180   6.243  11.317  1.0526  0.4815 -0.2375
 1862TIP3   OH227000   2.325   5.849   1.709 -0.1864 -0.2174  0.4386
 1862TIP3    H127001   2.241   5.836   1.665  0.0196  0.4588 -0.1762
 1862TIP3    H227002   2.313   5.810   1.796 -1.1860  0.0096  0.4172
 1863TIP3   OH227003   2.605   1.032  12.272 -0.4888  0.2161  0.2211
 1863TIP3    H127004   2.518   1.035  12.314 -0.0180  0.9455  1.1995
 1863TIP3    H227005   2.666   1.053  12.343  0.7093 -2.5298  0.1089
 1864TIP3   OH227006   5.194   4.771  15.404 -0.1660 -0.4268 -0.1190
 1864TIP3    H127007   5.201   4.781  15.498  1.2452 -0.5514 -0.1979
 1864TIP3    H227008   5.143   4.690  15.392  0.0448 -0.6572  0.5260
 1865TIP3   OH227009   3.528   5.644   4.091  0.4746  0.6257 -0.2554
 1865TIP3    H127010   3.498   5.577   4.152 -1.0080  1.2771 -0.2085
 1865TIP3    H227011   3.618   5.663   4.118  0.4525 -0.3795  0.5689
 1866TIP3   OH227012   5.972   5.567   2.788  0.2578  0.3520  0.2909
 1866TIP3    H127013   6.043   5.502   2.794  0.1789  0.2297 -0.0783
 1866TIP3    H227014   6.016   5.651   2.802  0.8354  0.4670 -1.8485
 1867TIP3   OH227015   0.445   5.680   0.469  0.1658  0.6695  0.1485
 1867TIP3    H127016   0.523   5.723   0.433  1.3229  0.3398  2.1103
 1867TIP3    H227017   0.372   5.726   0.428  1.3314  3.9826  1.4003
 1868TIP3   OH227018   4.696   4.094   6.293 -0.1886 -0.2163  0.0497
 1868TIP3    H127019   4.606   4.091   6.260 -0.1917 -1.9430  0.1135
 1868TIP3    H227020   4.736   4.014   6.259  1.2267  0.3618  0.3110
 1869TIP3   OH227021   0.702   5.814   3.486  0.0802  0.2139  0.1780
 1869TIP3    H127022   0.737   5.730   3.457 -3.2823 -1.8949  1.5570
 1869TIP3    H227023   0.625   5.828   3.430 -1.0733  0.8391  1.8431
 1870TIP3   OH227024   3.012   1.571  13.150  0.1314 -0.1166 -0.1534
 1870TIP3    H127025   2.927   1.596  13.114  0.4930  1.7807  0.2218
 1870TIP3    H227026   3.067   1.649  13.140  1.6350 -1.0829  0.2203
 1871TIP3   OH227027   5.344   1.717   0.651 -0.3598  0.0583  0.0606
 1871TIP3    H127028   5.319   1.809   0.663 -0.9897 -0.1070  0.0825
 1871TIP3    H227029   5.337   1.679   0.738 -0.2993 -0.0576  0.0149
 1872TIP3   OH227030   4.743   0.404   1.147  0.1566 -0.3283 -0.3291
 1872TIP3    H127031   4.730   0.356   1.228  1.0329 -1.8926 -1.0847
 1872TIP3    H227032   4.814   0.465   1.167 -0.4496  0.1559  0.4125
 1873TIP3   OH227033   4.370   3.258   4.991  0.4337 -0.4831 -0.1921
 1873TIP3    H127034   4.340   3.168   5.003  0.1820 -0.3430  0.2404
 1873TIP3    H227035   4.419   3.256   4.909  1.6556 -1.3191  0.5350
 1874TIP3   OH227036   2.046   3.382   6.296  0.0181 -0.1070 -0.0722
 1874TIP3    H127037   2.107   3.442   6.339 -1.5866  0.5423  1.3782
 1874TIP3    H227038   1.976   3.438   6.263 -0.2006 -0.9266 -1.0678
 1875TIP3   OH227039   5.694   4.293   0.160 -0.1746 -0.2027 -0.0343
 1875TIP3    H127040   5.731   4.280   0.073  1.6693 -0.2993  0.7178
 1875TIP3    H227041   5.599   4.300   0.145  0.1549  0.6839 -2.1347
 1876TIP3   OH227042   1.584   3.075   0.667 -0.2026  0.0426 -0.1445
 1876TIP3    H127043   1.662   3.129   0.680  0.9481 -1.7249  0.7446
 1876TIP3    H227044   1.587   3.049   0.575  0.6894 -0.6064  0.0588
 1877TIP3   OH227045   0.762   5.274  13.017 -0.6064 -0.5733 -0.3071
 1877TIP3    H127046   0.707   5.298  12.942 -1.5224 -4.2391 -0.9929
 1877TIP3    H227047   0.849   5.306  12.994 -1.3724  0.6586 -1.6915
 1878TIP3   OH227048   6.593   3.922  13.155  0.4695 -0.8915  0.0209
 1878TIP3    H127049   6.579   3.925  13.250 -1.0250 -1.7541 -0.1279
 1878TIP3    H227050   6.642   3.841  13.140 -1.1835 -1.9411 -0.0766
 1879TIP3   OH227051   3.908   5.855   4.801  0.4090  0.3308  0.6688
 1879TIP3    H127052   3.974   5.841   4.734 -0.3339 -1.8123  0.2791
 1879TIP3    H227053   3.827   5.824   4.761  0.1130 -1.9853  2.8233
 1880TIP3   OH227054   1.459   4.650   1.462 -0.0025 -0.4932 -0.4457
 1880TIP3    H127055   1.504   4.612   1.386  1.4641 -2.9631  1.4904
 1880TIP3    H227056   1.388   4.701   1.424  0.4194 -1.8951 -3.4720
 1881TIP3   OH227057   5.054   5.154  12.161 -0.2913  0.1096 -0.0560
 1881TIP3    H127058   5.101   5.230  12.127 -1.1434  0.2947 -0.8725
 1881TIP3    H227059   5.110   5.120  12.231  1.3776 -0.0906 -1.4211
 1882TIP3   OH227060   3.413   4.510  11.499 -0.2415  0.0531 -0.0586
 1882TIP3    H127061   3.353   4.531  11.428 -1.0368 -0.5349  0.4295
 1882TIP3    H227062   3.419   4.415  11.499  0.4861  0.0910  0.0697
 1883TIP3   OH227063   3.163   4.237  11.639 -0.1284 -0.0173  0.3907
 1883TIP3    H127064   3.159   4.147  11.671 -0.5667  0.9116  3.1977
 1883TIP3    H227065   3.237   4.238  11.579  0.7045 -1.9670  1.3026
 1884TIP3   OH227066   5.202   6.199  11.195 -0.1104 -0.0864 -0.6605
 1884TIP3    H127067   5.283   6.156  11.224  1.1944  0.8864 -2.5618
 1884TIP3    H227068   5.149   6.128  11.159 -0.0215 -0.7221  0.4393
 1885TIP3   OH227069   5.741   1.627  15.722 -0.2389 -1.0910 -0.1429
 1885TIP3    H127070   5.667   1.569  15.708 -0.7571 -0.6077  0.5273
 1885TIP3    H227071   5.793   1.620  15.641 -1.5627 -0.6454 -1.0593
 1886TIP3   OH227072   3.545   1.068   3.650 -0.0344  0.4254  0.3510
 1886TIP3    H127073   3.462   1.066   3.602 -0.4722  1.8854  0.9874
 1886TIP3    H227074   3.612   1.056   3.583 -0.7397 -0.4153 -0.2184
 1887TIP3   OH227075   4.661   5.542   0.165 -0.3552  0.9472 -0.1977
 1887TIP3    H127076   4.592   5.555   0.230  1.0742  2.2124  1.1440
 1887TIP3    H227077   4.696   5.630   0.149  1.3790  0.2854 -0.2948
 1888TIP3   OH227078   3.431   2.414  12.333 -0.2570 -0.6408 -0.1024
 1888TIP3    H127079   3.419   2.446  12.244 -0.0334 -0.1468  0.0428
 1888TIP3    H227080   3.358   2.451  12.382  0.5824  0.5431  0.2959
 1889TIP3   OH227081   3.816   3.869   5.030 -0.8418 -0.1670  0.3331
 1889TIP3    H127082   3.851   3.890   4.943 -0.1191 -1.7110  0.2222
 1889TIP3    H227083   3.722   3.883   5.022 -0.7922 -0.3236 -0.7172
 1890TIP3   OH227084   2.688   2.262   6.436  0.3386 -0.3733 -0.0713
 1890TIP3    H127085   2.646   2.280   6.352 -2.0762  0.6333  1.2394
 1890TIP3    H227086   2.722   2.347   6.465 -0.8091 -0.2143  0.9136
 1891TIP3   OH227087   5.101   1.545   2.771 -0.1730 -0.0091  0.6241
 1891TIP3    H127088   5.086   1.638   2.755 -0.1636  0.0276  0.8249
 1891TIP3    H227089   5.181   1.525   2.724 -1.0312 -0.2968 -0.7835
 1892TIP3   OH227090   0.415   4.811  16.305  0.7333 -0.0307  0.1026
 1892TIP3    H127091   0.493   4.829  16.252 -0.0006 -0.0735 -1.0141
 1892TIP3    H227092   0.419   4.876  16.375  1.0512  0.8726 -0.7243
 1893TIP3   OH227093   2.638   0.574  11.120 -0.0508 -0.2083  0.1658
 1893TIP3    H127094   2.648   0.565  11.026 -0.9278 -1.4202  0.1688
 1893TIP3    H227095   2.698   0.645  11.144  0.0778  0.2072 -1.3084
 1894TIP3   OH227096   0.047   5.309   4.442 -0.0949  0.0005  0.1296
 1894TIP3    H127097   0.139   5.283   4.440 -0.0350  0.2151 -1.7151
 1894TIP3    H227098   0.012   5.269   4.522  1.8520  0.8837  1.4810
 1895TIP3   OH227099   2.597   5.735  13.160 -0.8639 -0.4357 -0.8399
 1895TIP3    H127100   2.535   5.675  13.118 -2.2975  0.8097 -0.5748
 1895TIP3    H227101   2.547   5.816  13.174  0.4190  0.1515  0.6424
 1896TIP3   OH227102   4.529   1.079   0.284  0.4043  0.1487 -0.1752
 1896TIP3    H127103   4.528   1.135   0.361  0.0112 -0.2309  0.0995
 1896TIP3    H227104   4.470   1.007   0.305  1.3614 -0.6928 -0.2812
 1897TIP3   OH227105   0.927   4.025  12.250  0.1371  0.4982 -0.0987
 1897TIP3    H127106   0.922   4.116  12.221 -0.0701  0.0495 -1.5466
 1897TIP3    H227107   0.837   3.994  12.245  0.1581  0.2946  0.7061
 1898TIP3   OH227108   3.388   5.112   3.894 -0.0244 -0.1063  0.0238
 1898TIP3    H127109   3.475   5.145   3.912 -0.6750  1.2026  0.9155
 1898TIP3    H227110   3.342   5.120   3.977 -0.5378 -2.3221  0.0129
 1899TIP3   OH227111   0.855   1.922  11.956  0.1955  0.3037 -0.2366
 1899TIP3    H127112   0.855   1.841  12.008  1.2156 -0.3477 -1.2093
 1899TIP3    H227113   0.789   1.977  11.997 -0.3394 -0.9315  0.6015
 1900TIP3   OH227114   4.209   4.239  13.272  0.0717  0.6930 -0.1619
 1900TIP3    H127115   4.137   4.227  13.333  0.0555  0.4988 -0.2175
 1900TIP3    H227116   4.286   4.254  13.327  0.7459 -2.8413  0.1101
 1901TIP3   OH227117   6.073   0.353  17.064  0.1200  0.0912  0.0280
 1901TIP3    H127118   6.058   0.440  17.100  1.3940  0.2338  0.2711
 1901TIP3    H227119   6.005   0.299  17.103  1.0130  0.3940  2.1337
 1902TIP3   OH227120   2.191   1.839  14.815  0.4294 -0.3769 -0.2704
 1902TIP3    H127121   2.165   1.929  14.834 -0.2331 -0.1453 -2.0685
 1902TIP3    H227122   2.285   1.843  14.801  0.2690  0.2336 -1.2540
 1903TIP3   OH227123   3.111   0.500  15.082 -0.8863  0.3351 -0.4062
 1903TIP3    H127124   3.115   0.551  15.163  1.4009  0.8022 -0.7462
 1903TIP3    H227125   3.177   0.432  15.093 -1.7870 -0.7182 -1.1980
 1904TIP3   OH227126   4.693   5.439  16.166 -0.1712  0.2003 -0.5309
 1904TIP3    H127127   4.641   5.370  16.208 -1.0320  0.4688 -1.1293
 1904TIP3    H227128   4.778   5.400  16.152 -0.2782 -0.3348  0.2567
 1905TIP3   OH227129   1.588   4.764  13.312 -0.4498  0.3531 -0.0494
 1905TIP3    H127130   1.636   4.714  13.246 -0.0994  0.6733 -0.0456
 1905TIP3    H227131   1.498   4.734  13.304 -0.5163  0.7791 -1.0530
 1906TIP3   OH227132   6.175   0.113   5.025  0.0675 -0.1263  0.1251
 1906TIP3    H127133   6.111   0.109   4.953 -0.0986 -1.6060  0.3366
 1906TIP3    H227134   6.238   0.044   5.006  0.0475 -0.5187  1.3729
 1907TIP3   OH227135   4.182   1.976   2.834 -0.0247 -0.1090 -0.1108
 1907TIP3    H127136   4.263   1.950   2.790 -1.1834 -1.1263 -1.7822
 1907TIP3    H227137   4.125   1.899   2.824 -0.5854 -0.1531  2.6973
 1908TIP3   OH227138   2.839   0.607   4.484 -0.0051  0.0252 -0.1217
 1908TIP3    H127139   2.907   0.555   4.442  1.0933  0.8539  0.5555
 1908TIP3    H227140   2.777   0.628   4.414 -0.3506 -1.9367 -0.4569
 1909TIP3   OH227141   4.365   6.072   5.295 -0.2426 -0.6526 -0.2985
 1909TIP3    H127142   4.396   6.033   5.377 -1.7403 -0.6841  0.2789
 1909TIP3    H227143   4.287   6.122   5.320 -0.8598 -0.8502 -1.7444
 1910TIP3   OH227144   4.509   4.657  11.448 -0.1200 -0.6442  0.0872
 1910TIP3    H127145   4.444   4.602  11.492 -2.6944  1.5788 -0.6249
 1910TIP3    H227146   4.476   4.666  11.358  1.3330  0.3794 -0.3785
 1911TIP3   OH227147   2.559   4.726   4.989 -0.2623  0.0273 -0.1332
 1911TIP3    H127148   2.556   4.636   4.958  0.6263  0.4888 -1.6959
 1911TIP3    H227149   2.643   4.733   5.035  0.1738  0.3033 -0.9414
 1912TIP3   OH227150   5.732   1.389   5.554  0.4117 -0.7457 -0.3504
 1912TIP3    H127151   5.652   1.413   5.601 -0.4585 -0.6345 -1.7900
 1912TIP3    H227152   5.788   1.349   5.620 -1.0200 -1.2345  0.6346
 1913TIP3   OH227153   5.820   1.960   0.328 -0.1424 -0.1077  0.4082
 1913TIP3    H127154   5.840   1.898   0.398 -0.5744 -1.4770 -0.6521
 1913TIP3    H227155   5.856   2.043   0.359  0.4804 -0.8798  1.8394
 1914TIP3   OH227156   4.812   5.897  13.015  0.0258 -0.8391  0.0166
 1914TIP3    H127157   4.892   5.867  12.971 -0.8107 -0.7935 -1.6241
 1914TIP3    H227158   4.771   5.817  13.047  0.0241 -1.0144 -0.4104
 1915TIP3   OH227159   6.591   2.862   0.161  0.2301  0.0268 -0.5881
 1915TIP3    H127160   6.645   2.931   0.123  0.6991 -1.2018 -2.3189
 1915TIP3    H227161   6.594   2.792   0.096 -1.1990 -1.1581  0.5547
 1916TIP3   OH227162   0.491   5.796  14.275 -0.7005  0.6482  0.3701
 1916TIP3    H127163   0.414   5.747  14.249 -1.4489  1.6115  0.7188
 1916TIP3    H227164   0.470   5.888  14.255 -0.7643  1.2692  2.9988
 1917TIP3   OH227165   5.856   4.619  14.309 -0.4227  0.1946  0.1002
 1917TIP3    H127166   5.788   4.682  14.284 -0.6675  0.1049  0.5274
 1917TIP3    H227167   5.853   4.619  14.405  0.8019  0.8782  0.1558
 1918TIP3   OH227168   0.639   5.148  11.559 -0.6304 -0.3918 -0.4261
 1918TIP3    H127169   0.693   5.069  11.547  0.5436 -0.0009  1.7492
 1918TIP3    H227170   0.678   5.212  11.499  0.0841 -0.6998 -0.3061
 1919TIP3   OH227171   0.837   2.673  10.981  0.2240 -0.4925 -0.0916
 1919TIP3    H127172   0.796   2.759  10.992  0.8338 -0.1371 -0.5246
 1919TIP3    H227173   0.825   2.629  11.065  0.5143  0.2831  0.3607
 1920TIP3   OH227174   2.955   4.924  15.336 -0.2556  0.4606  0.1974
 1920TIP3    H127175   2.954   4.965  15.422  1.6976 -0.4226  0.7073
 1920TIP3    H227176   2.872   4.949  15.295 -0.8586  1.5490  2.0165
 1921TIP3   OH227177   1.115   1.692  14.201 -0.5910 -0.2208 -1.1129
 1921TIP3    H127178   1.073   1.727  14.122  0.3461  0.8403 -1.1765
 1921TIP3    H227179   1.161   1.614  14.171 -0.7361 -0.1625 -1.4943
 1922TIP3   OH227180   2.383   4.652   4.233 -0.1644 -0.3675  0.5704
 1922TIP3    H127181   2.405   4.620   4.145  0.9998 -1.2250  1.1501
 1922TIP3    H227182   2.360   4.744   4.219  1.0841 -0.1742 -0.4990
 1923TIP3   OH227183   2.585   4.264  15.070  0.9573  0.0846 -0.3602
 1923TIP3    H127184   2.526   4.189  15.063  0.3466  0.5100  0.1427
 1923TIP3    H227185   2.611   4.266  15.162 -0.6795  1.7116  0.1166
 1924TIP3   OH227186   1.755   6.491   1.807 -0.3573  0.0826 -0.3661
 1924TIP3    H127187   1.741   6.523   1.718  1.6189  0.4204 -0.6103
 1924TIP3    H227188   1.832   6.540   1.837 -1.0142  0.0011  1.5538
 1925TIP3   OH227189   3.194   6.254  13.643  0.1313  0.1464 -0.1901
 1925TIP3    H127190   3.148   6.227  13.723 -0.9556  0.8201 -0.5691
 1925TIP3    H227191   3.125   6.262  13.577  0.6878  1.8830 -0.5982
 1926TIP3   OH227192   0.296   1.408  12.724  0.9753 -0.1311 -0.2597
 1926TIP3    H127193   0.265   1.498  12.735  2.0493  0.0355  1.9508
 1926TIP3    H227194   0.278   1.388  12.632 -2.2440  1.1720 -0.0386
 1927TIP3   OH227195   6.172   2.260  12.013  0.7544 -0.2785  0.1364
 1927TIP3    H127196   6.239   2.318  11.977 -1.7847  2.2632 -0.8802
 1927TIP3    H227197   6.154   2.196  11.943  1.3364 -0.2920 -0.0011
 1928TIP3   OH227198   4.813   6.251   5.010 -0.2535  0.0872  0.3976
 1928TIP3    H127199   4.832   6.171   5.058  0.5132  0.4474  0.7152
 1928TIP3    H227200   4.720   6.244   4.987  0.2248 -1.7455 -1.2319
 1929TIP3   OH227201   6.660   3.568  10.215 -0.1024  0.2747  0.4828
 1929TIP3    H127202   6.637   3.540  10.304  0.8777  1.7627  1.2620
 1929TIP3    H227203   6.731   3.509  10.188  0.5371  0.6555  1.2689
 1930TIP3   OH227204   4.620   0.123  14.753 -0.5203  0.2624 -0.0599
 1930TIP3    H127205   4.615   0.206  14.705 -1.5064  0.3360  0.1587
 1930TIP3    H227206   4.531   0.089  14.751 -0.6912  0.4755  2.0961
 1931TIP3   OH227207   5.790   5.643  12.861 -0.3407 -0.6461  0.0979
 1931TIP3    H127208   5.848   5.600  12.799  0.9050  0.7039  0.2625
 1931TIP3    H227209   5.706   5.648  12.816  0.6678  0.8245 -1.8090
 1932TIP3   OH227210   3.993   3.632   4.748  0.1423 -0.0129  0.2904
 1932TIP3    H127211   3.930   3.702   4.765 -0.6760 -0.1270 -1.9155
 1932TIP3    H227212   4.047   3.665   4.676  1.1888 -0.7962  0.6927
 1933TIP3   OH227213   2.591   1.531  15.953  0.3164 -0.2450 -0.6509
 1933TIP3    H127214   2.673   1.509  15.998  1.0915  1.2552 -1.2627
 1933TIP3    H227215   2.580   1.462  15.888  1.9058  0.3099 -1.5500
 1934TIP3   OH227216   4.942   0.845  16.245 -0.0054  0.4284 -0.0772
 1934TIP3    H127217   5.008   0.866  16.179  0.1552  1.8242  0.4860
 1934TIP3    H227218   4.859   0.869  16.204 -0.0225  0.0942 -0.2362
 1935TIP3   OH227219   4.956   4.515  16.504  0.1012 -0.2538 -0.1564
 1935TIP3    H127220   5.033   4.525  16.560 -0.9621 -0.1147  1.3596
 1935TIP3    H227221   4.986   4.541  16.417  1.9044 -0.7541  0.2660
 1936TIP3   OH227222   5.033   0.359  12.398 -0.5516  0.0375 -0.3729
 1936TIP3    H127223   4.948   0.387  12.365 -1.9034 -1.3431  1.6724
 1936TIP3    H227224   5.081   0.329  12.321 -1.8994  0.8290 -1.5660
 1937TIP3   OH227225   6.629   3.637  10.974  0.0340  0.0174 -0.2280
 1937TIP3    H127226   6.664   3.566  11.028  0.3779  0.0838 -0.3637
 1937TIP3    H227227   6.584   3.591  10.902 -0.1391 -0.0660 -0.0682
 1938TIP3   OH227228   1.053   3.853  12.890 -0.0680  0.0699 -0.1063
 1938TIP3    H127229   1.102   3.867  12.971 -0.1421  1.5317 -0.2973
 1938TIP3    H227230   0.993   3.781  12.911  1.3277 -0.9854  0.4869
 1939TIP3   OH227231   6.741   0.818   2.590  0.2415  0.2188  0.6786
 1939TIP3    H127232   6.760   0.905   2.552 -0.1237  0.6561  1.4773
 1939TIP3    H227233   6.767   0.826   2.681  2.8227 -1.3877  0.1779
 1940TIP3   OH227234   2.764   0.471  16.028  0.5669  0.6296 -0.6816
 1940TIP3    H127235   2.842   0.465  15.972  0.2652 -0.6381 -1.0019
 1940TIP3    H227236   2.746   0.380  16.054  0.7811  1.1848  1.6200
 1941TIP3   OH227237   5.358   2.287   6.280 -0.4080  0.6290 -0.0490
 1941TIP3    H127238   5.277   2.338   6.274 -1.1496 -0.1534  2.3026
 1941TIP3    H227239   5.428   2.350   6.264 -1.4140  1.4710 -1.3932
 1942TIP3   OH227240   1.589   2.078  12.161  0.2914 -0.4209 -0.9966
 1942TIP3    H127241   1.631   2.143  12.105  0.0929 -0.2600 -0.9595
 1942TIP3    H227242   1.627   1.995  12.134  0.3986 -0.3118 -1.1812
 1943TIP3   OH227243   3.915   6.678  13.142  0.4508 -0.5545  0.3073
 1943TIP3    H127244   3.820   6.695  13.146  0.8452  2.2818  0.1696
 1943TIP3    H227245   3.943   6.677  13.234  0.6904  2.0218  0.3354
 1944TIP3   OH227246   3.083   4.908  16.105 -0.4895 -0.1312  0.3231
 1944TIP3    H127247   3.003   4.961  16.116 -1.2449 -0.9407 -0.9215
 1944TIP3    H227248   3.155   4.968  16.122 -1.3658  0.6873  1.2293
 1945TIP3   OH227249   2.103   3.366  11.125  0.1621  0.3361  0.5035
 1945TIP3    H127250   2.122   3.401  11.037 -0.4829  1.0345  0.6291
 1945TIP3    H227251   2.186   3.374  11.172  0.5661 -0.2295 -0.1031
 1946TIP3   OH227252   0.077   2.778   3.547 -0.2296 -0.4219  0.7363
 1946TIP3    H127253   0.098   2.860   3.502 -1.8619 -0.4560 -0.1874
 1946TIP3    H227254   0.063   2.803   3.639 -0.6891  0.3482  0.4632
 1947TIP3   OH227255   3.783   2.644  10.945 -0.0852  0.6514  0.0731
 1947TIP3    H127256   3.699   2.665  10.985  0.4049  0.0414  1.4974
 1947TIP3    H227257   3.842   2.713  10.975  0.8590 -1.0618  2.4670
 1948TIP3   OH227258   6.815   2.313  14.254 -0.6573 -0.3348  0.4053
 1948TIP3    H127259   6.788   2.405  14.258  0.6486  0.0646  0.3424
 1948TIP3    H227260   6.807   2.282  14.344  0.6483  0.3750  0.7885
 1949TIP3   OH227261   0.377   0.570  14.436 -0.5783 -0.2848 -0.1262
 1949TIP3    H127262   0.468   0.599  14.445 -0.3501 -1.1412  0.4748
 1949TIP3    H227263   0.378   0.505  14.366 -0.7676 -0.1503 -0.2566
 1950TIP3   OH227264   0.271   6.252  11.620  0.0711  0.3364 -0.2873
 1950TIP3    H127265   0.248   6.169  11.662  0.8137 -0.9528 -2.2656
 1950TIP3    H227266   0.304   6.307  11.691 -0.3117 -1.1119  1.0611
 1951TIP3   OH227267   6.277   1.309  15.182 -0.2023 -0.0341  0.6387
 1951TIP3    H127268   6.245   1.371  15.247 -1.8004  0.8899 -0.9650
 1951TIP3    H227269   6.284   1.226  15.230  1.8472  1.2499  2.7898
 1952TIP3   OH227270   1.145   4.408   3.155 -0.0557 -0.0661 -0.2928
 1952TIP3    H127271   1.240   4.415   3.147 -0.1944  1.6494 -0.9732
 1952TIP3    H227272   1.120   4.487   3.202 -1.1806 -0.2879 -0.5007
 1953TIP3   OH227273   4.757   1.954   0.597  0.3519  0.3953  0.0019
 1953TIP3    H127274   4.695   2.021   0.568  0.0253 -0.2947 -0.9239
 1953TIP3    H227275   4.734   1.876   0.546  1.4017 -0.1264  0.3016
 1954TIP3   OH227276   1.525   5.643  16.114  0.5540  0.5310  0.1030
 1954TIP3    H127277   1.466   5.671  16.045  0.1127 -2.2529 -0.7991
 1954TIP3    H227278   1.571   5.567  16.077  0.3766 -1.0107  2.7790
 1955TIP3   OH227279   1.660   6.015  13.785 -0.6541  0.4153 -0.0146
 1955TIP3    H127280   1.730   5.968  13.740 -2.5594  0.2793 -3.1469
 1955TIP3    H227281   1.663   6.103  13.749  0.2941  1.6491  2.7898
 1956TIP3   OH227282   3.001   0.103  12.725 -0.5485  0.6705  0.6795
 1956TIP3    H127283   2.952   0.105  12.642 -2.3113 -2.2664  1.5164
 1956TIP3    H227284   3.043   0.017  12.726  0.3581  1.0975  2.3416
 1957TIP3   OH227285   4.669   5.502   2.318  0.3844 -0.2680 -0.2582
 1957TIP3    H127286   4.697   5.417   2.351  1.4505 -0.3680 -1.3568
 1957TIP3    H227287   4.727   5.519   2.244  0.2668  1.4720  0.0167
 1958TIP3   OH227288   4.613   3.650  12.701 -0.1583 -0.3640 -0.3723
 1958TIP3    H127289   4.582   3.647  12.610  0.7422 -1.2083 -0.6605
 1958TIP3    H227290   4.706   3.671  12.694  0.1626 -1.5216  0.2981
 1959TIP3   OH227291   1.452   4.382   3.860  0.1362 -0.2774  0.2203
 1959TIP3    H127292   1.529   4.337   3.895  0.7137 -0.1509 -0.8382
 1959TIP3    H227293   1.395   4.312   3.828  0.6302 -0.3206 -0.6064
 1960TIP3   OH227294   3.640   0.337  11.229  0.0413 -0.2694  0.4189
 1960TIP3    H127295   3.658   0.246  11.204  0.8204 -0.3422  1.2059
 1960TIP3    H227296   3.650   0.386  11.148  2.7898 -0.4569  0.5479
 1961TIP3   OH227297   4.900   3.291  12.194 -0.3097  0.6440 -0.5418
 1961TIP3    H127298   4.889   3.202  12.161 -0.9230  1.1601 -1.8254
 1961TIP3    H227299   4.994   3.306  12.194 -0.0946 -0.5000  1.1322
 1962TIP3   OH227300   3.061   0.824   1.098 -0.1524 -0.2717 -0.2864
 1962TIP3    H127301   3.142   0.860   1.063  0.6822 -1.8875 -0.0839
 1962TIP3    H227302   3.068   0.730   1.085 -2.0033 -0.4496 -0.2501
 1963TIP3   OH227303   4.464   6.197   0.320 -0.0364  0.7796 -0.5739
 1963TIP3    H127304   4.556   6.176   0.304 -0.1934  0.2713 -0.8270
 1963TIP3    H227305   4.416   6.146   0.255 -0.6018 -0.1818  0.5542
 1964TIP3   OH227306   4.497   6.157   0.783  0.6990  0.0333 -0.1858
 1964TIP3    H127307   4.439   6.193   0.716  0.9828  0.8860  0.0114
 1964TIP3    H227308   4.437   6.112   0.844  0.4817 -1.1040 -1.1972
 1965TIP3   OH227309   0.595   6.249   4.342 -0.7209 -0.0454  0.1983
 1965TIP3    H127310   0.507   6.272   4.311 -0.2870  0.5126 -0.6804
 1965TIP3    H227311   0.652   6.274   4.269  0.2717  0.5257  1.1470
 1966TIP3   OH227312   6.311   0.058  16.069 -0.1174 -0.0638  0.1850
 1966TIP3    H127313   6.385   0.047  16.009 -1.3294 -0.3511 -1.3293
 1966TIP3    H227314   6.349   0.047  16.156  1.6778  0.1762 -0.5127
 1967TIP3   OH227315   1.891   3.070  12.402  0.0359  0.2343  0.6641
 1967TIP3    H127316   1.915   2.983  12.369 -0.0098  1.3894 -2.6812
 1967TIP3    H227317   1.974   3.117  12.408 -0.1861  0.7369 -0.0543
 1968TIP3   OH227318   2.536   5.304   2.958  0.1313  0.1379 -0.1503
 1968TIP3    H127319   2.555   5.330   2.868  3.1247 -1.0281  0.0356
 1968TIP3    H227320   2.596   5.355   3.012  0.5248 -1.3413  0.8876
 1969TIP3   OH227321   4.291   5.146   3.552  0.5862 -0.0356  0.2523
 1969TIP3    H127322   4.337   5.088   3.490  2.4835  0.4958  1.0769
 1969TIP3    H227323   4.247   5.211   3.497  1.3433 -0.2101 -0.5762
 1970TIP3   OH227324   0.711   2.737  17.032  0.1792 -0.7080  0.5772
 1970TIP3    H127325   0.722   2.664  16.971 -0.7499 -0.8734  0.5795
 1970TIP3    H227326   0.744   2.704  17.115 -1.8735 -1.8366  1.0335
 1971TIP3   OH227327   1.483   4.181  11.134 -0.0528 -0.0258  0.1892
 1971TIP3    H127328   1.451   4.154  11.047 -0.0209  1.1754 -0.2206
 1971TIP3    H227329   1.432   4.128  11.195 -2.0374  1.0066 -0.4831
 1972TIP3   OH227330   0.413   5.997  14.083  0.0943  0.0114  0.1055
 1972TIP3    H127331   0.356   6.044  14.021  3.4631  1.7994 -1.9032
 1972TIP3    H227332   0.480   5.957  14.029  0.4106 -2.7151  2.2966
 1973TIP3   OH227333   1.660   5.142   3.578  0.1809 -0.0820 -0.3075
 1973TIP3    H127334   1.608   5.065   3.601  1.5241 -1.1809 -0.8442
 1973TIP3    H227335   1.723   5.111   3.513  0.4520  1.5853 -0.9111
 1974TIP3   OH227336   1.595   6.003   2.087 -0.4202  0.2087 -0.2730
 1974TIP3    H127337   1.510   6.028   2.050  0.1462  0.4168 -1.4518
 1974TIP3    H227338   1.649   6.082   2.079 -0.6527  0.7314  2.2706
 1975TIP3   OH227339   4.262   0.607  12.468 -0.1254 -0.4430 -0.4800
 1975TIP3    H127340   4.172   0.617  12.498  0.2183 -1.5877  1.0899
 1975TIP3    H227341   4.256   0.546  12.394 -0.8346  1.2280 -1.8604
 1976TIP3   OH227342   6.337   4.615   1.590  0.8955 -0.0571 -0.2263
 1976TIP3    H127343   6.411   4.656   1.544  0.4581 -0.4128 -1.2805
 1976TIP3    H227344   6.267   4.680   1.585  0.9238 -0.0003  0.1496
 1977TIP3   OH227345   3.369   0.073   1.893 -0.1733  0.0571 -0.4406
 1977TIP3    H127346   3.362  -0.020   1.875 -0.3812  0.0044 -0.0884
 1977TIP3    H227347   3.437   0.080   1.960 -0.2455  0.1506 -0.3771
 1978TIP3   OH227348   0.617   3.155  12.742  0.3562 -0.3589  0.1080
 1978TIP3    H127349   0.586   3.086  12.684  0.3120  0.5692 -1.0261
 1978TIP3    H227350   0.650   3.223  12.682  3.6783 -0.8521  1.1742
 1979TIP3   OH227351   5.657   1.297  13.196 -0.6044  0.1552  0.2810
 1979TIP3    H127352   5.595   1.297  13.269  0.4955  0.7184  1.2470
 1979TIP3    H227353   5.632   1.374  13.145 -0.5071  0.5702  0.8437
 1980TIP3   OH227354   2.493   6.705   1.985 -0.1185 -0.5551  0.2319
 1980TIP3    H127355   2.412   6.709   2.037 -0.0185  0.4779  0.3381
 1980TIP3    H227356   2.465   6.673   1.899 -0.5889 -0.5417  0.3754
 1981TIP3   OH227357   2.685   2.113   4.393  0.0607 -0.3155  0.2348
 1981TIP3    H127358   2.712   2.085   4.481 -0.7349 -0.5841  0.3984
 1981TIP3    H227359   2.734   2.056   4.334 -0.3677 -1.0077  0.5347
 1982TIP3   OH227360   2.310   1.611   5.613 -0.1728  0.3829  0.2485
 1982TIP3    H127361   2.395   1.621   5.571  0.5801  1.1801  1.8348
 1982TIP3    H227362   2.287   1.700   5.640 -1.5888  0.1967 -0.2766
 1983TIP3   OH227363   1.780   4.837  15.785 -0.6566  0.3617 -0.4249
 1983TIP3    H127364   1.825   4.784  15.720  0.4175  1.1241 -0.3377
 1983TIP3    H227365   1.851   4.875  15.837 -1.4151  1.4211 -0.1359
 1984TIP3   OH227366   0.278   1.774  11.484 -0.2787  0.5774  0.4900
 1984TIP3    H127367   0.238   1.690  11.459 -0.4778  0.8978 -0.2712
 1984TIP3    H227368   0.339   1.751  11.554 -1.4614  0.0082  1.3736
 1985TIP3   OH227369   6.769   5.187  13.163  0.2658 -0.6561  0.1324
 1985TIP3    H127370   6.812   5.271  13.179 -0.3312  0.1364 -2.0418
 1985TIP3    H227371   6.828   5.122  13.200  1.8793  0.5841 -0.1586
 1986TIP3   OH227372   5.111   3.923   4.264  0.0852 -0.6480 -0.1689
 1986TIP3    H127373   5.198   3.947   4.294 -0.9182  3.4805 -0.0505
 1986TIP3    H227374   5.055   3.935   4.341 -1.0573  0.0907 -1.0819
 1987TIP3   OH227375   1.637   2.632   2.822 -0.1663  0.3766 -0.2542
 1987TIP3    H127376   1.614   2.664   2.909  1.0122  1.8254 -0.4429
 1987TIP3    H227377   1.711   2.686   2.795 -0.0389 -0.5364 -1.8629
 1988TIP3   OH227378   3.730   5.528  15.024 -0.0951 -0.7681 -0.0413
 1988TIP3    H127379   3.663   5.558  14.963  0.3215  0.6713  0.1700
 1988TIP3    H227380   3.810   5.523  14.972 -0.0866 -1.1847  0.0076
 1989TIP3   OH227381   2.345   4.926   3.360  0.4932 -0.0450 -0.7133
 1989TIP3    H127382   2.337   4.857   3.295  1.0200 -0.7200 -0.0818
 1989TIP3    H227383   2.350   4.880   3.444  2.1179  0.6655 -0.3634
 1990TIP3   OH227384   0.086   2.146  15.792  0.4351  0.5822  0.5604
 1990TIP3    H127385   0.056   2.235  15.778  3.1581  1.4685 -0.3960
 1990TIP3    H227386   0.084   2.105  15.706 -0.9514 -0.3954  1.0150
 1991TIP3   OH227387   5.269   5.101   3.690 -0.2666 -0.4423  0.3095
 1991TIP3    H127388   5.337   5.168   3.682 -1.7173  1.1580  0.8036
 1991TIP3    H227389   5.191   5.141   3.653 -0.7722 -2.6013 -1.1803
 1992TIP3   OH227390   0.618   5.018  16.327  0.3327  0.2806 -0.2873
 1992TIP3    H127391   0.618   5.014  16.423  1.4185  1.5530 -0.1914
 1992TIP3    H227392   0.554   5.086  16.306 -0.3502 -0.4296 -0.4967
 1993TIP3   OH227393   1.452   2.627   1.494 -0.2109 -0.4096  0.6016
 1993TIP3    H127394   1.457   2.674   1.411 -3.5185 -0.3026  0.3571
 1993TIP3    H227395   1.496   2.685   1.557  1.6254 -0.1227 -0.8695
 1994TIP3   OH227396   1.811   3.812   3.794  0.3030 -0.8344 -0.1109
 1994TIP3    H127397   1.810   3.757   3.873 -1.3240 -0.9701 -0.1761
 1994TIP3    H227398   1.773   3.757   3.726 -0.1292 -0.0790 -0.4965
 1995TIP3   OH227399   5.498   1.317  11.758 -0.2935  0.2265  0.0216
 1995TIP3    H127400   5.577   1.284  11.714  0.1270 -1.2303  1.7503
 1995TIP3    H227401   5.440   1.241  11.765 -1.2176  0.9237  0.1220
 1996TIP3   OH227402   4.647   1.507  13.739 -0.5625  0.1729  0.6271
 1996TIP3    H127403   4.651   1.421  13.696  0.8474  0.4440  0.1564
 1996TIP3    H227404   4.555   1.518  13.762 -1.1990 -0.4754 -1.3722
 1997TIP3   OH227405   6.733   5.697  12.245 -0.0115  1.0178 -0.3529
 1997TIP3    H127406   6.707   5.660  12.161 -0.4433  0.8523 -0.1475
 1997TIP3    H227407   6.653   5.699  12.297  0.4457  0.1073  0.4287
 1998TIP3   OH227408   5.388   1.400   2.774 -0.5033  0.3672  0.1877
 1998TIP3    H127409   5.468   1.449   2.757 -0.0155 -0.1699  0.9077
 1998TIP3    H227410   5.374   1.349   2.694 -0.7168  1.2467 -0.3526
 1999TIP3   OH227411   3.863   1.879   0.801 -0.2241 -0.2473 -0.8456
 1999TIP3    H127412   3.861   1.928   0.883  0.1467  2.4941 -2.3240
 1999TIP3    H227413   3.787   1.821   0.805 -1.6043  1.5358  0.4526
 2000TIP3   OH227414   2.361   4.822  12.600 -0.1646  0.4567 -0.2102
 2000TIP3    H127415   2.435   4.877  12.624  0.4459 -0.1139 -0.7690
 2000TIP3    H227416   2.284   4.875  12.622  0.3944  0.9646  0.5791
 2001TIP3   OH227417   4.126   1.623  14.313 -0.2117 -0.1506 -0.1295
 2001TIP3    H127418   4.100   1.707  14.276 -1.0103  0.2264  1.1905
 2001TIP3    H227419   4.205   1.643  14.364  0.0123 -0.3563 -0.3928
 2002TIP3   OH227420   2.913   3.349  12.777  0.9374  0.0175  0.3746
 2002TIP3    H127421   2.973   3.286  12.737  0.8891 -0.2412  0.7067
 2002TIP3    H227422   2.845   3.295  12.817 -1.6164  0.2680 -3.1178
 2003TIP3   OH227423   5.862   4.090   4.143 -0.4714 -0.0466  0.1132
 2003TIP3    H127424   5.904   4.076   4.228  0.6993 -0.2058 -0.4679
 2003TIP3    H227425   5.860   4.186   4.133  0.6752 -0.0455 -0.2735
 2004TIP3   OH227426   0.769   1.015   1.896  0.0343 -0.4849 -0.5708
 2004TIP3    H127427   0.826   1.059   1.833  1.4627 -1.7072 -0.1806
 2004TIP3    H227428   0.783   1.064   1.978  1.2741 -1.3352 -0.2481
 2005TIP3   OH227429   0.694   3.423  16.030  0.0344 -0.0032  0.2883
 2005TIP3    H127430   0.695   3.339  15.984 -1.8068  0.5641 -0.9275
 2005TIP3    H227431   0.723   3.487  15.964 -2.7715  0.8384 -0.2678
 2006TIP3   OH227432   2.049   1.926   0.175  0.1100 -0.3028  0.2293
 2006TIP3    H127433   2.134   1.934   0.131  0.1324 -0.4883  0.2385
 2006TIP3    H227434   2.037   1.832   0.185 -0.3294 -0.2972 -0.2218
 2007TIP3   OH227435   0.158   1.542  15.487  0.0369 -0.4221  0.3555
 2007TIP3    H127436   0.140   1.463  15.536 -1.3730  0.2572  0.9935
 2007TIP3    H227437   0.099   1.537  15.411 -1.3378  0.7825  1.2938
 2008TIP3   OH227438   6.294   3.818  14.986  0.4679  0.4725  0.7870
 2008TIP3    H127439   6.253   3.781  14.908 -2.3407  3.4773  0.6674
 2008TIP3    H227440   6.275   3.754  15.055  0.2734 -0.7348 -0.3423
 2009TIP3   OH227441   4.818   0.053  13.363  0.4453  0.4968 -0.0218
 2009TIP3    H127442   4.725   0.055  13.341  0.6266 -1.1128 -1.1407
 2009TIP3    H227443   4.823   0.089  13.451 -1.6220 -1.8765  1.2018
 2010TIP3   OH227444   4.955   3.056  15.182 -0.0488 -0.7208  0.6050
 2010TIP3    H127445   4.962   2.964  15.154  0.2270 -0.9131  1.2643
 2010TIP3    H227446   4.883   3.092  15.131  2.0820 -0.2974 -2.3275
 2011TIP3   OH227447   1.927   2.168   0.160 -0.0771  0.0758  0.1689
 2011TIP3    H127448   1.836   2.154   0.184 -0.4537  0.6567 -0.9041
 2011TIP3    H227449   1.967   2.081   0.169 -0.8849 -0.3268 -0.0181
 2012TIP3   OH227450   5.829   6.673  14.908  0.1335 -0.2813  0.2842
 2012TIP3    H127451   5.913   6.650  14.869  0.4582 -0.0601  0.8373
 2012TIP3    H227452   5.851   6.705  14.996 -0.4974  0.0803  0.3199
 2013TIP3   OH227453   0.636   3.478  12.135  0.5272 -0.1518 -0.1483
 2013TIP3    H127454   0.621   3.548  12.071  2.1742  0.3647 -0.0241
 2013TIP3    H227455   0.628   3.398  12.084 -0.1905  0.1717 -0.5574
 2014TIP3   OH227456   6.558   3.227  15.658 -0.3728  0.0890  0.6953
 2014TIP3    H127457   6.483   3.198  15.710 -0.5099  1.6487  1.4293
 2014TIP3    H227458   6.526   3.304  15.610  0.3466 -0.1035 -0.1264
 2015TIP3   OH227459   5.791   3.018   2.845  0.1742  0.8060  0.1169
 2015TIP3    H127460   5.719   2.978   2.796  1.1337  0.0625 -0.7523
 2015TIP3    H227461   5.844   3.061   2.778  2.7902 -2.1845  0.0030
 2016TIP3   OH227462   3.869   5.201  11.817 -0.1655 -0.7440  0.1470
 2016TIP3    H127463   3.785   5.159  11.801 -0.7360  0.8836 -1.3970
 2016TIP3    H227464   3.869   5.220  11.911 -2.0182  0.1902  0.0044
 2017TIP3   OH227465   3.714   3.818   3.536  0.5215  0.2846  0.6882
 2017TIP3    H127466   3.638   3.766   3.562 -0.0366  0.4846 -0.4544
 2017TIP3    H227467   3.757   3.765   3.469  1.9169 -0.2256  1.9305
 2018TIP3   OH227468   6.256   1.568  14.378 -0.2046  0.1946  0.1587
 2018TIP3    H127469   6.316   1.499  14.350 -0.4968 -0.2388  0.5891
 2018TIP3    H227470   6.171   1.539  14.345 -0.3752  0.2026  0.5918
 2019TIP3   OH227471   5.030   0.678  14.020  0.3465  0.2455  0.7400
 2019TIP3    H127472   5.051   0.757  13.972  0.7553 -1.3726 -1.9223
 2019TIP3    H227473   5.081   0.684  14.101  0.2353  2.7044  0.6945
 2020TIP3   OH227474   6.502   2.828   4.467  0.4988 -0.2665 -0.1570
 2020TIP3    H127475   6.431   2.892   4.472 -0.6528 -1.3229 -1.9310
 2020TIP3    H227476   6.581   2.878   4.485 -0.5545  1.2164  0.5334
 2021TIP3   OH227477   2.326   2.249   5.224  0.1076  0.3763  0.6566
 2021TIP3    H127478   2.263   2.222   5.291 -3.5753  1.3257 -2.0920
 2021TIP3    H227479   2.388   2.305   5.271 -1.9612  0.6156  3.3448
 2022TIP3   OH227480   3.980   5.224  13.459  0.0303 -0.3071  0.6111
 2022TIP3    H127481   4.035   5.266  13.392 -0.4592  0.1443  0.4907
 2022TIP3    H227482   4.024   5.244  13.541  0.1126 -0.0509  0.5063
 2023TIP3   OH227483   3.521   1.479  13.480 -0.0765  0.3865  0.5584
 2023TIP3    H127484   3.586   1.425  13.526 -0.0573 -0.0780 -0.0031
 2023TIP3    H227485   3.483   1.534  13.549 -0.4484 -0.6889  1.2415
 2024TIP3   OH227486   5.207   0.082  15.115 -0.6950 -0.4609  0.1753
 2024TIP3    H127487   5.133   0.142  15.110 -0.2943 -0.0016 -0.4307
 2024TIP3    H227488   5.173  -0.002  15.086 -1.6386 -0.9147  2.4104
 2025TIP3   OH227489   6.028   3.653   0.910  0.4647 -0.5355 -0.0300
 2025TIP3    H127490   6.055   3.561   0.903 -0.0604 -0.7440  0.5805
 2025TIP3    H227491   5.945   3.650   0.957 -0.5018  0.1213 -1.6020
 2026TIP3   OH227492   2.090   4.064  13.829  0.1274  0.3595  0.1429
 2026TIP3    H127493   2.103   4.155  13.855  1.5726  0.6214 -1.3423
 2026TIP3    H227494   2.026   4.068  13.757  0.5858  0.2675 -0.2745
 2027TIP3   OH227495   5.833   2.741  16.215 -0.1749  0.0873  0.0293
 2027TIP3    H127496   5.919   2.716  16.250 -0.0986  0.0465 -0.1902
 2027TIP3    H227497   5.838   2.723  16.122 -0.3645  0.2494 -0.0146
 2028TIP3   OH227498   0.904   0.689   0.189  0.0967 -0.3577 -0.2257
 2028TIP3    H127499   0.996   0.690   0.217  0.0736 -4.5220  0.6573
 2028TIP3    H227500   0.899   0.619   0.125 -2.3443  0.4936 -1.0943
 2029TIP3   OH227501   3.157   6.462  14.057  0.6925 -0.0738  0.6691
 2029TIP3    H127502   3.144   6.555  14.040 -0.1193  0.1549  2.3214
 2029TIP3    H227503   3.070   6.424  14.046  1.3344 -1.0108 -1.8032
 2030TIP3   OH227504   0.947   3.504   4.325 -0.0645 -0.5822 -0.1887
 2030TIP3    H127505   0.973   3.422   4.365  1.3930 -0.0660 -0.0313
 2030TIP3    H227506   0.879   3.479   4.261  0.3624 -1.8981 -0.1550
 2031TIP3   OH227507   0.696   1.856  16.397  0.3538  0.5403  0.0536
 2031TIP3    H127508   0.780   1.825  16.430  0.3353  1.4638  1.0404
 2031TIP3    H227509   0.636   1.782  16.409  0.0763  1.1412  3.2309
 2032TIP3   OH227510   0.190   2.068   4.523  0.1737  0.0459  0.6109
 2032TIP3    H127511   0.206   1.984   4.566  0.7352 -1.0314 -1.5544
 2032TIP3    H227512   0.273   2.090   4.481 -1.5086 -1.8531 -4.5396
 2033TIP3   OH227513   6.103   4.940  12.594 -0.4351 -0.0392  0.5329
 2033TIP3    H127514   6.024   4.971  12.550  1.0611  0.9402 -1.6995
 2033TIP3    H227515   6.139   4.873  12.534  0.9535  0.3119  0.9341
 2034TIP3   OH227516   0.405   3.062   3.796  0.6339  0.6370  0.4010
 2034TIP3    H127517   0.434   3.141   3.843 -0.0150  1.7186 -0.9439
 2034TIP3    H227518   0.360   3.096   3.718 -1.7687 -0.9997  0.9716
 2035TIP3   OH227519   1.691   3.145  14.538 -0.5577 -0.3036 -0.2322
 2035TIP3    H127520   1.599   3.166  14.553 -1.0205 -1.8000 -0.7259
 2035TIP3    H227521   1.693   3.112  14.448  0.6814  0.7847 -0.6383
 2036TIP3   OH227522   2.182   1.433  14.852  0.1369 -0.0135  0.4377
 2036TIP3    H127523   2.155   1.342  14.839  0.3414 -0.0327  0.1448
 2036TIP3    H227524   2.114   1.470  14.908 -1.1419  0.2413 -1.2081
 2037TIP3   OH227525   2.830   2.474  14.645 -0.1318  0.1797 -0.2315
 2037TIP3    H127526   2.892   2.407  14.674 -0.3217  0.6335  1.3728
 2037TIP3    H227527   2.885   2.550  14.627 -0.1053  0.2358  0.0732
 2038TIP3   OH227528   3.275   2.883  14.851 -0.1338 -0.2030 -0.3222
 2038TIP3    H127529   3.332   2.811  14.821 -1.1995 -0.4904 -1.7705
 2038TIP3    H227530   3.300   2.957  14.797 -0.4695 -0.0574 -0.2764
 2039TIP3   OH227531   4.794   5.614  10.929  0.1717  0.1513 -0.0094
 2039TIP3    H127532   4.848   5.657  10.863  1.9161 -0.7361  0.7808
 2039TIP3    H227533   4.756   5.686  10.980 -0.7972  0.8335 -1.6034
 2040TIP3   OH227534   1.022   3.307   1.090  0.2133  0.3502 -0.3261
 2040TIP3    H127535   0.972   3.227   1.077 -0.3713  0.7762 -0.8071
 2040TIP3    H227536   1.101   3.280   1.136  0.5190 -0.6643 -1.4055
 2041TIP3   OH227537   3.850   4.787   4.664  0.0996  0.1218  0.1971
 2041TIP3    H127538   3.856   4.789   4.569 -0.9042  2.7578  0.1120
 2041TIP3    H227539   3.934   4.750   4.693  1.7974  2.2816 -1.6493
 2042TIP3   OH227540   2.295   3.391   3.302  0.3491  0.1159 -0.4673
 2042TIP3    H127541   2.317   3.437   3.222  1.1017  1.5417  0.5168
 2042TIP3    H227542   2.244   3.454   3.353  2.2503  0.2865  1.3385
 2043TIP3   OH227543   1.723   0.908  12.254  0.2295 -0.2972  0.1597
 2043TIP3    H127544   1.717   0.859  12.172 -0.1746  0.6288 -0.3865
 2043TIP3    H227545   1.701   0.998  12.230  0.8319  0.1353  1.1583
 2044TIP3   OH227546   2.541   6.308  11.985  0.5354 -0.1602  0.5220
 2044TIP3    H127547   2.498   6.226  12.008 -0.3007  0.4141  1.0397
 2044TIP3    H227548   2.472   6.374  11.989  0.6677  0.2525 -2.0609
 2045TIP3   OH227549   3.482   4.892  14.411 -0.2673 -0.5770 -0.1312
 2045TIP3    H127550   3.457   4.966  14.466  2.5070 -0.7859  1.5538
 2045TIP3    H227551   3.558   4.924  14.361  1.3457 -2.3938  1.0534
 2046TIP3   OH227552   0.549   0.295  15.172 -0.3658 -0.5605 -0.4932
 2046TIP3    H127553   0.498   0.374  15.192 -1.0577 -1.2039  0.3779
 2046TIP3    H227554   0.545   0.288  15.077 -0.4593  0.3507 -0.5651
 2047TIP3   OH227555   4.043   1.171   0.657  0.0519 -0.3701 -0.8492
 2047TIP3    H127556   4.001   1.225   0.724 -0.4540  0.0616 -1.4952
 2047TIP3    H227557   4.081   1.098   0.705  1.0780  0.7513  0.0945
 2048TIP3   OH227558   1.078   2.554   3.438 -0.1349 -0.6731 -0.5199
 2048TIP3    H127559   1.171   2.570   3.427 -0.5583  1.2368 -1.7134
 2048TIP3    H227560   1.071   2.512   3.524  1.6321  0.9606  0.4920
 2049TIP3   OH227561   5.812   4.894  13.817  0.6430  0.1897  0.3182
 2049TIP3    H127562   5.907   4.886  13.803  0.4206 -1.1160 -0.6331
 2049TIP3    H227563   5.802   4.892  13.912  1.3903 -3.0119  0.4663
 2050TIP3   OH227564   2.171   1.716   3.157  0.1906  0.2975 -0.3151
 2050TIP3    H127565   2.086   1.751   3.132 -0.5438 -1.3707 -0.2976
 2050TIP3    H227566   2.167   1.707   3.252 -0.5011 -1.8345 -0.4960
 2051TIP3   OH227567   1.779   0.071   0.773  0.3692 -0.0578 -0.1867
 2051TIP3    H127568   1.775   0.157   0.816  2.1237 -0.2586  0.4945
 2051TIP3    H227569   1.771   0.091   0.680 -0.3597  0.7220  0.0272
 2052TIP3   OH227570   1.981   5.443   5.740  0.1221 -0.3142  0.0893
 2052TIP3    H127571   1.897   5.478   5.770  1.2613  2.9542 -0.1305
 2052TIP3    H227572   1.981   5.459   5.646  0.5428 -1.3296 -0.0881
 2053TIP3   OH227573   2.119   6.435   2.293 -0.0166 -0.5824  0.0698
 2053TIP3    H127574   2.051   6.370   2.311  1.4048 -1.8346  1.1595
 2053TIP3    H227575   2.128   6.483   2.375 -0.8057  0.8071 -0.6197
 2054TIP3   OH227576   1.660   6.773  12.029 -0.7622  0.7065 -0.0690
 2054TIP3    H127577   1.567   6.760  12.045 -1.3877  3.7325 -0.6500
 2054TIP3    H227578   1.670   6.867  12.016  2.1392  0.3157 -1.6661
 2055TIP3   OH227579   3.394   3.177  12.695 -0.4618 -0.8718 -0.1899
 2055TIP3    H127580   3.374   3.223  12.613 -1.2881  0.0269  0.5007
 2055TIP3    H227581   3.325   3.203  12.755  1.2283  0.1107  1.4288
 2056TIP3   OH227582   2.883   0.639  15.184 -0.4266  0.2033 -0.1594
 2056TIP3    H127583   2.904   0.595  15.267 -2.0266 -1.8246 -0.7322
 2056TIP3    H227584   2.811   0.587  15.147 -1.0097  2.1319 -1.9546
 2057TIP3   OH227585   4.815   4.721   3.279 -0.9662  0.1560 -0.0445
 2057TIP3    H127586   4.812   4.654   3.348  0.9846 -1.8461 -1.7252
 2057TIP3    H227587   4.732   4.712   3.234 -1.4583  0.1420  0.8325
 2058TIP3   OH227588   3.009   5.639  12.818 -0.1844  0.1235  0.2212
 2058TIP3    H127589   2.964   5.693  12.754 -0.5422  1.8800  1.8525
 2058TIP3    H227590   2.941   5.617  12.883  0.9085  1.5885  1.9486
 2059TIP3   OH227591   0.589   1.704   5.821 -0.1311  0.5839  0.1698
 2059TIP3    H127592   0.624   1.633   5.874 -1.4031 -0.1253  0.1135
 2059TIP3    H227593   0.535   1.755   5.881  3.2841  3.5320  1.0384
 2060TIP3   OH227594   6.425   4.861   0.265  0.3634 -0.2227 -0.3814
 2060TIP3    H127595   6.377   4.944   0.258 -0.0585 -0.3465  0.9082
 2060TIP3    H227596   6.392   4.809   0.191  1.3066  1.0506 -1.7819
 2061TIP3   OH227597   3.455   3.635  16.181 -0.7125 -0.2208 -0.1251
 2061TIP3    H127598   3.386   3.695  16.211  0.1898  0.7204  0.1146
 2061TIP3    H227599   3.505   3.615  16.260  0.8790  1.2231 -0.6989
 2062TIP3   OH227600   5.035   1.457   3.064 -0.0967 -0.3553  0.3390
 2062TIP3    H127601   5.073   1.375   3.033  0.0697  0.2887 -1.2768
 2062TIP3    H227602   5.092   1.525   3.026 -2.2866  0.6090 -1.4307
 2063TIP3   OH227603   3.586   6.138   5.767  0.2302 -0.6778  0.3843
 2063TIP3    H127604   3.561   6.068   5.706  1.4038 -1.1694  0.4503
 2063TIP3    H227605   3.664   6.177   5.728 -0.8768  1.1955 -0.0936
 2064TIP3   OH227606   6.249   6.746   2.934 -0.8662  0.1431  0.2727
 2064TIP3    H127607   6.216   6.786   2.853 -1.4412  1.2952  1.0418
 2064TIP3    H227608   6.275   6.658   2.908  0.6168  1.0478 -1.5515
 2065TIP3   OH227609   1.464   3.034   3.023 -0.0438 -0.1906 -0.0363
 2065TIP3    H127610   1.499   2.947   3.043 -2.2458 -1.7268 -2.1913
 2065TIP3    H227611   1.406   3.054   3.096 -0.0388 -0.8727  0.1636
 2066TIP3   OH227612   3.901   5.503   5.032 -0.5289 -0.1788  0.3034
 2066TIP3    H127613   3.972   5.526   4.972 -0.7890 -2.0285 -0.7658
 2066TIP3    H227614   3.939   5.439   5.092 -1.1072 -0.6782  0.1473
 2067TIP3   OH227615   6.813   3.012  15.255 -0.3475  0.1892 -0.2952
 2067TIP3    H127616   6.794   2.918  15.254  0.9987 -0.1076 -0.1038
 2067TIP3    H227617   6.731   3.054  15.228 -0.9387 -1.0411 -0.4609
 2068TIP3   OH227618   3.292   3.232   3.744 -0.3112  0.2292  0.3634
 2068TIP3    H127619   3.227   3.180   3.696 -0.4720  0.4217  0.3698
 2068TIP3    H227620   3.260   3.235   3.834  0.4566 -0.8905  0.6923
 2069TIP3   OH227621   3.598   1.985   3.248  0.1641  0.2434  0.0304
 2069TIP3    H127622   3.678   1.963   3.296 -0.0064 -0.0136  0.2024
 2069TIP3    H227623   3.531   1.928   3.286 -0.0546  0.3024 -0.2604
 2070TIP3   OH227624   6.126   1.923  16.453  0.0387 -0.5362 -0.4790
 2070TIP3    H127625   6.071   1.891  16.525 -2.0941  1.5530 -1.0715
 2070TIP3    H227626   6.145   1.845  16.401 -0.0431 -1.7568  1.2060
 2071TIP3   OH227627   5.538   6.801   4.520  0.6076  0.1875  0.5208
 2071TIP3    H127628   5.467   6.863   4.505  1.3832  1.5937  2.2736
 2071TIP3    H227629   5.501   6.736   4.579 -0.1550 -0.9890 -1.1813
 2072TIP3   OH227630   2.479   3.441  15.181  0.1417 -0.2397  0.0279
 2072TIP3    H127631   2.434   3.368  15.138  0.3697  0.3938 -1.3693
 2072TIP3    H227632   2.550   3.464  15.120  1.9343 -0.7383  1.8219
 2073TIP3   OH227633   2.243   3.115  15.949  0.2590 -0.2339 -0.3211
 2073TIP3    H127634   2.306   3.046  15.971  0.4384  0.0326  0.0142
 2073TIP3    H227635   2.205   3.087  15.866  0.4155 -0.6785 -0.2478
 2074TIP3   OH227636   6.340   4.302   6.535  0.0536 -0.4529 -0.2716
 2074TIP3    H127637   6.367   4.319   6.445 -2.1675 -1.2317 -1.1758
 2074TIP3    H227638   6.255   4.258   6.526 -0.1735 -0.6649  2.2108
 2075TIP3   OH227639   0.021   5.444  12.065  0.1691  0.4058  0.2806
 2075TIP3    H127640  -0.048   5.394  12.109 -1.5565  0.7232 -1.8453
 2075TIP3    H227641   0.053   5.384  11.997 -0.1514  1.2948 -0.6743
 2076TIP3   OH227642   3.030   5.544  12.252 -0.3149 -0.0007  0.3055
 2076TIP3    H127643   3.119   5.570  12.274 -0.1173 -0.7082  0.3550
 2076TIP3    H227644   2.975   5.611  12.293  0.1500 -0.1197  1.1460
 2077TIP3   OH227645   4.991   5.638   5.368 -0.2786  0.8092  0.5382
 2077TIP3    H127646   5.028   5.550   5.364 -0.5286  0.4867  3.3309
 2077TIP3    H227647   5.008   5.675   5.281  0.2182 -1.8049 -0.5782
 2078TIP3   OH227648   2.392   4.363  11.710  0.2504 -0.5768  0.1753
 2078TIP3    H127649   2.464   4.417  11.677 -1.5358  1.4991 -0.5578
 2078TIP3    H227650   2.404   4.362  11.805  1.0971 -0.0462  0.0853
 2079TIP3   OH227651   5.738   6.746   3.647  0.3141  0.2438 -0.0267
 2079TIP3    H127652   5.785   6.668   3.620 -0.1952  0.4995 -1.7282
 2079TIP3    H227653   5.667   6.756   3.583 -1.6837  0.2550  2.0472
 2080TIP3   OH227654   0.785   6.368  15.506 -0.0089 -0.1727  0.5439
 2080TIP3    H127655   0.841   6.376  15.583  0.3084  0.5972  0.2382
 2080TIP3    H227656   0.702   6.408  15.532 -0.0049 -0.1908  0.5844
 2081TIP3   OH227657   0.535   2.762   5.946  0.3074 -0.1055 -0.0314
 2081TIP3    H127658   0.531   2.681   5.895  2.3016 -0.1031 -0.2774
 2081TIP3    H227659   0.458   2.759   6.003 -1.0097 -0.9699 -1.7422
 2082TIP3   OH227660   2.878   6.402   5.710  0.8240  0.2981  0.5253
 2082TIP3    H127661   2.927   6.381   5.630 -0.4356 -0.8470  0.0147
 2082TIP3    H227662   2.946   6.411   5.777  1.8478  0.4167 -0.4829
 2083TIP3   OH227663   3.840   1.416  14.685  0.2271 -0.4006  0.1802
 2083TIP3    H127664   3.863   1.432  14.593  1.6335 -0.1656  0.5522
 2083TIP3    H227665   3.771   1.480  14.704  1.8855  1.5269  0.0549
 2084TIP3   OH227666   6.141   1.938   0.224 -0.2793 -0.2961  0.5278
 2084TIP3    H127667   6.191   1.866   0.186 -1.5912 -1.4383  0.8455
 2084TIP3    H227668   6.071   1.894   0.273 -2.2209  1.2041 -0.7648
 2085TIP3   OH227669   2.312   3.771   0.748 -0.4285 -0.0154  1.1384
 2085TIP3    H127670   2.407   3.771   0.739 -0.6010  0.3342 -1.2183
 2085TIP3    H227671   2.284   3.692   0.703 -1.2451 -0.4283  2.3329
 2086TIP3   OH227672   1.468   1.314   6.365 -0.3008 -0.3381  0.3145
 2086TIP3    H127673   1.447   1.407   6.359  2.1363  0.2672 -0.0450
 2086TIP3    H227674   1.479   1.299   6.459  0.9736  0.2231  0.2892
 2087TIP3   OH227675   5.493   6.454   0.412 -0.0247 -0.1967 -0.5843
 2087TIP3    H127676   5.425   6.416   0.468  0.2613  1.3361  0.8909
 2087TIP3    H227677   5.573   6.407   0.437  0.8113  2.6483  2.9415
 2088TIP3   OH227678   3.557   1.724   0.791  0.2190 -0.5419  0.0545
 2088TIP3    H127679   3.559   1.797   0.853  1.0367 -0.9991  0.5874
 2088TIP3    H227680   3.495   1.661   0.828  0.6953 -0.8076  0.4045
 2089TIP3   OH227681   0.450   3.674  16.315 -0.5201  0.4379 -0.0417
 2089TIP3    H127682   0.530   3.627  16.338 -1.1002  0.1300  1.4754
 2089TIP3    H227683   0.394   3.609  16.273  0.5559  1.0073 -2.5064
 2090TIP3   OH227684   5.396   3.173   2.303 -0.1433  0.0204  0.4308
 2090TIP3    H127685   5.482   3.212   2.290 -0.6754  1.0156 -0.1958
 2090TIP3    H227686   5.336   3.247   2.312 -1.0731 -0.6374 -0.0856
 2091TIP3   OH227687   1.984   4.552  15.887 -0.3431 -0.2473 -0.3591
 2091TIP3    H127688   2.004   4.484  15.823 -0.7487  0.9625 -1.8475
 2091TIP3    H227689   1.894   4.579  15.866 -0.0996  0.9203 -0.0008
 2092TIP3   OH227690   5.625   1.074  12.587  0.2033 -0.1517  0.1578
 2092TIP3    H127691   5.707   1.106  12.549  1.6986 -3.7076 -0.0045
 2092TIP3    H227692   5.579   1.034  12.513 -1.3091  1.0415  0.4248
 2093TIP3   OH227693   1.447   0.856  13.012 -0.1661 -0.0474 -0.2482
 2093TIP3    H127694   1.385   0.915  12.971  0.5254  0.9381  0.1030
 2093TIP3    H227695   1.416   0.846  13.102  1.5299  2.5058  0.7246
 2094TIP3   OH227696   2.125   6.122  12.070 -0.1975 -0.1653 -1.0082
 2094TIP3    H127697   2.101   6.185  12.002  0.4233  0.1859 -0.9062
 2094TIP3    H227698   2.099   6.037  12.034  2.4753 -0.3373 -2.8949
 2095TIP3   OH227699   4.501   3.145  14.869  0.4363  0.3401 -0.6792
 2095TIP3    H127700   4.469   3.106  14.788  0.2797 -3.0304  0.8312
 2095TIP3    H227701   4.432   3.206  14.896 -0.7917 -0.5781 -1.6629
 2096TIP3   OH227702   1.778   4.602   5.000  0.2888  0.2027  0.2362
 2096TIP3    H127703   1.837   4.528   4.986  0.2496  0.6354 -2.9091
 2096TIP3    H227704   1.824   4.677   4.961 -1.1109  1.1243  0.2876
 2097TIP3   OH227705   5.450   3.510   2.066  0.3571 -0.2024  0.3191
 2097TIP3    H127706   5.526   3.559   2.035  0.1976  0.5002  1.0202
 2097TIP3    H227707   5.416   3.467   1.987  1.9048 -1.1395  0.1283
 2098TIP3   OH227708   5.867   5.285   3.004  0.2350  0.7124  0.3519
 2098TIP3    H127709   5.844   5.229   3.078 -2.2487  0.9531 -0.1462
 2098TIP3    H227710   5.918   5.228   2.946 -1.4802 -0.8528  0.2786
 2099TIP3   OH227711   0.066   5.498  13.768  0.3090 -0.4360  0.4496
 2099TIP3    H127712   0.001   5.435  13.800 -0.5290 -0.0703 -0.4916
 2099TIP3    H227713   0.030   5.530  13.686  1.5243  0.0491  0.0898
 2100TIP3   OH227714   4.662   1.615   1.651  0.0254 -0.2741  0.7233
 2100TIP3    H127715   4.740   1.579   1.693 -0.7111 -0.9219  1.5826
 2100TIP3    H227716   4.600   1.542   1.647 -1.0884  0.5795  1.4866
 2101TIP3   OH227717   3.218   5.040  15.521 -0.3030 -0.2742 -0.0837
 2101TIP3    H127718   3.238   4.948  15.503  0.1912 -0.0157 -0.8979
 2101TIP3    H227719   3.188   5.075  15.437 -0.3660  0.3405  0.1926
 2102TIP3   OH227720   4.833   5.797  11.560  0.2051  0.0044 -0.3772
 2102TIP3    H127721   4.871   5.883  11.571 -0.7144  0.4584 -0.6370
 2102TIP3    H227722   4.862   5.767  11.474  0.7624 -0.0745 -0.1631
 2103TIP3   OH227723   3.363   3.690  13.774  0.2380 -0.0018  0.0045
 2103TIP3    H127724   3.282   3.737  13.793  0.9646  1.1202  0.4786
 2103TIP3    H227725   3.430   3.738  13.823  1.1748 -0.9627 -0.2939
 2104TIP3   OH227726   5.481   4.001   5.232  0.3531 -0.5285  0.4040
 2104TIP3    H127727   5.395   3.985   5.270  0.8665 -0.4975  1.5948
 2104TIP3    H227728   5.484   4.096   5.218  0.3156 -0.4918  0.6495
 2105TIP3   OH227729   2.185   1.210  15.467  0.0448  0.5183  0.1368
 2105TIP3    H127730   2.238   1.280  15.430  0.1207  0.4062  0.0297
 2105TIP3    H227731   2.095   1.242  15.460 -0.2206 -0.4852 -2.4626
 2106TIP3   OH227732   6.609   1.187   0.222  0.2751  0.7185  0.5423
 2106TIP3    H127733   6.578   1.170   0.134  0.0800 -0.9366  0.8930
 2106TIP3    H227734   6.648   1.275   0.218  0.1594  0.7150 -1.1378
 2107TIP3   OH227735   5.480   1.959  15.998 -0.8207  0.1525 -0.4176
 2107TIP3    H127736   5.461   1.869  15.972  0.1013 -0.4297  0.8162
 2107TIP3    H227737   5.400   2.007  15.977 -0.5861 -0.4878 -3.0548
 2108TIP3   OH227738   5.905   4.946   4.394 -0.1521 -0.2527 -0.6797
 2108TIP3    H127739   5.982   5.002   4.404 -0.3701 -0.1319  0.5296
 2108TIP3    H227740   5.854   4.961   4.474 -1.2631 -0.5934 -1.3050
 2109TIP3   OH227741   3.075   1.426  11.073  0.0543 -0.3411  0.0767
 2109TIP3    H127742   3.046   1.505  11.117  0.0406  0.4612 -1.3203
 2109TIP3    H227743   2.996   1.388  11.036  0.3083  0.0172 -0.8509
 2110TIP3   OH227744   6.107   6.748  13.862  0.3071  0.1659 -0.6774
 2110TIP3    H127745   6.196   6.737  13.830 -0.0257  0.3600 -1.7290
 2110TIP3    H227746   6.072   6.822  13.812  0.0792  1.1904  0.9025
 2111TIP3   OH227747   3.227   2.052  14.167 -0.5290  0.2108 -0.1464
 2111TIP3    H127748   3.274   1.997  14.105 -1.6617  0.1414 -0.9716
 2111TIP3    H227749   3.136   2.024  14.160 -0.7401  0.4381  1.3081
 2112TIP3   OH227750   4.026   4.885   1.043  0.0946  0.6368  0.1802
 2112TIP3    H127751   4.121   4.892   1.038  0.2642 -1.5547 -1.5182
 2112TIP3    H227752   4.011   4.793   1.066 -1.6482  1.3766  2.3569
 2113TIP3   OH227753   1.947   5.628   5.149 -0.8845  0.5958  0.3191
 2113TIP3    H127754   1.855   5.607   5.131 -1.0395 -0.2069  1.8870
 2113TIP3    H227755   1.990   5.543   5.158 -0.0120  0.9649 -0.2359
 2114TIP3   OH227756   2.661   6.816   0.222  0.1142  0.4850 -0.4312
 2114TIP3    H127757   2.581   6.782   0.262 -0.2824  0.0523 -1.5613
 2114TIP3    H227758   2.709   6.738   0.195  0.5749  0.7618 -0.4128
 2115TIP3   OH227759   5.762   4.986   0.008 -1.0176  0.1450  0.6608
 2115TIP3    H127760   5.726   4.908   0.050  3.3056 -1.9767  0.9726
 2115TIP3    H227761   5.741   4.975  -0.084 -4.4712  1.2117  1.1776
 2116TIP3   OH227762   0.843   4.057  15.427 -0.1906  0.7456 -0.2103
 2116TIP3    H127763   0.835   4.144  15.467 -0.5194 -0.3764  2.3748
 2116TIP3    H227764   0.869   4.000  15.499 -0.7592 -1.4716 -1.6564
 2117TIP3   OH227765   4.000   6.597  13.384 -0.8993  0.6177  0.0815
 2117TIP3    H127766   4.085   6.612  13.426 -0.2621 -0.0956 -0.9139
 2117TIP3    H227767   3.969   6.514  13.420 -1.7697  1.4542  1.3480
 2118TIP3   OH227768   3.134   4.026  15.613  0.5886 -0.3059  0.4665
 2118TIP3    H127769   3.148   4.019  15.708 -2.4535  1.5857  1.1960
 2118TIP3    H227770   3.170   4.112  15.590 -0.8292  0.2993  0.4367
 2119TIP3   OH227771   5.087   2.193   4.650  0.6319  0.0546 -0.5742
 2119TIP3    H127772   5.055   2.151   4.570 -0.1515  1.1389 -0.8535
 2119TIP3    H227773   5.034   2.155   4.720  0.6046 -0.1395 -0.6994
 2120TIP3   OH227774   6.519   2.263   3.710 -0.0945  0.2076  0.2011
 2120TIP3    H127775   6.473   2.217   3.640  1.0725 -1.0229  0.2163
 2120TIP3    H227776   6.524   2.354   3.679 -2.7244  0.4587  0.3343
 2121TIP3   OH227777   0.568   3.129  17.070 -0.5699 -0.0757  0.1299
 2121TIP3    H127778   0.582   3.124  17.165 -1.6956  0.7648  0.3586
 2121TIP3    H227779   0.656   3.134  17.033 -0.1400  1.4615  1.2449
 2122TIP3   OH227780   6.105   0.133  14.939  0.8434 -0.6271 -0.1391
 2122TIP3    H127781   6.101   0.221  14.902  0.6357  0.1154  1.5780
 2122TIP3    H227782   6.016   0.115  14.968  0.9543 -1.2757 -0.1836
 2123TIP3   OH227783   4.911   0.922  17.025 -0.2823 -0.0326 -0.1352
 2123TIP3    H127784   4.881   1.002  16.980  2.9326  0.8426 -1.0271
 2123TIP3    H227785   4.907   0.944  17.118 -2.7429 -0.2052 -0.1339
 2124TIP3   OH227786   6.635   5.675  16.504 -0.1839  0.1217  0.0022
 2124TIP3    H127787   6.598   5.672  16.592 -1.9566 -0.4870 -0.7263
 2124TIP3    H227788   6.621   5.586  16.469 -0.5952  0.6698 -1.3057
 2125TIP3   OH227789   3.835   1.925  11.568  0.7216  0.4899  0.3730
 2125TIP3    H127790   3.870   2.005  11.607 -2.0731  1.8429  0.3993
 2125TIP3    H227791   3.746   1.949  11.543  1.0917 -1.4018 -3.4329
 2126TIP3   OH227792   2.881   5.535   4.170  0.2911 -0.0680  0.3099
 2126TIP3    H127793   2.867   5.599   4.100 -0.8787 -0.1204  0.4624
 2126TIP3    H227794   2.939   5.579   4.232  0.4296  0.4082 -0.1492
 2127TIP3   OH227795   1.914   2.055  13.157  0.5984 -0.0096 -0.1671
 2127TIP3    H127796   1.988   2.079  13.102  0.8808  0.1067  0.2607
 2127TIP3    H227797   1.952   2.007  13.230  0.2939  0.3718  0.2485
 2128TIP3   OH227798   5.806   4.539   1.350  0.3318  0.2459  0.0607
 2128TIP3    H127799   5.765   4.575   1.271 -0.0613  0.1404  0.2124
 2128TIP3    H227800   5.895   4.574   1.349  0.2058  0.5698 -0.2182
 2129TIP3   OH227801   4.373   5.148  16.431 -0.0399  0.0436  0.4032
 2129TIP3    H127802   4.378   5.226  16.486 -0.3513  0.6090 -0.3516
 2129TIP3    H227803   4.363   5.076  16.493 -1.3090  0.7493  1.0773
 2130TIP3   OH227804   6.468   2.527   2.233 -0.2532 -0.1784  0.1449
 2130TIP3    H127805   6.424   2.608   2.258  0.3563 -0.0596  0.8693
 2130TIP3    H227806   6.535   2.514   2.301  0.9320 -0.2709 -1.0077
 2131TIP3   OH227807   1.593   3.362  12.297  0.9304 -0.1298 -0.2768
 2131TIP3    H127808   1.583   3.453  12.268 -0.1539 -0.3301 -0.5832
 2131TIP3    H227809   1.620   3.369  12.388 -1.4556  0.5443  0.4553
 2132TIP3   OH227810   1.297   1.881   5.819  0.3994 -0.2946  0.2170
 2132TIP3    H127811   1.320   1.920   5.903 -0.3810  0.1045  0.2550
 2132TIP3    H227812   1.207   1.910   5.803  0.9747  0.7252 -1.3789
 2133TIP3   OH227813   2.424   0.482  11.958  0.2115  0.1653 -0.2558
 2133TIP3    H127814   2.368   0.555  11.932  0.0071  0.2113  0.2945
 2133TIP3    H227815   2.370   0.404  11.941  0.4050  0.1423 -0.7805
 2134TIP3   OH227816   4.765   5.735   1.209 -0.4918  0.0072  0.0563
 2134TIP3    H127817   4.710   5.793   1.262 -0.9631  0.1904 -0.6148
 2134TIP3    H227818   4.738   5.647   1.235 -0.1747  0.0880  0.6722
 2135TIP3   OH227819   4.027   1.266   2.381 -0.0863  0.1477  0.0416
 2135TIP3    H127820   4.096   1.301   2.438 -1.6689  1.2214  1.3902
 2135TIP3    H227821   3.971   1.215   2.440 -0.6076 -0.4708 -0.9700
 2136TIP3   OH227822   0.519   4.934  16.614  0.0430 -0.1709 -0.4096
 2136TIP3    H127823   0.437   4.943  16.662 -0.5536 -0.3240 -1.3703
 2136TIP3    H227824   0.576   5.003  16.649 -0.1092 -0.7166  0.9938
 2137TIP3   OH227825   2.068   3.779   4.965 -0.0128 -0.2713 -0.0360
 2137TIP3    H127826   2.049   3.873   4.974 -0.3460 -0.3561  0.1471
 2137TIP3    H227827   2.155   3.777   4.925 -0.2709  0.1243 -0.6516
 2138TIP3   OH227828   6.562   1.087   0.835 -0.1202 -0.8608  0.1943
 2138TIP3    H127829   6.504   1.137   0.893  0.3401 -1.1874  0.9484
 2138TIP3    H227830   6.540   0.996   0.852 -0.7720 -0.9459 -0.9851
 2139TIP3   OH227831   6.817   6.744  14.170  0.3561 -0.0903 -0.7630
 2139TIP3    H127832   6.830   6.654  14.141  0.6863 -0.9437  1.8094
 2139TIP3    H227833   6.722   6.755  14.172  0.2781 -0.8655  0.2315
 2140TIP3   OH227834   6.805   3.769  11.994 -0.6799  0.0942  0.3415
 2140TIP3    H127835   6.741   3.839  12.006  0.6299  1.4753 -0.4184
 2140TIP3    H227836   6.798   3.747  11.901 -0.2095  0.0870  0.3083
 2141TIP3   OH227837   0.646   2.328  11.749 -0.3324  0.4521 -0.2348
 2141TIP3    H127838   0.567   2.283  11.719 -0.3739 -1.4030  2.2915
 2141TIP3    H227839   0.625   2.421  11.741 -2.2361  0.0103 -0.9129
 2142TIP3   OH227840   2.396   2.560   4.348  0.8924 -0.4340 -0.4490
 2142TIP3    H127841   2.446   2.505   4.407  1.2996  0.6710  0.2733
 2142TIP3    H227842   2.304   2.539   4.367  0.9761  0.6688  1.3893
 2143TIP3   OH227843   2.386   4.834  16.127  0.6558  0.0566  0.0691
 2143TIP3    H127844   2.367   4.770  16.194  0.5950  0.3326  0.3180
 2143TIP3    H227845   2.380   4.919  16.172 -0.7460  0.3329 -0.5811
 2144TIP3   OH227846   6.275   2.145   0.474  0.2044 -0.2675 -0.0547
 2144TIP3    H127847   6.188   2.108   0.462  0.5729 -1.4699  0.7635
 2144TIP3    H227848   6.332   2.069   0.487  1.8359  0.2829 -3.0270
 2145TIP3   OH227849   5.162   0.516   4.865 -0.7765 -0.2214  0.1936
 2145TIP3    H127850   5.133   0.545   4.778 -2.0856  1.2250  1.0767
 2145TIP3    H227851   5.090   0.463   4.898 -0.0381 -1.2535  0.1984
 2146TIP3   OH227852   5.536   1.456  15.354 -0.0425 -0.0028 -0.0163
 2146TIP3    H127853   5.480   1.379  15.342 -0.4785  0.4815 -1.1988
 2146TIP3    H227854   5.501   1.521  15.294  1.3655  0.5500 -0.2806
 2147TIP3   OH227855   3.129   3.563   4.446 -0.0821 -0.3971  0.3343
 2147TIP3    H127856   3.135   3.575   4.351 -1.0667  0.8872  0.4136
 2147TIP3    H227857   3.206   3.608   4.481  1.3967 -2.5507  0.0795
 2148TIP3   OH227858   5.307   2.562   5.805 -0.3935 -0.3252 -0.6668
 2148TIP3    H127859   5.279   2.568   5.896 -0.4073 -0.5091 -0.6573
 2148TIP3    H227860   5.245   2.616   5.756 -0.2707 -0.0718 -0.5424
 2149TIP3   OH227861   5.292   6.157   2.273  0.0897 -0.2394 -0.0759
 2149TIP3    H127862   5.221   6.222   2.268  1.5614  1.5263  0.6939
 2149TIP3    H227863   5.256   6.086   2.325 -0.9699  0.8643  0.7693
 2150TIP3   OH227864   0.934   3.863  10.350 -0.3990  0.1045 -0.2203
 2150TIP3    H127865   0.876   3.788  10.340 -2.3138  0.9200  3.0685
 2150TIP3    H227866   0.879   3.930  10.391  2.8023  0.8729  3.4238
 2151TIP3   OH227867   0.528   3.062   4.739  0.0229 -0.0979 -0.6561
 2151TIP3    H127868   0.449   3.007   4.744  0.1553 -0.2011  1.7663
 2151TIP3    H227869   0.516   3.114   4.660 -1.0286 -2.2151 -1.9945
 2152TIP3   OH227870   1.609   4.807   1.723  0.1439  0.2025  0.2640
 2152TIP3    H127871   1.525   4.763   1.710 -0.0547  0.9468 -1.1215
 2152TIP3    H227872   1.623   4.856   1.642  1.0819  1.4770  1.1744
 2153TIP3   OH227873   3.496   2.996  16.743 -0.2790  0.2108 -0.0722
 2153TIP3    H127874   3.556   3.042  16.685  0.7885  0.8673  1.4861
 2153TIP3    H227875   3.483   2.911  16.702  0.6709  0.5449 -1.1058
 2154TIP3   OH227876   5.426   2.010  14.012  0.5070  0.3415  0.2881
 2154TIP3    H127877   5.395   1.994  13.923 -0.3278  2.4333  0.1540
 2154TIP3    H227878   5.465   1.926  14.039  1.8413 -0.0396 -2.4289
 2155TIP3   OH227879   6.763   6.509  15.540  0.8007  0.5828  0.4495
 2155TIP3    H127880   6.696   6.458  15.494 -0.0761  0.1912  2.0760
 2155TIP3    H227881   6.717   6.587  15.571  1.4915  1.0796  0.2382
 2156TIP3   OH227882   0.993   0.431  15.455 -0.3846 -0.7830  0.5199
 2156TIP3    H127883   0.993   0.487  15.378 -2.0251 -0.8661  0.4210
 2156TIP3    H227884   0.904   0.395  15.459  0.3695 -2.7624  1.0224
 2157TIP3   OH227885   0.278   1.102  13.541 -0.4450  0.1474  0.1106
 2157TIP3    H127886   0.272   1.109  13.446  1.1058 -1.3360 -0.1376
 2157TIP3    H227887   0.206   1.157  13.574 -0.6619  1.1294 -1.8818
 2158TIP3   OH227888   2.409   4.024  15.015 -0.3191  0.2171  0.2933
 2158TIP3    H127889   2.475   4.011  14.947  0.5675  0.5176  1.0718
 2158TIP3    H227890   2.387   3.936  15.045 -0.5492  0.0958 -0.2228
 2159TIP3   OH227891   5.284   6.422   4.980  0.0076 -1.0066  0.1166
 2159TIP3    H127892   5.276   6.467   4.896 -0.2426 -1.9379 -0.3758
 2159TIP3    H227893   5.357   6.465   5.023  1.2895 -1.6416 -1.3201
 2160TIP3   OH227894   3.250   0.299  12.597  0.8557  0.4691 -0.0751
 2160TIP3    H127895   3.188   0.227  12.608 -1.5281  2.0611 -1.9021
 2160TIP3    H227896   3.202   0.377  12.624  2.6245  1.6376 -0.1041
 2161TIP3   OH227897   6.633   5.636  11.454  0.0441 -0.2348  0.1852
 2161TIP3    H127898   6.561   5.698  11.436 -0.3927 -0.6416  0.5266
 2161TIP3    H227899   6.700   5.689  11.497 -0.3170  0.0105  0.4512
 2162TIP3   OH227900   1.480   5.857  13.916 -0.4221 -0.2504  0.1288
 2162TIP3    H127901   1.551   5.915  13.887 -0.3977 -1.1212 -1.6772
 2162TIP3    H227902   1.517   5.808  13.989  0.3037  0.4225  0.2223
 2163TIP3   OH227903   0.580   6.567   1.827  0.2329  0.1589  0.3255
 2163TIP3    H127904   0.629   6.646   1.802 -0.4528  0.3086 -0.5864
 2163TIP3    H227905   0.546   6.587   1.914 -2.5549  2.1902 -1.0944
 2164TIP3   OH227906   5.119   2.418   3.108  0.2247  0.0996  0.0807
 2164TIP3    H127907   5.174   2.371   3.045 -0.6005  0.8289 -1.2470
 2164TIP3    H227908   5.082   2.350   3.164 -0.3061 -0.7892 -1.2925
 2165TIP3   OH227909   4.155   1.970   5.462  0.5381 -0.2744  1.0530
 2165TIP3    H127910   4.239   1.951   5.419  0.1896  1.2794 -0.4413
 2165TIP3    H227911   4.177   1.978   5.555  1.7147 -1.6585  0.9326
 2166TIP3   OH227912   5.889   6.602   3.378  0.4299  0.4076  0.1009
 2166TIP3    H127913   5.910   6.538   3.446 -2.3015  0.7013  1.3360
 2166TIP3    H227914   5.958   6.668   3.385  2.4001 -1.5266 -0.1251
 2167TIP3   OH227915   3.712   1.984   1.830  0.3790 -0.1136 -0.0164
 2167TIP3    H127916   3.786   1.926   1.809  0.0154 -0.3469 -0.7009
 2167TIP3    H227917   3.744   2.072   1.811  0.7101 -0.1466  0.3743
 2168TIP3   OH227918   2.151   1.846   1.556  0.0408  0.9768  0.0419
 2168TIP3    H127919   2.128   1.866   1.465 -0.2592 -2.5458 -0.8029
 2168TIP3    H227920   2.073   1.803   1.591  0.0529  2.5068  2.1271
 2169TIP3   OH227921   2.019   3.167   5.101  0.3287 -0.0040 -0.3769
 2169TIP3    H127922   2.008   3.072   5.087 -0.2384  0.0155 -0.0702
 2169TIP3    H227923   1.971   3.207   5.029  0.2041  0.0594 -0.2569
 2170TIP3   OH227924   4.877   4.906   2.962  0.2028 -0.0212  0.4653
 2170TIP3    H127925   4.969   4.880   2.968  0.2718  0.0140 -0.3311
 2170TIP3    H227926   4.879   5.001   2.959  0.1021 -0.0005  1.0009
 2171TIP3   OH227927   5.673   6.369   5.742  0.2431 -0.2718  0.3470
 2171TIP3    H127928   5.677   6.408   5.829  1.5594  2.5271 -0.8463
 2171TIP3    H227929   5.583   6.338   5.734 -0.3234  0.7131  2.1659
 2172TIP3   OH227930   0.665   1.885   4.264  0.0256 -0.0926 -0.1253
 2172TIP3    H127931   0.644   1.929   4.182 -1.5302 -0.7754 -0.1206
 2172TIP3    H227932   0.627   1.798   4.255 -0.4164 -0.0834  1.4335
 2173TIP3   OH227933   2.791   5.321  15.642  0.1714  0.0658 -0.2186
 2173TIP3    H127934   2.845   5.394  15.674  2.3987 -1.7073  0.3303
 2173TIP3    H227935   2.750   5.286  15.722  1.6393 -1.1773  0.0385
 2174TIP3   OH227936   2.194   1.773  16.240  0.1002  0.2619 -0.2576
 2174TIP3    H127937   2.283   1.740  16.248  0.1372  0.3379 -0.3525
 2174TIP3    H227938   2.195   1.857  16.285  0.3370  0.7454 -1.1364
 2175TIP3   OH227939   2.644   1.767  17.091 -0.2775 -0.3502  0.2770
 2175TIP3    H127940   2.577   1.827  17.126 -1.3211 -0.3671 -1.5187
 2175TIP3    H227941   2.671   1.809  17.009  1.8268 -0.4526  0.8868
 2176TIP3   OH227942   4.778   6.608  16.112 -0.0054 -0.9352  0.3233
 2176TIP3    H127943   4.836   6.580  16.042 -2.1276  1.1129 -2.4602
 2176TIP3    H227944   4.708   6.543  16.113 -0.3277 -0.5909  0.0775
 2177TIP3   OH227945   2.772   4.598   4.501 -0.0500 -0.2046 -0.2412
 2177TIP3    H127946   2.849   4.627   4.453 -0.1865 -0.2754 -0.5043
 2177TIP3    H227947   2.800   4.597   4.593 -0.3256  1.6908 -0.1021
 2178TIP3   OH227948   3.763   0.528  16.567  0.0498 -1.0514  0.2556
 2178TIP3    H127949   3.800   0.477  16.638 -0.4611  0.2026  1.4782
 2178TIP3    H227950   3.832   0.590  16.543  0.5144 -1.9840 -0.9297
 2179TIP3   OH227951   5.377   6.106  16.523  1.0148 -0.1817 -0.0735
 2179TIP3    H127952   5.435   6.112  16.599  0.6890 -1.3979  0.2838
 2179TIP3    H227953   5.359   6.198  16.501 -0.0623  0.2437  2.2157
 2180TIP3   OH227954   5.527   2.718  16.902  0.0107  0.0869 -0.0716
 2180TIP3    H127955   5.581   2.694  16.827  0.8467  0.7047  0.3208
 2180TIP3    H227956   5.458   2.652  16.903  0.8332 -0.8169 -0.5026
 2181TIP3   OH227957   0.719   0.827  12.105 -0.3513  0.6552 -0.3912
 2181TIP3    H127958   0.721   0.854  12.197 -1.8897  1.5722 -0.5961
 2181TIP3    H227959   0.763   0.899  12.059 -0.7025  0.8044 -0.4966
 2182TIP3   OH227960   3.595   2.203   2.555 -0.3613  0.1054  0.2427
 2182TIP3    H127961   3.536   2.229   2.627  0.6837 -0.9120  1.5234
 2182TIP3    H227962   3.645   2.282   2.536 -0.9146  0.4942  0.3563
 2183TIP3   OH227963   4.262   5.014  13.540  0.3262  0.3328 -0.1552
 2183TIP3    H127964   4.225   5.097  13.571  0.4573  0.1454  0.5298
 2183TIP3    H227965   4.313   4.981  13.614  0.5058 -0.2236 -0.5163
 2184TIP3   OH227966   0.455   3.408   5.481 -0.2838 -0.3292  0.0601
 2184TIP3    H127967   0.523   3.341   5.472 -1.1764 -1.4112  1.0645
 2184TIP3    H227968   0.496   3.477   5.533 -0.2519 -1.4785  1.6307
 2185TIP3   OH227969   1.961   1.145   0.417 -0.2722  0.9433  0.1199
 2185TIP3    H127970   2.050   1.121   0.394 -1.5447 -1.7664 -2.7656
 2185TIP3    H227971   1.942   1.221   0.362  0.2796  1.6677  0.9086
 2186TIP3   OH227972   0.504   6.595  14.490 -0.0500 -0.1457  0.6864
 2186TIP3    H127973   0.469   6.595  14.579  2.3444  2.5314  1.8086
 2186TIP3    H227974   0.457   6.665  14.445 -0.3207 -0.6065  0.2329
 2187TIP3   OH227975   6.637   3.098  11.424  0.5365 -0.2399  0.3908
 2187TIP3    H127976   6.654   3.117  11.516  2.1599 -2.4896  0.6339
 2187TIP3    H227977   6.718   3.122  11.379  0.0422  0.0981 -0.3373
 2188TIP3   OH227978   5.197   5.178  16.111  0.0737  0.7382 -0.2607
 2188TIP3    H127979   5.195   5.189  16.016 -1.9401  0.8424 -0.2419
 2188TIP3    H227980   5.278   5.221  16.138  1.0011  0.1611 -1.9712
 2189TIP3   OH227981   2.721   3.272   4.832 -0.5252  0.5475  0.0542
 2189TIP3    H127982   2.677   3.203   4.881  0.0649  0.6832  0.7835
 2189TIP3    H227983   2.784   3.309   4.894 -0.5915  1.5020 -0.4431
 2190TIP3   OH227984   5.736   1.116   2.100  0.1906  0.3726 -0.1251
 2190TIP3    H127985   5.751   1.197   2.147  0.0411 -1.2393  2.9445
 2190TIP3    H227986   5.689   1.142   2.021 -0.8813  3.1497  1.3042
 2191TIP3   OH227987   3.599   0.396  14.031 -0.1586  0.0224 -0.1974
 2191TIP3    H127988   3.569   0.323  14.084  0.4482  0.5055  0.8512
 2191TIP3    H227989   3.568   0.377  13.942 -0.8046 -1.0250  0.2447
 2192TIP3   OH227990   6.551   5.396   4.495  0.6094  0.0444  0.2944
 2192TIP3    H127991   6.599   5.392   4.413  1.0328  1.4912  0.4471
 2192TIP3    H227992   6.598   5.460   4.548  0.2150 -0.6844  1.5927
 2193TIP3   OH227993   5.483   4.074  10.929  0.4467  0.2236 -0.0764
 2193TIP3    H127994   5.468   4.122  10.848  0.6009  0.6436  0.1406
 2193TIP3    H227995   5.399   4.030  10.947  0.5213 -0.1699 -0.6494
 2194TIP3   OH227996   1.918   3.750   5.675  0.0843 -0.3948 -0.7491
 2194TIP3    H127997   1.961   3.711   5.599 -0.1703 -2.9761  0.3417
 2194TIP3    H227998   1.843   3.797   5.638  1.6931  1.1151 -2.3223
 2195TIP3   OH227999   5.658   1.377   3.850 -0.0835 -0.5877 -0.2802
 2195TIP3    H128000   5.589   1.334   3.799  1.3660 -2.0611 -1.1106
 2195TIP3    H228001   5.651   1.337   3.937  1.0220 -2.3505 -0.9447
 2196TIP3   OH228002   5.287   4.948  12.658 -0.2840 -0.5295 -0.2707
 2196TIP3    H128003   5.233   4.872  12.681  1.2506 -1.4233  0.6056
 2196TIP3    H228004   5.341   4.963  12.736 -0.9851  1.9024 -0.1872
 2197TIP3   OH228005   3.295   3.748  16.866  0.4310  0.6455 -0.4717
 2197TIP3    H128006   3.339   3.690  16.804 -2.1343 -1.1332 -0.7923
 2197TIP3    H228007   3.211   3.705  16.883  1.1459  0.7278  4.6717
 2198TIP3   OH228008   6.345   3.880  15.834 -0.0324 -0.1821  0.1523
 2198TIP3    H128009   6.410   3.810  15.829 -2.0728 -2.1862 -0.0856
 2198TIP3    H228010   6.280   3.847  15.896 -0.9613  1.6249  0.2016
 2199TIP3   OH228011   1.488   6.476  13.047  0.0460  0.0226 -0.3510
 2199TIP3    H128012   1.431   6.530  12.991  0.8573 -0.4830 -1.7139
 2199TIP3    H228013   1.430   6.442  13.115 -1.1459  0.0951 -1.2991
 2200TIP3   OH228014   6.181   5.810   4.880  0.1080  0.3075  0.6033
 2200TIP3    H128015   6.085   5.811   4.883  0.0945  1.8997  0.3055
 2200TIP3    H228016   6.202   5.799   4.787  0.1964  0.6307  0.5826
 2201TIP3   OH228017   2.854   5.405   5.390 -0.1884 -0.6683 -0.4733
 2201TIP3    H128018   2.801   5.410   5.469  0.0572 -0.1605 -0.3354
 2201TIP3    H228019   2.920   5.339   5.410 -0.1963 -0.6227 -0.2946
 2202TIP3   OH228020   6.206   5.802  16.444  0.3428  0.4042 -0.4786
 2202TIP3    H128021   6.257   5.880  16.466 -0.3432  0.1696  2.2834
 2202TIP3    H228022   6.116   5.825  16.467  0.2570 -1.4548  1.3679
 2203TIP3   OH228023   5.787   4.689  14.897 -0.2601  0.0772  0.4614
 2203TIP3    H128024   5.867   4.738  14.915 -0.2212  0.1910  0.0070
 2203TIP3    H228025   5.716   4.749  14.920 -0.2325 -0.3457  1.7265
 2204TIP3   OH228026   3.348   3.419  16.951  0.8245  0.4657 -0.2442
 2204TIP3    H128027   3.291   3.479  16.998  0.6732 -0.4938  0.8200
 2204TIP3    H228028   3.432   3.424  16.997  0.6601 -0.5212  0.1765
 2205TIP3   OH228029   1.039   2.895   3.112  0.3707  0.2571  0.1894
 2205TIP3    H128030   0.949   2.915   3.138 -0.8962 -2.4433 -1.7119
 2205TIP3    H228031   1.054   2.806   3.143  1.7826  0.0421 -1.0043
 2206TIP3   OH228032   5.828   1.582   1.262 -0.3278 -0.4258  0.4473
 2206TIP3    H128033   5.823   1.503   1.315 -1.1402 -0.6901 -0.0049
 2206TIP3    H228034   5.922   1.602   1.258  0.0428 -2.1497 -0.5520
 2207TIP3   OH228035   1.348   2.126  10.581 -0.1309  0.2480 -0.6791
 2207TIP3    H128036   1.328   2.213  10.615 -0.0201 -0.1283  0.3899
 2207TIP3    H228037   1.430   2.137  10.532  0.4826  0.5491  0.3752
 2208TIP3   OH228038   2.458   6.496  11.439 -0.0558  0.2068 -0.9906
 2208TIP3    H128039   2.401   6.527  11.510 -1.4351 -2.2901 -0.8874
 2208TIP3    H228040   2.533   6.458  11.484  0.1740  0.6407 -0.9971
 2209TIP3   OH228041   1.039   4.849  12.493 -0.4811 -0.8008 -0.5704
 2209TIP3    H128042   1.008   4.933  12.527  1.6548 -0.7846  1.5944
 2209TIP3    H228043   1.074   4.869  12.407  0.6239  0.7070  0.1907
 2210TIP3   OH228044   4.836   4.403  11.149  0.0507  0.2501 -0.5036
 2210TIP3    H128045   4.827   4.364  11.236 -1.1730  1.5340 -0.0172
 2210TIP3    H228046   4.855   4.495  11.166 -0.9207  0.6669 -1.5919
 2211TIP3   OH228047   2.433   5.386   4.352 -0.0871 -0.6817 -0.5738
 2211TIP3    H128048   2.508   5.379   4.294  0.3357 -2.2572  0.1183
 2211TIP3    H228049   2.469   5.374   4.440 -0.5263  2.7780  0.2385
 2212TIP3   OH228050   5.093   4.230   5.399  0.8012  0.1432 -0.5880
 2212TIP3    H128051   5.126   4.247   5.487 -0.7866 -0.5529  0.1811
 2212TIP3    H228052   4.999   4.248   5.404  0.3944 -1.4145 -1.7088
 2213TIP3   OH228053   4.146   6.556  13.820 -0.3299  0.3909  0.4918
 2213TIP3    H128054   4.142   6.488  13.887 -1.5580 -0.4807 -0.4250
 2213TIP3    H228055   4.172   6.510  13.740 -1.9490  0.8066 -0.3215
 2214TIP3   OH228056   3.081   0.902   3.359  0.2020 -0.0287  0.0931
 2214TIP3    H128057   3.040   0.827   3.402 -0.4562  0.2386 -0.0533
 2214TIP3    H228058   3.009   0.947   3.316  0.4033  1.2828  1.0417
 2215TIP3   OH228059   1.569   3.887   5.984  0.1112 -0.1838 -0.1863
 2215TIP3    H128060   1.504   3.844   6.040  2.2104 -1.3408  1.5423
 2215TIP3    H228061   1.646   3.829   5.988  1.3468  1.2044 -1.9537
 2216TIP3   OH228062   3.199   0.647  15.325 -0.0357  0.5584  0.5842
 2216TIP3    H128063   3.159   0.730  15.349  0.6405  0.5049  2.0391
 2216TIP3    H228064   3.267   0.671  15.262  0.6111  1.2458  1.4905
 2217TIP3   OH228065   2.237   6.579   2.547  0.5613  0.1087  0.1772
 2217TIP3    H128066   2.189   6.566   2.629  1.2160  0.7330  0.6706
 2217TIP3    H228067   2.249   6.674   2.541 -0.4634  0.1899 -1.2254
 2218TIP3   OH228068   5.576   1.591  11.839 -0.1906 -0.8768 -0.0331
 2218TIP3    H128069   5.520   1.517  11.815 -0.2487 -0.1977 -2.1540
 2218TIP3    H228070   5.659   1.551  11.866 -0.6460 -1.7494  0.0972
 2219TIP3   OH228071   0.340   5.574   5.721 -0.1620 -0.2816  0.0086
 2219TIP3    H128072   0.365   5.657   5.682 -2.3278 -0.1515 -1.2254
 2219TIP3    H228073   0.308   5.597   5.809  1.3379 -0.1404  0.5527
 2220TIP3   OH228074   0.143   6.781  15.244 -0.1481 -0.5101 -0.0247
 2220TIP3    H128075   0.188   6.865  15.247 -1.4404  0.2503 -1.1767
 2220TIP3    H228076   0.208   6.718  15.275  0.7417  0.9330  1.1652
 2221TIP3   OH228077   3.824   4.476  12.773  0.2718 -0.0387 -0.0790
 2221TIP3    H128078   3.762   4.527  12.721  0.9083  0.4305 -0.3862
 2221TIP3    H228079   3.908   4.487  12.728  0.6697 -0.2956  0.5884
 2222TIP3   OH228080   6.327   4.456   5.103  0.0574  0.0252 -0.1974
 2222TIP3    H128081   6.333   4.362   5.085 -1.6263  0.2257 -2.3293
 2222TIP3    H228082   6.402   4.476   5.159 -0.6960 -2.9500  2.1198
 2223TIP3   OH228083   0.861   6.440   3.070  0.0506  0.1618  0.0425
 2223TIP3    H128084   0.838   6.463   3.160  0.3375  0.2799  0.0854
 2223TIP3    H228085   0.891   6.522   3.031  2.2825 -0.3257  0.5699
 2224TIP3   OH228086   5.161   1.062   3.613 -0.2215 -0.2863 -0.1329
 2224TIP3    H128087   5.202   0.975   3.614 -0.9111 -0.6577 -1.2405
 2224TIP3    H228088   5.071   1.044   3.586 -0.6786  0.6668  0.7443
 2225TIP3   OH228089   1.488   5.855  14.389  0.4891  0.2365  0.0859
 2225TIP3    H128090   1.571   5.808  14.395  0.0194 -0.6895 -0.4142
 2225TIP3    H228091   1.475   5.869  14.296 -1.5491 -2.7458 -0.2295
 2226TIP3   OH228092   2.007   2.259   5.740 -0.4184 -0.6732  0.1063
 2226TIP3    H128093   2.055   2.326   5.788  3.4256 -2.5970 -0.6782
 2226TIP3    H228094   1.969   2.203   5.807  0.9112 -0.6897  0.8738
 2227TIP3   OH228095   0.902   4.547   5.410  0.1626  0.1851  0.4789
 2227TIP3    H128096   0.900   4.457   5.377  0.4932  0.8149 -1.4097
 2227TIP3    H228097   0.995   4.563   5.430  0.1197  0.1361  0.7163
 2228TIP3   OH228098   6.787   6.167   0.873  0.0384 -0.0550 -0.3094
 2228TIP3    H128099   6.759   6.078   0.894 -1.0026 -0.0591 -1.6170
 2228TIP3    H228100   6.858   6.185   0.935 -0.2885 -1.4800  0.5171
 2229TIP3   OH228101   4.031   1.163   1.071  0.0869  0.0630 -0.6266
 2229TIP3    H128102   4.020   1.126   0.984  0.5598  0.1275 -0.7158
 2229TIP3    H228103   4.064   1.252   1.056 -1.2206  0.6078 -0.4238
 2230TIP3   OH228104   6.121   2.446   2.520 -0.4950  0.2874 -0.3655
 2230TIP3    H128105   6.155   2.477   2.604  0.0014  1.6738 -1.0385
 2230TIP3    H228106   6.079   2.363   2.540 -0.8624  0.8447  1.3566
 2231TIP3   OH228107   2.813   5.086   3.922  0.3832 -0.0813 -0.2602
 2231TIP3    H128108   2.782   5.151   3.858  0.8877  0.6230  0.2009
 2231TIP3    H228109   2.806   5.130   4.006  0.0140 -0.9028  0.1468
 2232TIP3   OH228110   5.762   4.584   4.481  0.3567  0.3385 -0.5147
 2232TIP3    H128111   5.795   4.528   4.411  1.8355 -1.6152  1.6246
 2232TIP3    H228112   5.839   4.607   4.533 -0.7198  1.5536  0.6372
 2233TIP3   OH228113   3.411   4.768  16.843  0.1832 -0.0908  0.7771
 2233TIP3    H128114   3.379   4.704  16.779  0.9039  0.8293 -0.5516
 2233TIP3    H228115   3.502   4.741  16.860 -0.0181 -0.3556  1.4552
 2234TIP3   OH228116   4.739   4.781  16.714  0.0347 -0.1367  0.3263
 2234TIP3    H128117   4.752   4.875  16.703 -1.5096  0.0622 -0.0545
 2234TIP3    H228118   4.667   4.774  16.777  0.6598 -1.0929  0.9563
 2235TIP3   OH228119   4.374   3.702  10.996 -0.2300 -0.7454 -0.1511
 2235TIP3    H128120   4.376   3.616  11.039 -0.5686 -0.6360  0.0898
 2235TIP3    H228121   4.318   3.690  10.920 -0.8628 -0.5681  0.2729
 2236TIP3   OH228122   6.315   6.231  11.738 -0.2087  1.0688 -0.2753
 2236TIP3    H128123   6.395   6.251  11.690 -0.2721 -0.1289 -0.9484
 2236TIP3    H228124   6.248   6.222  11.669 -0.8776  1.8593  0.2595
 2237TIP3   OH228125   5.891   0.509  15.371  0.4946  0.0192  0.1279
 2237TIP3    H128126   5.902   0.462  15.454  0.3151 -0.4896 -0.1327
 2237TIP3    H228127   5.954   0.468  15.311  0.6817  0.4400  0.0306
 2238TIP3   OH228128   1.357   3.783   2.846 -0.3447 -1.0942 -0.4244
 2238TIP3    H128129   1.269   3.819   2.837  0.5888  1.7239  0.6048
 2238TIP3    H228130   1.404   3.814   2.769  0.5133  0.1240  0.5444
 2239TIP3   OH228131   4.086   6.153  14.073 -0.2358 -0.2811 -0.3722
 2239TIP3    H128132   3.997   6.186  14.062  0.2041  1.0411 -0.0655
 2239TIP3    H228133   4.080   6.092  14.147 -0.6254  0.9490  0.6563
 2240TIP3   OH228134   4.520   6.084   3.331 -0.2875 -0.2720  0.2994
 2240TIP3    H128135   4.579   6.144   3.376 -1.1701  0.4223  0.5691
 2240TIP3    H228136   4.540   5.998   3.368  1.8607 -0.3862 -0.9900
 2241TIP3   OH228137   6.206   3.654  11.748 -0.2069  0.5465 -0.3686
 2241TIP3    H128138   6.137   3.720  11.741 -0.3137  0.2920 -2.4269
 2241TIP3    H228139   6.269   3.678  11.680  0.4713 -0.6474 -0.1914
 2242TIP3   OH228140   3.726   1.467   5.362  0.3156  0.4596  0.1968
 2242TIP3    H128141   3.794   1.402   5.340  0.5085 -0.1285  2.3680
 2242TIP3    H228142   3.647   1.434   5.319  0.3734 -1.3612  1.3822
 2243TIP3   OH228143   2.168   0.584   5.637  0.0394  0.3883 -0.3743
 2243TIP3    H128144   2.130   0.506   5.678 -0.6984  0.1720 -1.4283
 2243TIP3    H228145   2.161   0.568   5.543  1.7259  0.8583 -0.6052
 2244TIP3   OH228146   5.224   2.862  10.942  0.6479  0.1136 -0.1460
 2244TIP3    H128147   5.181   2.811  11.011  0.8643 -2.6539 -1.9146
 2244TIP3    H228148   5.152   2.899  10.891  0.4165 -0.3503 -0.1651
 2245TIP3   OH228149   1.074   3.013  12.166 -0.1360  0.4115 -0.6327
 2245TIP3    H128150   1.052   2.932  12.213  0.3678  0.0044 -1.0924
 2245TIP3    H228151   1.167   3.004  12.144 -0.5629  0.2073 -2.4720
 2246TIP3   OH228152   2.746   2.526   6.491  0.0003 -0.0897 -0.2741
 2246TIP3    H128153   2.825   2.568   6.455 -0.4093 -0.5887 -1.8426
 2246TIP3    H228154   2.675   2.583   6.463 -0.2894 -0.1351  0.3533
 2247TIP3   OH228155   3.039   4.619   1.644 -0.4336  0.0262  0.0474
 2247TIP3    H128156   3.019   4.703   1.604 -1.0796  0.3217  0.9559
 2247TIP3    H228157   3.055   4.639   1.736  1.1582 -0.6187 -0.0494
 2248TIP3   OH228158   3.301   2.410  16.679  0.0545 -0.2056  0.4897
 2248TIP3    H128159   3.354   2.441  16.752  0.4968 -0.0733  0.1185
 2248TIP3    H228160   3.362   2.359  16.625 -0.2825 -0.3578  0.2479
 2249TIP3   OH228161   0.186   3.563  11.013  0.4030  0.3014 -0.4729
 2249TIP3    H128162   0.184   3.651  11.052  0.8480  0.3037 -0.4511
 2249TIP3    H228163   0.239   3.574  10.934 -0.1081  0.1959 -0.8341
 2250TIP3   OH228164   1.646   4.374   1.926  0.4672  0.0588  0.5216
 2250TIP3    H128165   1.654   4.342   1.837 -0.2407  0.8480  0.1674
 2250TIP3    H228166   1.556   4.353   1.952  0.8183 -0.6385  1.2511
 2251TIP3   OH228167   0.815   5.203  15.271 -0.7811  0.4893  0.0045
 2251TIP3    H128168   0.784   5.117  15.243 -1.3218  0.5030  0.5489
 2251TIP3    H228169   0.905   5.208  15.238 -0.9510 -0.0319 -0.5613
 2252TIP3   OH228170   1.050   3.647  11.589  0.1044  0.1139 -0.0472
 2252TIP3    H128171   0.972   3.692  11.558  0.5851  0.2770 -1.0702
 2252TIP3    H228172   1.022   3.557  11.606 -0.1227 -0.0631 -1.2721
 2253TIP3   OH228173   1.909   0.218   2.340  0.5429  0.5843 -0.1885
 2253TIP3    H128174   1.956   0.291   2.382  0.3172  0.0683  0.9898
 2253TIP3    H228175   1.974   0.149   2.333  0.6289  0.7292 -0.8781
 2254TIP3   OH228176   4.420   0.392   1.183 -0.5657 -0.5347  0.1832
 2254TIP3    H128177   4.386   0.322   1.239 -0.9988 -1.0771 -0.7421
 2254TIP3    H228178   4.503   0.357   1.149 -0.4031 -0.2869  0.3233
 2255TIP3   OH228179   5.877   1.648  14.991 -0.6671 -0.1156 -0.2251
 2255TIP3    H128180   5.945   1.705  15.026 -0.7186 -0.1539 -0.0632
 2255TIP3    H228181   5.831   1.615  15.068  0.4995 -1.8160 -0.1857
 2256TIP3   OH228182   4.137   3.356  11.768  0.3092 -0.1101 -0.0023
 2256TIP3    H128183   4.209   3.417  11.750  0.3026  0.4061  1.5754
 2256TIP3    H228184   4.058   3.411  11.764  0.0425 -0.5549 -1.1357
 2257TIP3   OH228185   1.304   2.124   1.933 -0.1021  0.6010 -0.1897
 2257TIP3    H128186   1.303   2.089   2.022 -0.8404  0.4636 -0.2478
 2257TIP3    H228187   1.218   2.163   1.921  0.1066  0.9105 -0.7341
 2258TIP3   OH228188   5.792   0.084  15.966 -0.6115 -0.2965 -0.2142
 2258TIP3    H128189   5.769   0.010  16.023 -0.7068  0.0011  0.1343
 2258TIP3    H228190   5.831   0.043  15.889 -1.7033 -0.7818 -0.5301
 2259TIP3   OH228191   3.049   2.760  14.936 -0.0184 -0.2098  0.4211
 2259TIP3    H128192   3.057   2.812  15.016 -0.4022 -2.4467  2.0160
 2259TIP3    H228193   3.089   2.814  14.868  1.9571  1.0508  2.4425
 2260TIP3   OH228194   1.788   1.093   2.461  0.1509  0.3108  0.3579
 2260TIP3    H128195   1.719   1.052   2.409  1.4899 -0.3451 -0.9739
 2260TIP3    H228196   1.799   1.180   2.421 -0.2603  0.6225  0.9127
 2261TIP3   OH228197   0.311   3.077  16.991 -0.5797 -0.2926 -0.6641
 2261TIP3    H128198   0.318   2.989  17.027  1.9580 -0.2748 -0.8819
 2261TIP3    H228199   0.392   3.120  17.020 -1.8817  2.0779 -0.3164
 2262TIP3   OH228200   6.321   4.019   1.621  0.3481 -0.4447 -0.4961
 2262TIP3    H128201   6.257   4.067   1.569  1.3633  0.6121 -0.8069
 2262TIP3    H228202   6.393   4.001   1.561  1.8341  1.3694  0.6163
 2263TIP3   OH228203   5.056   4.849   4.076 -0.4473 -0.1771  0.0449
 2263TIP3    H128204   5.126   4.788   4.096 -0.9997 -0.5862  0.7878
 2263TIP3    H228205   5.067   4.869   3.983  0.4904 -0.4295  0.0972
 2264TIP3   OH228206   0.461   4.256   4.258 -0.4093  0.2451  0.0201
 2264TIP3    H128207   0.415   4.220   4.334 -0.1246 -0.2396 -0.0347
 2264TIP3    H228208   0.534   4.197   4.244  0.0064  0.7868 -0.1411
 2265TIP3   OH228209   4.857   3.052  12.082 -0.7727 -0.0555  0.5231
 2265TIP3    H128210   4.897   3.041  11.995 -1.7721 -0.0404  0.0483
 2265TIP3    H228211   4.763   3.051  12.065 -1.0495  3.1920  1.1713
 2266TIP3   OH228212   1.823   5.807   5.700  0.1657 -0.2539  0.1433
 2266TIP3    H128213   1.858   5.787   5.612  0.0627 -1.2114  0.3052
 2266TIP3    H228214   1.791   5.897   5.693 -0.6759 -0.6156 -1.0705
 2267TIP3   OH228215   1.405   2.346  14.489  0.1019 -0.2921  0.1235
 2267TIP3    H128216   1.367   2.298  14.563 -0.8930  1.0221  0.5075
 2267TIP3    H228217   1.439   2.427  14.528  0.3909  0.0070 -0.7248
 2268TIP3   OH228218   2.010   4.689   4.532  0.4970  0.2034 -0.5464
 2268TIP3    H128219   2.020   4.628   4.459 -1.4956 -1.9848  0.8511
 2268TIP3    H228220   1.922   4.672   4.566  0.9219  1.9215  1.6751
 2269TIP3   OH228221   0.413   1.832   6.387 -0.1666 -0.3775 -0.4111
 2269TIP3    H128222   0.370   1.780   6.319 -0.7885 -0.6055  0.1600
 2269TIP3    H228223   0.453   1.767   6.446  1.8536 -0.1907 -1.4581
 2270TIP3   OH228224   2.257   0.761  16.578  0.0923  0.2940  0.0699
 2270TIP3    H128225   2.349   0.756  16.554 -0.0013  0.1965 -0.2841
 2270TIP3    H228226   2.245   0.691  16.643  0.1101 -0.1837 -0.4298
 2271TIP3   OH228227   1.976   5.445   2.447  0.2593  0.6545 -0.4991
 2271TIP3    H128228   2.029   5.514   2.406 -1.3010  1.1232 -1.8163
 2271TIP3    H228229   2.010   5.364   2.410  3.2376  0.4250  2.2986
 2272TIP3   OH228230   3.527   4.227   2.052 -0.8719 -0.1858  0.0834
 2272TIP3    H128231   3.477   4.297   2.009 -1.7189  0.7615  2.4562
 2272TIP3    H228232   3.460   4.168   2.086 -0.1851 -1.4210 -0.6348
 2273TIP3   OH228233   4.413   1.298   3.352  0.7944  0.0253 -0.1293
 2273TIP3    H128234   4.499   1.286   3.310  0.8675  0.9033 -0.2387
 2273TIP3    H228235   4.350   1.280   3.282  0.8594 -1.2548  0.1106
 2274TIP3   OH228236   4.407   0.850   1.609 -0.1073  0.0409  0.3507
 2274TIP3    H128237   4.493   0.808   1.618 -0.1696  0.2767  2.7301
 2274TIP3    H228238   4.425   0.944   1.611 -0.4591  0.1337  2.7496
 2275TIP3   OH228239   1.319   6.321   2.544  0.2323 -0.0081  0.5061
 2275TIP3    H128240   1.374   6.283   2.475 -0.2280 -0.0069  0.1322
 2275TIP3    H228241   1.230   6.295   2.521  0.1013 -0.2565  1.2717
 2276TIP3   OH228242   6.743   2.337  16.099 -0.5189  0.0697  0.1095
 2276TIP3    H128243   6.703   2.415  16.139 -1.5165  0.6981 -1.9610
 2276TIP3    H228244   6.708   2.264  16.150 -1.2118  0.8532  0.8087
 2277TIP3   OH228245   0.801   5.384   4.563 -0.1244 -0.1963 -0.2289
 2277TIP3    H128246   0.838   5.444   4.498  0.2945 -0.0413  0.1426
 2277TIP3    H228247   0.749   5.322   4.513 -0.9025  0.7344 -0.5889
 2278TIP3   OH228248   1.393   0.512   2.395  0.1981  0.1807  0.2012
 2278TIP3    H128249   1.384   0.572   2.321  0.9004 -0.1167 -0.1350
 2278TIP3    H228250   1.323   0.538   2.456 -1.3332 -0.5090 -1.1947
 2279TIP3   OH228251   5.465   3.302   6.472 -0.2869  0.0813 -0.3789
 2279TIP3    H128252   5.464   3.354   6.392  1.0137  0.1796 -0.3501
 2279TIP3    H228253   5.499   3.361   6.539  0.7901 -0.6539 -0.2504
 2280TIP3   OH228254   0.418   1.064   0.032 -0.0550 -0.6276 -0.4256
 2280TIP3    H128255   0.507   1.089   0.007 -0.1187 -0.2046 -0.2320
 2280TIP3    H228256   0.426   1.030   0.121  0.1320 -1.9047 -0.9046
 2281TIP3   OH228257   5.299   3.506  10.883  0.6716  0.2434 -0.4635
 2281TIP3    H128258   5.245   3.453  10.824 -0.9584  2.5417 -1.1625
 2281TIP3    H228259   5.348   3.564  10.826 -0.3382  1.9633  0.3418
 2282TIP3   OH228260   5.083   5.815   5.568  0.2134  0.0150 -0.0192
 2282TIP3    H128261   5.073   5.754   5.495  2.5187 -0.9780  0.4142
 2282TIP3    H228262   5.123   5.763   5.638  0.8150  1.6420  0.9094
 2283TIP3   OH228263   5.487   5.978  12.601  0.3341 -0.3494  0.0809
 2283TIP3    H128264   5.405   5.958  12.645 -1.0797  3.1176 -0.6671
 2283TIP3    H228265   5.463   5.983  12.508  2.0939 -2.0712 -0.5459
 2284TIP3   OH228266   0.372   4.467  15.796  0.8499  0.5034 -0.1703
 2284TIP3    H128267   0.334   4.512  15.720 -0.2393  1.1182  0.6998
 2284TIP3    H228268   0.441   4.412  15.760  1.1153  1.6378 -1.4682
 2285TIP3   OH228269   1.022   3.069  13.182  0.3535 -0.8520  0.2084
 2285TIP3    H128270   1.064   3.033  13.104 -2.4608 -0.5294 -1.5917
 2285TIP3    H228271   0.975   2.995  13.220 -1.8415 -0.1511 -0.9869
 2286TIP3   OH228272   3.957   2.182  11.715 -0.3540  0.1418  0.6463
 2286TIP3    H128273   4.027   2.240  11.685 -0.9008  0.0955 -0.7569
 2286TIP3    H228274   3.897   2.239  11.762  0.3818  0.2546  1.4848
 2287TIP3   OH228275   2.228   2.463  12.038  0.2968  0.2317 -0.3534
 2287TIP3    H128276   2.181   2.428  12.114 -0.8478  0.1736 -1.0623
 2287TIP3    H228277   2.180   2.429  11.963  1.3836  0.3393 -1.1075
 2288TIP3   OH228278   1.229   6.346  16.329  0.2666 -0.3569 -0.0253
 2288TIP3    H128279   1.154   6.287  16.340  0.1256 -0.0275  0.8260
 2288TIP3    H228280   1.191   6.432  16.313  0.4385 -0.0035  1.3672
 2289TIP3   OH228281   6.267   2.263   4.298  0.3643  0.4426 -0.3791
 2289TIP3    H128282   6.273   2.316   4.377 -0.1077 -0.2993  0.1641
 2289TIP3    H228283   6.277   2.325   4.226  0.6925  1.1385  0.2599
 2290TIP3   OH228284   3.015   3.640   2.414  0.6684  0.1022 -0.0666
 2290TIP3    H128285   3.026   3.596   2.499 -0.5422  0.0280  0.0674
 2290TIP3    H228286   3.057   3.581   2.351  0.9736 -0.1747  0.3904
 2291TIP3   OH228287   0.695   3.591   5.122 -0.2213  0.4906  0.1445
 2291TIP3    H128288   0.610   3.599   5.166  0.0390  0.1240  0.7413
 2291TIP3    H228289   0.758   3.626   5.185  0.7611 -4.1292  2.1807
 2292TIP3   OH228290   6.724   0.569   2.920 -0.7913  0.5343 -0.3813
 2292TIP3    H128291   6.783   0.551   2.847 -0.1286  0.5670  0.1339
 2292TIP3    H228292   6.773   0.630   2.976 -1.5252  0.9856 -0.2136
 2293TIP3   OH228293   4.807   1.902   3.973 -0.0143 -0.0505 -0.1265
 2293TIP3    H128294   4.782   1.828   4.028 -2.5010  0.7484 -0.0651
 2293TIP3    H228295   4.900   1.916   3.992 -0.4260 -0.6986  2.7782
 2294TIP3   OH228296   6.174   3.588  14.860 -0.2514  0.2442  0.5589
 2294TIP3    H128297   6.168   3.526  14.932 -3.4488  0.2100  0.4025
 2294TIP3    H228298   6.174   3.534  14.781 -0.3689  0.3840  0.4625
 2295TIP3   OH228299   0.939   5.731   6.643  0.8378 -0.1233  0.0728
 2295TIP3    H128300   1.002   5.710   6.574  0.2876 -0.9380 -0.1967
 2295TIP3    H228301   0.857   5.748   6.597  0.2205 -1.6359  0.5639
 2296TIP3   OH228302   0.299   0.455  12.310  0.9793  0.5728 -0.0104
 2296TIP3    H128303   0.337   0.409  12.385 -0.6008 -0.4255  0.2254
 2296TIP3    H228304   0.227   0.398  12.281 -0.8397  2.6951  0.0723
 2297TIP3   OH228305   6.072   5.802   1.422 -0.3502 -0.2668  0.0084
 2297TIP3    H128306   6.126   5.738   1.468  0.3876  0.4121  0.0998
 2297TIP3    H228307   6.023   5.847   1.491  2.0184  1.9435  0.4010
 2298TIP3   OH228308   1.800   5.891  14.625 -0.2578  0.1365 -0.4772
 2298TIP3    H128309   1.891   5.914  14.605 -0.1631  0.1022 -0.0899
 2298TIP3    H228310   1.777   5.827  14.558 -1.0447  2.4794 -2.5792
 2299TIP3   OH228311   1.396   2.415  13.182 -0.5420  0.2735 -0.4184
 2299TIP3    H128312   1.376   2.444  13.271 -0.8186 -1.5829  0.1684
 2299TIP3    H228313   1.491   2.410  13.179 -0.4691  1.5140 -0.6466
 2300TIP3   OH228314   4.884   1.797   1.014 -0.0158  0.5620  0.0282
 2300TIP3    H128315   4.932   1.835   1.088 -0.5891  0.7419  0.3119
 2300TIP3    H228316   4.898   1.703   1.022  0.0497  0.5920  0.2793
 2301TIP3   OH228317   4.706   1.282   0.890 -0.2031 -0.4347 -0.0094
 2301TIP3    H128318   4.716   1.200   0.842 -3.9942  0.4025 -2.7102
 2301TIP3    H228319   4.643   1.262   0.960 -2.8726  0.3844 -1.9931
 2302TIP3   OH228320   6.397   4.448  12.329 -0.4479  0.5953  0.5324
 2302TIP3    H128321   6.384   4.506  12.404  0.3867  1.4981  0.0012
 2302TIP3    H228322   6.479   4.402  12.348  1.2558  2.7651 -0.9578
 2303TIP3   OH228323   4.285   0.340   1.706  0.1669 -0.4995  0.0763
 2303TIP3    H128324   4.250   0.410   1.651 -2.2787  0.6421  2.8151
 2303TIP3    H228325   4.339   0.386   1.771  0.4523 -1.4306  0.5089
 2304TIP3   OH228326   3.380   1.100   4.417  0.2525  0.2347  0.6855
 2304TIP3    H128327   3.359   1.189   4.447  0.1372  0.9295 -1.2569
 2304TIP3    H228328   3.321   1.087   4.342  1.7120 -0.6632 -0.3459
 2305TIP3   OH228329   4.998   2.925  12.289 -0.4333 -0.6353 -0.4947
 2305TIP3    H128330   4.983   2.969  12.205  2.9354 -0.4371 -1.1094
 2305TIP3    H228331   5.012   2.995  12.351 -1.1036 -0.8247 -0.1127
 2306TIP3   OH228332   4.838   0.151   0.415 -0.1858  0.5713 -0.3051
 2306TIP3    H128333   4.853   0.189   0.502 -1.8833 -1.2502  0.8760
 2306TIP3    H228334   4.743   0.146   0.407 -0.0593  0.7306 -2.3203
 2307TIP3   OH228335   5.154   3.269   2.945 -0.1054  0.3587 -0.0305
 2307TIP3    H128336   5.081   3.207   2.936 -0.4587  0.5899  1.1097
 2307TIP3    H228337   5.112   3.355   2.950  0.4131  0.7996 -2.2713
 2308TIP3   OH228338   0.104   1.216   5.414 -0.3008 -0.1850  0.4531
 2308TIP3    H128339   0.033   1.274   5.443 -1.6226 -1.4230 -0.2021
 2308TIP3    H228340   0.105   1.225   5.319 -1.0591 -1.8115  0.2664
 2309TIP3   OH228341   5.551   1.787   2.526 -0.0834  0.1533  0.1205
 2309TIP3    H128342   5.568   1.734   2.448 -0.1923 -1.1170  0.9399
 2309TIP3    H228343   5.602   1.745   2.595 -0.2145  1.0975  0.8057
 2310TIP3   OH228344   0.185   1.190   3.120 -0.1261  0.1260 -0.9063
 2310TIP3    H128345   0.097   1.155   3.105 -0.4978  1.3595 -1.8239
 2310TIP3    H228346   0.169   1.276   3.159  0.7419 -0.3483  0.5829
 2311TIP3   OH228347   5.417   3.224  16.361 -0.8259 -0.0651  0.2830
 2311TIP3    H128348   5.494   3.248  16.414 -1.6724 -0.6967  1.8930
 2311TIP3    H228349   5.344   3.269  16.404 -1.5496 -0.6273 -0.3377
 2312TIP3   OH228350   0.577   1.000   5.775 -0.2517  0.5625 -0.0038
 2312TIP3    H128351   0.571   0.977   5.683  1.2231 -1.2564  0.3000
 2312TIP3    H228352   0.550   0.920   5.822 -0.6321  1.3372  1.1515
 2313TIP3   OH228353   4.329   3.280  13.083 -0.1008  0.8517  0.3590
 2313TIP3    H128354   4.366   3.217  13.144 -0.3049 -0.6446 -0.9701
 2313TIP3    H228355   4.404   3.309  13.030 -0.2142  0.6253  0.0655
 2314TIP3   OH228356   1.059   0.839  13.586 -0.0614  0.4000  0.4057
 2314TIP3    H128357   1.002   0.810  13.657 -0.7101  2.1156  0.6251
 2314TIP3    H228358   1.131   0.885  13.629 -0.7613  1.9709 -0.0117
 2315TIP3   OH228359   5.253   4.501  14.051  0.3967  0.0604  0.5501
 2315TIP3    H128360   5.312   4.449  13.996  0.0103 -0.1452  0.3312
 2315TIP3    H228361   5.289   4.491  14.139 -0.6580 -2.0177  0.8066
 2316TIP3   OH228362   6.371   1.040   0.612  0.3801 -0.0254 -0.3435
 2316TIP3    H128363   6.328   1.109   0.562 -2.5002 -2.2193 -1.1758
 2316TIP3    H228364   6.375   1.074   0.702 -0.0450  1.5790 -0.9014
 2317TIP3   OH228365   5.998   1.897  15.390 -0.4936  0.3347 -0.3436
 2317TIP3    H128366   6.027   1.947  15.466  0.3639  1.5797 -1.4389
 2317TIP3    H228367   5.905   1.917  15.381 -1.4079 -2.2071  2.1009
 2318TIP3   OH228368   6.297   3.431   0.398 -0.2833  0.1537 -0.6660
 2318TIP3    H128369   6.226   3.367   0.391 -1.0647  1.0667 -1.5093
 2318TIP3    H228370   6.304   3.468   0.310  1.6417 -0.2921 -0.7481
 2319TIP3   OH228371   1.461   6.616  13.373  0.2622  0.1303 -0.6975
 2319TIP3    H128372   1.449   6.695  13.426  0.6063 -0.7088  0.6892
 2319TIP3    H228373   1.552   6.620  13.345  0.5651 -0.2268  0.1865
 2320TIP3   OH228374   2.840   0.910  12.679 -0.2945  0.1613  0.4198
 2320TIP3    H128375   2.877   0.895  12.592  0.5617  0.7285  0.6660
 2320TIP3    H228376   2.806   0.825  12.707 -1.0525  0.0878 -0.6767
 2321TIP3   OH228377   3.828   2.284  16.715  0.1940  0.5885  0.1826
 2321TIP3    H128378   3.915   2.255  16.745  0.5301  0.5433 -0.8009
 2321TIP3    H228379   3.836   2.290  16.620 -1.5957 -1.9448 -0.2333
 2322TIP3   OH228380   0.810   6.079  15.611  0.1817  0.0610 -0.0414
 2322TIP3    H128381   0.733   6.030  15.640 -0.0545  1.7759  2.6292
 2322TIP3    H228382   0.774   6.156  15.567  0.3556  0.5949  0.7319
 2323TIP3   OH228383   3.706   1.006   2.269 -0.1403  0.5049 -0.2534
 2323TIP3    H128384   3.727   1.044   2.184 -3.3435  0.5311 -1.1296
 2323TIP3    H228385   3.662   0.923   2.249  0.4551 -0.2852  1.4537
 2324TIP3   OH228386   1.398   4.814  10.560 -0.5458 -0.1314 -0.5132
 2324TIP3    H128387   1.463   4.824  10.490 -0.6122 -0.4724 -0.6251
 2324TIP3    H228388   1.341   4.890  10.550  1.4542  1.7333  1.3449
 2325TIP3   OH228389   3.755   1.152  14.000 -0.1018  0.4532  0.1133
 2325TIP3    H128390   3.757   1.061  13.973 -1.8376  0.2513  0.5790
 2325TIP3    H228391   3.788   1.151  14.090 -0.4948  0.2319  0.2545
 2326TIP3   OH228392   1.716   0.883  12.944 -0.2956  0.2434  0.1286
 2326TIP3    H128393   1.751   0.890  13.033 -0.0084  2.1592 -0.0792
 2326TIP3    H228394   1.625   0.912  12.951 -0.2478  0.4848 -0.2054
 2327TIP3   OH228395   6.758   3.198  11.671 -0.7601  0.0930  0.1217
 2327TIP3    H128396   6.731   3.289  11.665  0.2017  0.4380  0.7802
 2327TIP3    H228397   6.683   3.152  11.709 -1.0209  0.7254  0.3709
 2328TIP3   OH228398   2.082   0.169  17.068 -0.0903  0.8515  0.1808
 2328TIP3    H128399   2.037   0.220  17.001 -0.9714  0.7783  0.7027
 2328TIP3    H228400   2.034   0.087  17.071  0.2943  0.6402  0.5085
 2329TIP3   OH228401   5.801   2.307  16.516  0.0647  0.4541  0.2820
 2329TIP3    H128402   5.769   2.380  16.464  0.4320  0.3002 -0.1787
 2329TIP3    H228403   5.849   2.253  16.453  0.7475  0.4002  0.8331
 2330TIP3   OH228404   2.490   4.828   3.755 -0.2475 -0.3183 -0.9288
 2330TIP3    H128405   2.461   4.919   3.750 -1.8899 -0.7149  0.4946
 2330TIP3    H228406   2.454   4.788   3.676 -3.5583 -0.7187  0.6188
 2331TIP3   OH228407   2.172   6.661   0.882  0.6331  0.4727  0.2759
 2331TIP3    H128408   2.216   6.735   0.840  0.3450 -0.2191 -1.3233
 2331TIP3    H228409   2.083   6.664   0.846  0.0837  0.3905  1.5758
 2332TIP3   OH228410   4.483   0.038   4.283  0.5736  0.4422  0.3716
 2332TIP3    H128411   4.416   0.058   4.218  0.7693 -1.8023 -0.5927
 2332TIP3    H228412   4.437   0.043   4.367 -0.6880 -0.5700 -0.2361
 2333TIP3   OH228413   2.792   6.440   1.493 -0.1370  0.2378 -0.0456
 2333TIP3    H128414   2.720   6.430   1.555 -0.6469 -0.5971 -0.7392
 2333TIP3    H228415   2.867   6.397   1.535 -0.8025 -1.4690 -0.5052
 2334TIP3   OH228416   0.332   2.872  10.703 -0.8397  0.1944  0.1485
 2334TIP3    H128417   0.358   2.799  10.648 -1.9544 -0.1051 -0.0061
 2334TIP3    H228418   0.297   2.831  10.783 -0.8676  0.5737  0.3351
 2335TIP3   OH228419   2.946   1.269  11.479 -0.1723  0.2503 -0.2889
 2335TIP3    H128420   2.961   1.216  11.557  0.0046  1.2908  0.4068
 2335TIP3    H228421   2.871   1.228  11.436 -2.1405  1.3132  1.9622
 2336TIP3   OH228422   1.273   2.971  15.241 -0.2512 -0.3802 -0.1068
 2336TIP3    H128423   1.213   2.965  15.315 -0.8238 -3.8055 -0.6758
 2336TIP3    H228424   1.260   3.060  15.207 -3.0053 -0.0708  1.4121
 2337TIP3   OH228425   1.585   0.444  11.448 -0.0903  0.3779  0.2558
 2337TIP3    H128426   1.589   0.515  11.383  1.1000  0.7247  0.6815
 2337TIP3    H228427   1.605   0.487  11.531  0.8399 -0.4922  0.4917
 2338TIP3   OH228428   5.949   4.682   5.920  0.0571 -0.2582  0.3606
 2338TIP3    H128429   5.988   4.750   5.975 -0.5271  0.6751 -0.3361
 2338TIP3    H228430   5.858   4.677   5.949 -0.2399  0.2025 -0.4547
 2339TIP3   OH228431   2.958   2.119  12.670 -0.1252  0.0010  0.0418
 2339TIP3    H128432   2.991   2.030  12.659 -0.5505 -0.2088  0.3833
 2339TIP3    H228433   2.974   2.162  12.586  1.3764  0.0418  0.3329
 2340TIP3   OH228434   3.137   3.507   5.444  0.1317  0.0958 -0.0621
 2340TIP3    H128435   3.114   3.442   5.509  0.1426 -0.9940 -1.1060
 2340TIP3    H228436   3.054   3.534   5.406  0.1595  0.3975  0.0858
 2341TIP3   OH228437   0.982   3.894  16.855 -0.1918  0.2131 -0.4238
 2341TIP3    H128438   0.889   3.898  16.880  0.4277  1.4356  1.9801
 2341TIP3    H228439   1.001   3.981  16.819  0.4214  0.6609  0.8976
 2342TIP3   OH228440   1.537   1.163  15.613  0.0172 -0.3872 -0.2548
 2342TIP3    H128441   1.601   1.210  15.666  1.3882 -2.0573 -0.3176
 2342TIP3    H228442   1.583   1.145  15.530 -0.0317 -2.5840  0.1118
 2343TIP3   OH228443   1.670   1.774  14.715  0.2947 -0.9472 -0.2504
 2343TIP3    H128444   1.648   1.851  14.767 -0.4025 -2.3175  1.5730
 2343TIP3    H228445   1.758   1.792  14.682 -0.0281  0.7971 -0.2750
 2344TIP3   OH228446   6.136   3.651   5.337 -0.0204  0.0195 -0.0898
 2344TIP3    H128447   6.073   3.610   5.395 -0.6375 -1.2714 -1.6111
 2344TIP3    H228448   6.087   3.722   5.295 -0.5675 -1.0694 -1.3743
 2345TIP3   OH228449   0.686   6.503   2.822 -0.2502  0.2061 -0.3046
 2345TIP3    H128450   0.663   6.447   2.897  0.5895  1.5249  1.0111
 2345TIP3    H228451   0.740   6.572   2.861 -0.2062  1.2103 -2.0789
 2346TIP3   OH228452   4.910   1.175  16.738  0.7002 -0.2881 -0.1431
 2346TIP3    H128453   4.975   1.106  16.746  0.5396 -0.4274 -0.0469
 2346TIP3    H228454   4.962   1.255  16.727  0.9860  0.0949  3.1499
 2347TIP3   OH228455   0.240   0.305  12.576  0.1873 -0.7358  0.0856
 2347TIP3    H128456   0.282   0.343  12.653  1.2348 -0.7257 -0.4658
 2347TIP3    H228457   0.261   0.212  12.581  0.9301 -0.6215 -0.5692
 2348TIP3   OH228458   4.539   0.576  12.600  0.3402 -0.3062  0.0723
 2348TIP3    H128459   4.454   0.577  12.554 -1.0197 -0.7519  2.4305
 2348TIP3    H228460   4.573   0.488  12.585  0.0984 -0.3270 -0.3772
 2349TIP3   OH228461   2.904   5.794   5.624 -0.1694 -0.1735 -0.5596
 2349TIP3    H128462   2.951   5.712   5.611  0.6170  0.1387  0.2198
 2349TIP3    H228463   2.970   5.855   5.657 -0.5224  1.0650 -2.0112
 2350TIP3   OH228464   0.913   4.202   0.727 -0.1444  0.6691  0.7152
 2350TIP3    H128465   0.830   4.163   0.754 -0.0060 -2.8246 -2.8614
 2350TIP3    H228466   0.889   4.273   0.668 -0.6846 -0.1484 -0.0843
 2351TIP3   OH228467   5.310   6.724  14.166 -0.0032  0.1854  0.3289
 2351TIP3    H128468   5.312   6.803  14.111 -0.3486  0.0478  0.1171
 2351TIP3    H228469   5.270   6.754  14.248 -0.5382  0.1372  0.0910
 2352TIP3   OH228470   4.572   6.377   1.508 -0.1069  0.2771 -0.3040
 2352TIP3    H128471   4.563   6.447   1.443 -0.3609  1.6303  1.1410
 2352TIP3    H228472   4.569   6.422   1.592  1.3655 -1.2995  0.6511
 2353TIP3   OH228473   6.632   5.861  16.304 -1.0969  0.5353  1.0379
 2353TIP3    H128474   6.540   5.847  16.284 -0.9637 -0.8549  1.3070
 2353TIP3    H228475   6.651   5.798  16.373  0.2410  0.3103  0.4912
 2354TIP3   OH228476   6.368   0.061   6.604  0.4818 -0.3950 -0.1907
 2354TIP3    H128477   6.332  -0.024   6.629 -0.7103  0.8414  2.6589
 2354TIP3    H228478   6.415   0.043   6.522 -1.2074 -3.4026 -0.6611
 2355TIP3   OH228479   6.494   3.523  12.727 -0.1265 -0.4331  0.1734
 2355TIP3    H128480   6.435   3.579  12.776  0.2639 -1.1201  1.4684
 2355TIP3    H228481   6.560   3.582  12.691  0.0426 -0.0036  1.1763
 2356TIP3   OH228482   4.304   3.190  13.741  0.1368  0.3595 -0.9282
 2356TIP3    H128483   4.245   3.264  13.753 -0.4808 -0.2114 -0.2944
 2356TIP3    H228484   4.271   3.146  13.662 -1.3172 -0.8440  0.2742
 2357TIP3   OH228485   3.896   2.248  15.893 -0.1662 -0.4120  0.4290
 2357TIP3    H128486   3.902   2.342  15.881  0.0052 -0.4908 -0.1264
 2357TIP3    H228487   3.820   2.235  15.950  0.6195  0.1452  1.6535
 2358TIP3   OH228488   5.140   2.963  15.430  0.4178 -0.2727 -0.0247
 2358TIP3    H128489   5.130   2.869  15.438 -0.6059 -0.1086  0.8460
 2358TIP3    H228490   5.111   2.998  15.514 -3.9851  1.1021 -1.8124
 2359TIP3   OH228491   6.238   6.188  11.991 -0.0650  0.1396 -0.7435
 2359TIP3    H128492   6.249   6.207  11.898 -0.2908  2.0271 -0.4229
 2359TIP3    H228493   6.152   6.148  11.997 -1.2267  2.3906 -1.1064
 2360TIP3   OH228494   2.069   4.121   2.842  0.2043 -0.0378 -0.5928
 2360TIP3    H128495   2.109   4.041   2.810  1.6553  0.9380 -1.3181
 2360TIP3    H228496   2.127   4.151   2.912 -0.7992 -0.0590  0.2747
 2361TIP3   OH228497   1.581   3.731  15.083 -0.6739 -0.3218 -0.2534
 2361TIP3    H128498   1.637   3.768  15.015 -0.5633  1.9383  0.9660
 2361TIP3    H228499   1.546   3.808  15.130 -1.9327 -1.7514  1.2730
 2362TIP3   OH228500   0.207   5.852   3.495  0.1485 -0.9737  0.3642
 2362TIP3    H128501   0.116   5.823   3.487  1.0563 -4.0218 -0.3643
 2362TIP3    H228502   0.242   5.801   3.568  1.4394 -0.3095  0.2393
 2363TIP3   OH228503   5.448   6.135   0.180 -0.0980 -0.1672  0.3642
 2363TIP3    H128504   5.464   6.046   0.212 -0.5224 -0.8603 -1.2659
 2363TIP3    H228505   5.375   6.126   0.119  0.3292  1.1831 -0.3908
 2364TIP3   OH228506   6.397   6.790   4.598 -0.1390 -0.9472  0.5564
 2364TIP3    H128507   6.415   6.849   4.671 -2.3521 -0.9313  1.1674
 2364TIP3    H228508   6.434   6.706   4.624 -1.3285 -1.0750  1.9593
 2365TIP3   OH228509   2.684   2.187   0.091  0.0246  0.8956  0.2483
 2365TIP3    H128510   2.753   2.140   0.138  1.3317 -1.2139 -3.4209
 2365TIP3    H228511   2.727   2.221   0.013 -3.3000 -2.6702 -3.5887
 2366TIP3   OH228512   1.771   5.361   6.060 -0.4737 -0.3420 -0.6408
 2366TIP3    H128513   1.690   5.332   6.018  0.8022 -0.3196 -3.3031
 2366TIP3    H228514   1.770   5.456   6.051 -1.2670 -0.0799  1.6108
 2367TIP3   OH228515   1.344   4.362   6.555  0.0183 -0.0449 -0.1983
 2367TIP3    H128516   1.308   4.407   6.632  0.4702  0.4831 -0.2895
 2367TIP3    H228517   1.436   4.346   6.576  0.6807  1.8477 -1.3530
 2368TIP3   OH228518   1.288   3.742   2.351  0.2102 -0.0033  0.3218
 2368TIP3    H128519   1.235   3.769   2.276  1.3507  1.9033  0.1327
 2368TIP3    H228520   1.225   3.737   2.424 -0.4244  1.1151 -0.1237
 2369TIP3   OH228521   6.052   4.270   3.546 -0.3119 -0.1881  0.4951
 2369TIP3    H128522   6.003   4.339   3.501 -0.2215 -0.8064 -0.5734
 2369TIP3    H228523   5.984   4.213   3.583 -0.3920  0.6542  1.7211
 2370TIP3   OH228524   3.137   3.632   5.959  0.5126  0.4563 -0.2632
 2370TIP3    H128525   3.114   3.705   6.018 -0.3024  0.2411 -0.3008
 2370TIP3    H228526   3.185   3.571   6.015 -0.1757  0.2965  0.1660
 2371TIP3   OH228527   5.021   5.790  15.210 -0.3523 -0.2528 -0.6701
 2371TIP3    H128528   5.002   5.883  15.221 -0.9387 -0.3443 -0.8535
 2371TIP3    H228529   4.988   5.769  15.123  1.2349 -0.2808 -1.2891
 2372TIP3   OH228530   3.633   3.415   3.887 -0.1737 -0.3344 -0.3943
 2372TIP3    H128531   3.687   3.441   3.961  0.4464 -0.2658 -0.8607
 2372TIP3    H228532   3.572   3.350   3.923  0.3342 -0.5447  0.1007
 2373TIP3   OH228533   0.882   4.293  14.895  0.1932 -0.0285  0.0307
 2373TIP3    H128534   0.956   4.282  14.835  0.4317  1.4485  0.0129
 2373TIP3    H228535   0.829   4.214  14.883  2.2515 -1.5854  0.7787
 2374TIP3   OH228536   0.365   6.531   2.967  0.0959 -0.2844  0.0806
 2374TIP3    H128537   0.309   6.569   3.036  1.1481  0.7114  0.4185
 2374TIP3    H228538   0.448   6.514   3.011  0.5559 -0.3068 -0.7912
 2375TIP3   OH228539   1.354   4.655  14.715  0.5346 -0.1445  0.2527
 2375TIP3    H128540   1.295   4.728  14.700  0.3436 -0.1657  0.9036
 2375TIP3    H228541   1.321   4.585  14.658  0.8931  0.3577 -0.5972
 2376TIP3   OH228542   6.152   3.332   1.464  0.2921 -0.3759 -0.1423
 2376TIP3    H128543   6.231   3.301   1.507 -0.3675 -1.6560  0.1963
 2376TIP3    H228544   6.083   3.273   1.494 -1.1906  1.8397  1.0881
 2377TIP3   OH228545   3.209   5.602   1.230 -0.5426  0.2951  0.0742
 2377TIP3    H128546   3.211   5.696   1.248 -0.2983  0.1602  0.7665
 2377TIP3    H228547   3.137   5.592   1.168  0.6853  1.1853 -1.5547
 2378TIP3   OH228548   3.028   1.306  15.169  0.0307 -0.4409  0.1065
 2378TIP3    H128549   3.052   1.389  15.128  0.9671  0.3068  2.0743
 2378TIP3    H228550   3.052   1.240  15.104  3.0298  0.5807  0.0468
 2379TIP3   OH228551   6.142   4.261  13.240  0.1614 -0.2493  0.2939
 2379TIP3    H128552   6.075   4.202  13.205  0.3387 -0.6658  0.6462
 2379TIP3    H228553   6.190   4.290  13.162 -0.1461 -0.2913  0.0822
 2380TIP3   OH228554   5.541   0.924  11.011  0.6200  0.1484 -0.1158
 2380TIP3    H128555   5.476   0.995  11.014  0.0381 -0.4106  2.1423
 2380TIP3    H228556   5.495   0.852  10.966  0.3494  0.3774 -0.2119
 2381TIP3   OH228557   2.718   2.946   1.943 -0.1590 -0.8064  0.1503
 2381TIP3    H128558   2.705   2.953   1.848  1.1508 -1.9278 -0.1361
 2381TIP3    H228559   2.670   2.867   1.968 -0.0131 -0.8394  0.3282
 2382TIP3   OH228560   5.469   2.529  11.183  0.6900 -0.2047  0.4227
 2382TIP3    H128561   5.439   2.516  11.093  1.0359  0.7107  0.1689
 2382TIP3    H228562   5.445   2.447  11.228 -1.7194  0.2510  0.1177
 2383TIP3   OH228563   2.565   4.517   3.037 -0.0577  0.1235 -0.4078
 2383TIP3    H128564   2.648   4.470   3.048 -1.4097 -2.2541  0.4719
 2383TIP3    H228565   2.586   4.592   2.981  2.7114 -0.2225  0.0411
 2384TIP3   OH228566   4.572   1.729  13.478 -0.2785  0.1007 -0.1610
 2384TIP3    H128567   4.660   1.695  13.494 -0.3766 -1.1798 -2.0930
 2384TIP3    H228568   4.564   1.732  13.383 -1.9346  1.2725 -0.0255
 2385TIP3   OH228569   0.454   1.778  12.042 -0.0956  0.5508 -0.1102
 2385TIP3    H128570   0.411   1.818  12.118  0.2021 -0.5780  0.6690
 2385TIP3    H228571   0.548   1.787  12.060  0.0032  1.5669 -1.0448
 2386TIP3   OH228572   6.383   4.214  11.373 -0.5655 -0.0037  0.5417
 2386TIP3    H128573   6.349   4.126  11.391 -1.2958 -0.0528 -0.9770
 2386TIP3    H228574   6.305   4.265  11.351 -0.3390  1.4326  2.7941
 2387TIP3   OH228575   6.635   2.774   6.108 -0.0308 -0.2347  0.2104
 2387TIP3    H128576   6.563   2.834   6.089  0.8931  0.5907 -0.8152
 2387TIP3    H228577   6.593   2.689   6.119 -1.1671  0.2224 -0.3942
 2388TIP3   OH228578   1.839   3.973  11.428  0.0910 -0.3546  0.5992
 2388TIP3    H128579   1.763   3.964  11.371 -0.0071 -0.1119  0.6910
 2388TIP3    H228580   1.845   3.888  11.472 -0.7615 -0.0287  1.3777
 2389TIP3   OH228581   5.581   3.056  15.778  0.3149 -1.0628  0.5275
 2389TIP3    H128582   5.491   3.042  15.806  0.5743 -2.7658  0.5817
 2389TIP3    H228583   5.581   3.036  15.685  0.4799 -0.2135  0.3324
 2390TIP3   OH228584   6.116   1.150  15.953  0.0735 -0.1081 -0.4972
 2390TIP3    H128585   6.040   1.148  15.894  0.5394 -0.1583 -1.1009
 2390TIP3    H228586   6.141   1.058  15.962  0.5401 -0.0227 -0.9209
 2391TIP3   OH228587   0.258   6.784   4.732 -0.9898  0.2451 -0.1658
 2391TIP3    H128588   0.300   6.866   4.760 -0.7896 -0.0800  0.5148
 2391TIP3    H228589   0.219   6.749   4.812 -0.2262 -0.8231 -0.2431
 2392TIP3   OH228590   5.106   0.447   3.030  0.0812  0.0679  0.0735
 2392TIP3    H128591   5.020   0.452   2.989 -0.3618  0.9721  1.0516
 2392TIP3    H228592   5.095   0.494   3.113  1.8551  1.3264 -0.3659
 2393TIP3   OH228593   4.976   5.328  11.553  0.7203 -0.3195 -0.3800
 2393TIP3    H128594   4.941   5.251  11.597 -0.8062  0.0602 -0.8840
 2393TIP3    H228595   5.062   5.342  11.594  1.4189 -2.7442 -0.8537
 2394TIP3   OH228596   5.932   2.883  17.064  0.0633 -0.4506 -0.4954
 2394TIP3    H128597   6.006   2.829  17.090  0.2781  0.1376  0.1180
 2394TIP3    H228598   5.899   2.841  16.984 -2.0196 -3.6752  1.8040
 2395TIP3   OH228599   2.057   2.378  14.783 -0.3443  0.4155 -0.5038
 2395TIP3    H128600   2.012   2.408  14.704  0.0598  0.7197 -0.6161
 2395TIP3    H228601   1.986   2.359  14.845 -0.6081  2.8535  0.0413
 2396TIP3   OH228602   4.058   0.630  12.195 -0.4639 -0.3146 -0.1328
 2396TIP3    H128603   4.042   0.642  12.101  1.5796  1.5432 -0.3074
 2396TIP3    H228604   4.115   0.554  12.200  0.5297  0.3851 -0.5438
 2397TIP3   OH228605   6.078   3.284  16.475 -0.4995  0.0269 -0.3627
 2397TIP3    H128606   6.019   3.222  16.434 -0.3688  0.5501 -1.3799
 2397TIP3    H228607   6.032   3.368  16.471  0.2260  0.4063 -1.0110
 2398TIP3   OH228608   3.830   0.821   2.673  0.6275 -0.0230 -0.5700
 2398TIP3    H128609   3.916   0.859   2.691  0.3855  0.3317 -0.1256
 2398TIP3    H228610   3.809   0.770   2.751  0.1709  0.4000 -0.4059
 2399TIP3   OH228611   0.846   1.144  11.097 -0.1180  0.2923 -0.1679
 2399TIP3    H128612   0.810   1.183  11.017 -1.2968 -1.0795 -0.3546
 2399TIP3    H228613   0.769   1.115  11.146  0.6129 -3.3604 -0.8846
 2400TIP3   OH228614   1.570   6.385  11.005  0.1966  0.5515 -0.9007
 2400TIP3    H128615   1.526   6.365  10.922 -1.4582 -1.5922  0.3601
 2400TIP3    H228616   1.500   6.381  11.070  1.4361  2.2403  0.6223
 2401TIP3   OH228617   2.883   6.812  13.057 -0.1178 -0.4124 -0.3148
 2401TIP3    H128618   2.966   6.768  13.039 -0.3045 -0.7996 -0.2371
 2401TIP3    H228619   2.874   6.807  13.152  0.6399  1.2211 -0.1282
 2402TIP3   OH228620   5.791   6.092   0.636  0.6291  0.1838 -0.1008
 2402TIP3    H128621   5.884   6.116   0.630  0.6297 -0.1211 -1.4665
 2402TIP3    H228622   5.764   6.123   0.723  2.1070 -0.0855  0.4855
 2403TIP3   OH228623   1.851   0.926   5.004  0.2067 -0.3260  0.5507
 2403TIP3    H128624   1.944   0.906   4.996  0.1309 -0.5225  0.1580
 2403TIP3    H228625   1.811   0.845   5.035  0.2913  0.0173  1.5822
 2404TIP3   OH228626   3.233   6.179  13.978  0.2114  0.4935 -0.1114
 2404TIP3    H128627   3.172   6.131  13.922  0.1471  0.8728 -0.3696
 2404TIP3    H228628   3.197   6.169  14.066 -0.1513  0.6096 -0.2461
 2405TIP3   OH228629   3.094   5.533  11.947  0.0526  0.0126  0.1615
 2405TIP3    H128630   3.169   5.577  11.987 -1.4466  3.6420 -0.6113
 2405TIP3    H228631   3.106   5.545  11.853  0.0729 -2.3106 -0.2000
 2406TIP3   OH228632   3.654   4.498  16.019  0.0475  0.2185  0.1027
 2406TIP3    H128633   3.689   4.412  15.994  0.6176  0.7088 -0.8471
 2406TIP3    H228634   3.570   4.478  16.061 -0.2157 -0.7531 -0.8313
 2407TIP3   OH228635   3.191   2.767  13.890 -0.3699 -1.6732  0.5991
 2407TIP3    H128636   3.272   2.780  13.841 -0.5020 -1.4345  0.4444
 2407TIP3    H228637   3.147   2.852  13.888 -0.4657 -1.7098  0.9695
 2408TIP3   OH228638   6.447   1.464  13.617  0.3726 -0.4856  0.4124
 2408TIP3    H128639   6.540   1.456  13.640  0.6119  1.7617  0.4229
 2408TIP3    H228640   6.445   1.520  13.540 -1.0007  0.1574  0.8686
 2409TIP3   OH228641   1.148   0.653  14.958  0.6244 -0.1786  0.1316
 2409TIP3    H128642   1.138   0.558  14.957  1.9743 -0.3517  0.1794
 2409TIP3    H228643   1.166   0.677  14.867  1.6734 -0.1713  0.3232
 2410TIP3   OH228644   3.064   6.719  13.995  0.1349 -0.1140 -0.1152
 2410TIP3    H128645   2.992   6.773  13.961 -0.1561 -0.2419  0.2934
 2410TIP3    H228646   3.072   6.745  14.086 -0.3831 -1.1508  0.2409
 2411TIP3   OH228647   2.532   5.265  12.710  0.1347  0.1894 -0.3074
 2411TIP3    H128648   2.529   5.176  12.745 -0.6150  0.6481  0.8447
 2411TIP3    H228649   2.611   5.303  12.747 -1.0435  0.9225  1.6224
 2412TIP3   OH228650   4.356   4.139  13.039 -0.2114 -0.4440 -0.5115
 2412TIP3    H128651   4.377   4.049  13.065 -2.9002 -0.8429  0.6190
 2412TIP3    H228652   4.329   4.182  13.121  1.4940  1.5922 -0.9376
 2413TIP3   OH228653   4.720   3.159   0.028  0.0616 -0.5103 -0.3524
 2413TIP3    H128654   4.748   3.087   0.085  3.5811  0.6490 -0.3997
 2413TIP3    H228655   4.664   3.213   0.085 -0.0727 -1.6234  0.6174
 2414TIP3   OH228656   2.335   6.748   1.589  0.0855  0.2866  0.3928
 2414TIP3    H128657   2.354   6.711   1.503 -1.2245  0.1901  0.1203
 2414TIP3    H228658   2.385   6.695   1.650  0.2366 -0.2968 -0.2230
 2415TIP3   OH228659   4.916   5.767  16.226 -0.0237 -0.1483 -0.1612
 2415TIP3    H128660   4.971   5.827  16.276  0.1418  0.2944 -0.8488
 2415TIP3    H228661   4.971   5.690  16.211 -0.4663 -0.7706  1.2962
 2416TIP3   OH228662   5.608   5.282   1.834 -0.2667 -0.2924  0.6183
 2416TIP3    H128663   5.631   5.190   1.825 -1.6199 -0.5526 -0.6310
 2416TIP3    H228664   5.669   5.328   1.775 -1.0352 -0.6603 -0.4968
 2417TIP3   OH228665   2.038   3.997   1.955 -0.1849  0.1222 -0.2395
 2417TIP3    H128666   2.016   3.926   1.894  1.3445 -1.1590  0.6039
 2417TIP3    H228667   1.955   4.040   1.973 -1.4302 -2.3155  0.2376
 2418TIP3   OH228668   5.240   1.732   2.586  0.2380  0.3567  0.4428
 2418TIP3    H128669   5.214   1.760   2.499 -1.6504  1.7080  1.3840
 2418TIP3    H228670   5.279   1.645   2.572 -0.1801  0.4561 -1.7010
 2419TIP3   OH228671   1.654   6.819  14.635  0.1970 -0.0792 -0.4592
 2419TIP3    H128672   1.591   6.817  14.563 -0.8613  0.5069  0.4111
 2419TIP3    H228673   1.600   6.810  14.714  1.0250  1.7188  0.3840
 2420TIP3   OH228674   4.603   4.647   0.581 -0.0320  0.2401 -0.4881
 2420TIP3    H128675   4.603   4.740   0.605  0.1768 -0.1866  1.2864
 2420TIP3    H228676   4.530   4.610   0.630 -0.1154 -0.5459 -1.1869
 2421TIP3   OH228677   4.669   2.224  15.417  0.3933 -0.0603  0.0172
 2421TIP3    H128678   4.736   2.248  15.353  0.6105 -1.1011 -0.1641
 2421TIP3    H228679   4.586   2.236  15.371  0.4635  0.7524  0.0813
 2422TIP3   OH228680   0.589   1.945  14.303  0.3571  0.6878 -0.1496
 2422TIP3    H128681   0.579   2.038  14.284 -1.9477  0.3683 -0.7734
 2422TIP3    H228682   0.536   1.900  14.236  0.1262 -0.9687  1.0693
 2423TIP3   OH228683   0.880   1.431   5.338  0.8724 -0.2741 -0.1608
 2423TIP3    H128684   0.888   1.364   5.406 -1.5080  0.3789  0.8748
 2423TIP3    H228685   0.874   1.382   5.256  1.4341 -1.1919  0.3293
 2424TIP3   OH228686   4.533   3.891  15.686  0.1647 -0.3245  0.3081
 2424TIP3    H128687   4.580   3.845  15.616  2.0812  0.6312  0.8781
 2424TIP3    H228688   4.485   3.823  15.732  0.1140 -1.1976 -0.9872
 2425TIP3   OH228689   3.778   3.218   4.797 -0.4898  0.2716 -0.0379
 2425TIP3    H128690   3.765   3.313   4.797  1.0089  0.4977 -0.3147
 2425TIP3    H228691   3.734   3.189   4.717  0.3156  0.9396 -0.7428
 2426TIP3   OH228692   3.963   6.571   2.597 -0.4511 -0.1737  0.7299
 2426TIP3    H128693   4.056   6.569   2.622 -0.9945 -0.6920  2.8264
 2426TIP3    H228694   3.953   6.656   2.553  0.9262  0.0373  0.7617
 2427TIP3   OH228695   2.690   0.388  12.785 -0.0744 -0.0059  0.0136
 2427TIP3    H128696   2.724   0.371  12.698 -1.2172  0.5412 -0.5609
 2427TIP3    H228697   2.625   0.319  12.799  0.4150 -0.3484  0.6085
 2428TIP3   OH228698   6.763   2.502  13.718 -0.1616  0.6186 -0.1067
 2428TIP3    H128699   6.724   2.456  13.644  0.1838  0.1765 -0.0173
 2428TIP3    H228700   6.729   2.457  13.796 -1.3402  1.7233  0.0567
 2429TIP3   OH228701   4.908   1.869  16.105  0.5736  0.1159 -0.4341
 2429TIP3    H128702   4.844   1.938  16.087 -0.3538 -1.0295 -1.7542
 2429TIP3    H228703   4.978   1.913  16.153 -0.7286  1.6272  0.1738
 2430TIP3   OH228704   2.178   5.556  11.829  0.6814  0.1424 -0.1993
 2430TIP3    H128705   2.220   5.581  11.911  0.7026  0.0634 -0.1856
 2430TIP3    H228706   2.233   5.485  11.795  0.0453 -0.5863  0.2699
 2431TIP3   OH228707   3.726   6.162   0.154  0.0020  0.1038 -0.0850
 2431TIP3    H128708   3.733   6.257   0.151  0.5443  0.0506 -1.8284
 2431TIP3    H228709   3.642   6.146   0.197 -0.2290  1.3735 -0.0121
 2432TIP3   OH228710   2.659   3.399   2.281 -0.3264  0.5682  0.1067
 2432TIP3    H128711   2.706   3.339   2.224  0.5127  1.5670 -0.3011
 2432TIP3    H228712   2.595   3.345   2.327 -0.6850 -0.3484 -1.4049
 2433TIP3   OH228713   3.449   6.245  13.694  0.1353  0.6761 -0.1023
 2433TIP3    H128714   3.361   6.264  13.659 -1.5563 -0.5362  3.0664
 2433TIP3    H228715   3.457   6.301  13.771  1.5872 -0.1636  0.3989
 2434TIP3   OH228716   4.376   2.662  12.096 -0.2104 -0.1481  0.2001
 2434TIP3    H128717   4.384   2.567  12.085 -1.7395 -0.3164  0.4612
 2434TIP3    H228718   4.467   2.692  12.105  0.4602 -1.3111 -1.9808
 2435TIP3   OH228719   0.868   5.812   1.112  0.1758  0.3391  0.1714
 2435TIP3    H128720   0.869   5.893   1.163  1.1291  1.0306 -0.9146
 2435TIP3    H228721   0.945   5.763   1.143  1.1157  1.0354 -0.9962
 2436TIP3   OH228722   6.727   6.433   2.638  0.3802  0.7727  0.6572
 2436TIP3    H128723   6.782   6.503   2.603 -0.3192  1.3284  0.6393
 2436TIP3    H228724   6.787   6.361   2.654  1.1747  1.4893  0.9767
 2437TIP3   OH228725   6.546   6.459   0.914 -0.1935 -0.3072  0.2290
 2437TIP3    H128726   6.498   6.539   0.893 -0.6658 -1.0526 -1.7637
 2437TIP3    H228727   6.630   6.468   0.868 -0.5407 -1.2412 -0.6228
 2438TIP3   OH228728   2.131   3.058   0.379  0.6453  0.8599 -0.4382
 2438TIP3    H128729   2.108   3.002   0.453 -1.3000 -0.0192 -1.6410
 2438TIP3    H228730   2.226   3.047   0.369  0.3943 -1.9833 -0.3987
 2439TIP3   OH228731   0.364   1.126  15.992  0.0704  0.5424  0.1750
 2439TIP3    H128732   0.428   1.082  15.937 -0.9780 -0.5655 -0.2030
 2439TIP3    H228733   0.287   1.069  15.990 -0.6765  1.4651  1.2048
 2440TIP3   OH228734   1.408   4.489   6.288 -0.1817  0.2699  0.1715
 2440TIP3    H128735   1.475   4.421   6.288  0.5898  1.0095 -0.0904
 2440TIP3    H228736   1.429   4.543   6.365 -0.5964  0.3927  0.2024
 2441TIP3   OH228737   3.573   6.687  15.300 -0.4523 -0.1472 -0.3172
 2441TIP3    H128738   3.550   6.757  15.238  0.3383  0.9823  0.6211
 2441TIP3    H228739   3.522   6.707  15.378 -0.4410 -0.7999 -0.1433
 2442TIP3   OH228740   6.150   3.250   5.319  0.4348 -0.4689 -0.3004
 2442TIP3    H128741   6.104   3.202   5.251  1.5114 -1.0170 -0.6666
 2442TIP3    H228742   6.087   3.259   5.390 -1.0260  0.9005 -1.6855
 2443TIP3   OH228743   2.864   1.840  16.552 -0.1024  0.1932 -0.1681
 2443TIP3    H128744   2.869   1.933  16.575 -0.1469 -0.0454  0.8490
 2443TIP3    H228745   2.955   1.814  16.539  0.0515 -0.0269  1.2607
 2444TIP3   OH228746   0.782   3.261  13.455  0.5343 -0.4161 -0.1478
 2444TIP3    H128747   0.755   3.327  13.392 -0.5856 -2.0198 -1.4348
 2444TIP3    H228748   0.751   3.294  13.540 -1.4897 -0.0337 -0.9751
 2445TIP3   OH228749   5.319   2.866  14.998 -0.2299 -0.2980 -0.3660
 2445TIP3    H128750   5.278   2.949  15.021  0.5645 -0.3949  1.5649
 2445TIP3    H228751   5.412   2.888  14.986  0.7526 -1.3608  3.8124
 2446TIP3   OH228752   4.135   4.764   5.382 -0.3238  0.3925 -0.8433
 2446TIP3    H128753   4.074   4.786   5.452  1.2065 -1.4153  1.1958
 2446TIP3    H228754   4.103   4.680   5.348  1.8299 -1.4968  1.4513
 2447TIP3   OH228755   3.785   3.454  13.339  0.1401  0.2884 -0.3713
 2447TIP3    H128756   3.863   3.403  13.315  2.1116  3.5770 -1.5940
 2447TIP3    H228757   3.742   3.472  13.256  1.1781  3.0210 -0.3944
 2448TIP3   OH228758   0.960   2.530   4.547  0.3007 -0.2554  0.1478
 2448TIP3    H128759   0.930   2.591   4.479  0.6757 -0.0311  0.1812
 2448TIP3    H228760   0.929   2.445   4.518  0.1431 -0.1083 -0.1196
 2449TIP3   OH228761   3.834   2.972   5.343 -0.2696 -0.3806 -0.4434
 2449TIP3    H128762   3.763   3.009   5.396  0.4744 -0.0149  0.3139
 2449TIP3    H228763   3.819   3.009   5.255 -2.1121 -1.8099 -0.7896
 2450TIP3   OH228764   4.219   2.762  13.872  0.0463 -0.3136  0.4803
 2450TIP3    H128765   4.172   2.831  13.824  0.7126  0.2911  0.6664
 2450TIP3    H228766   4.183   2.766  13.960 -0.0269 -0.2997  0.4502
 2451TIP3   OH228767   1.673   4.075   4.384 -0.8087 -0.7635 -0.4321
 2451TIP3    H128768   1.652   4.003   4.325 -0.8392 -2.3806  1.4257
 2451TIP3    H228769   1.600   4.077   4.446  0.4002 -0.8434  1.0561
 2452TIP3   OH228770   2.178   5.818  14.360  0.2310 -0.2031 -0.4739
 2452TIP3    H128771   2.270   5.823  14.336  0.3204  0.8030  0.0527
 2452TIP3    H228772   2.131   5.838  14.280  0.4851  0.2462 -0.5102
 2453TIP3   OH228773   0.604   0.621  15.796  0.0062  0.1047 -0.2109
 2453TIP3    H128774   0.641   0.698  15.752  2.7137 -0.3734  1.0830
 2453TIP3    H228775   0.578   0.653  15.883 -2.8838  0.4268 -1.0561
 2454TIP3   OH228776   0.794   4.100  15.167 -0.3992  0.0847  0.1475
 2454TIP3    H128777   0.838   4.082  15.250 -1.0525 -0.4771  0.3786
 2454TIP3    H228778   0.852   4.160  15.121  0.0678  0.2317  0.9261
 2455TIP3   OH228779   1.784   2.010   2.760  0.1804  0.0028 -0.6028
 2455TIP3    H128780   1.726   2.079   2.727  0.2915 -0.0694 -0.9445
 2455TIP3    H228781   1.826   1.974   2.683 -0.5696 -1.0919 -0.5249
 2456TIP3   OH228782   3.090   6.329   1.100  0.6548  0.1805  0.0211
 2456TIP3    H128783   3.107   6.321   1.193 -0.3410  0.4881  0.2457
 2456TIP3    H228784   3.037   6.251   1.079 -0.5211  0.9373  0.0785
 2457TIP3   OH228785   5.841   6.793   1.546  0.3010  0.2631 -0.1754
 2457TIP3    H128786   5.783   6.798   1.622 -1.8868  2.0488 -1.8026
 2457TIP3    H228787   5.896   6.871   1.553  3.5986 -2.0315  2.0027
 2458TIP3   OH228788   6.228   0.423  14.362 -0.4180 -0.1545  0.6085
 2458TIP3    H128789   6.272   0.412  14.278 -1.4128 -4.1769  0.3847
 2458TIP3    H228790   6.299   0.422  14.427  0.1958 -3.4543  0.0712
 2459TIP3   OH228791   2.725   2.455  11.526  0.1797 -0.3203  0.0773
 2459TIP3    H128792   2.745   2.363  11.508  0.4850 -0.0663 -0.8786
 2459TIP3    H228793   2.771   2.473  11.608 -1.1937 -1.4613  1.1624
 2460TIP3   OH228794   3.849   5.332  10.815  0.2024  0.0324  0.1186
 2460TIP3    H128795   3.837   5.237  10.816  1.8906 -0.2282 -0.1332
 2460TIP3    H228796   3.846   5.356  10.723 -0.2103  0.2218  0.1811
 2461TIP3   OH228797   2.845   5.433  11.900  0.0139  0.3140 -0.4919
 2461TIP3    H128798   2.779   5.450  11.968  0.4454  1.0292 -0.2354
 2461TIP3    H228799   2.924   5.474  11.934  1.1758 -2.2797  0.1731
 2462TIP3   OH228800   6.804   0.553  11.819 -0.7800  0.0638 -0.0907
 2462TIP3    H128801   6.877   0.515  11.770 -0.8499 -0.3620  0.1221
 2462TIP3    H228802   6.837   0.637  11.851  0.6830 -1.3227  2.4323
 2463TIP3   OH228803   0.377   0.674   5.071  0.0443 -0.0983  0.2715
 2463TIP3    H128804   0.428   0.626   5.007 -0.0407  2.0442 -1.4974
 2463TIP3    H228805   0.295   0.624   5.079 -0.6255  0.4093 -2.5707
 2464TIP3   OH228806   3.887   1.128   2.878  0.4541  0.3116 -0.0626
 2464TIP3    H128807   3.806   1.178   2.867  0.7902  0.9068  0.1291
 2464TIP3    H228808   3.876   1.083   2.961  0.3593  0.4792  0.0180
 2465TIP3   OH228809   3.471   6.756   3.147  0.1570 -0.2382 -0.0661
 2465TIP3    H128810   3.406   6.802   3.201 -0.1606 -3.0093  2.1287
 2465TIP3    H228811   3.553   6.768   3.194  0.6190  0.3439 -0.9883
 2466TIP3   OH228812   4.618   2.785   2.592 -0.4792  0.1538  0.1402
 2466TIP3    H128813   4.552   2.854   2.595 -1.7295 -1.0007  0.1949
 2466TIP3    H228814   4.584   2.722   2.528  0.7137 -0.3419 -0.0351
 2467TIP3   OH228815   0.557   5.127   0.969  0.0179 -0.8047 -0.1047
 2467TIP3    H128816   0.520   5.060   0.910 -1.1599 -1.2617  1.0980
 2467TIP3    H228817   0.540   5.093   1.057  1.5509 -0.0362  0.5199
 2468TIP3   OH228818   1.808   4.173   2.993 -0.4236  0.2680  0.0110
 2468TIP3    H128819   1.884   4.158   2.937 -1.0630 -1.1587 -0.5406
 2468TIP3    H228820   1.739   4.199   2.932 -1.2171 -1.6217  0.0203
 2469TIP3   OH228821   4.454   2.131   3.287  0.2467 -0.4591 -0.4543
 2469TIP3    H128822   4.455   2.077   3.365  4.8601 -0.3715 -0.1873
 2469TIP3    H228823   4.438   2.070   3.215  0.0087 -1.2407  0.2571
 2470TIP3   OH228824   0.602   6.572   4.135  0.0191 -0.6803 -0.4826
 2470TIP3    H128825   0.545   6.627   4.081 -0.4847  0.0022  0.7117
 2470TIP3    H228826   0.561   6.571   4.221  0.8033 -1.7542 -0.0900
 2471TIP3   OH228827   0.038   6.699  13.536  0.2367 -0.0106  0.0983
 2471TIP3    H128828   0.023   6.792  13.555 -0.7444  0.1802 -1.3732
 2471TIP3    H228829   0.123   6.697  13.491 -1.0304  0.6666 -2.5612
 2472TIP3   OH228830   3.633   1.701  13.741  0.3906  0.0125  0.2470
 2472TIP3    H128831   3.592   1.619  13.769  0.3198  0.0544  0.2666
 2472TIP3    H228832   3.561   1.763  13.735  0.5603  0.3187  1.1183
 2473TIP3   OH228833   5.914   5.466   3.805 -0.3173  0.2722  0.2672
 2473TIP3    H128834   6.006   5.492   3.803  0.6074 -2.6645 -1.0636
 2473TIP3    H228835   5.880   5.503   3.887  1.9826  1.5062  0.7485
 2474TIP3   OH228836   0.057   0.340   4.744 -0.1129  0.1705 -0.1431
 2474TIP3    H128837   0.133   0.386   4.780 -1.8740  2.7443  0.5901
 2474TIP3    H228838   0.055   0.257   4.792  2.2413 -0.0299 -0.2727
 2475TIP3   OH228839   6.408   4.004  14.062 -0.2111  0.5790  0.2246
 2475TIP3    H128840   6.371   4.074  14.009 -0.0648  0.1736 -0.4277
 2475TIP3    H228841   6.459   3.951  14.000 -0.1412  0.0206  0.7447
 2476TIP3   OH228842   2.073   1.022   1.889  0.3944 -0.3525  0.1369
 2476TIP3    H128843   2.138   1.088   1.865  1.6428 -1.7266 -0.4703
 2476TIP3    H228844   2.025   1.006   1.809  0.2318 -0.3212  0.2290
 2477TIP3   OH228845   2.690   2.318   5.160  0.3370  0.1525  0.0521
 2477TIP3    H128846   2.718   2.362   5.080  2.2510 -0.3448  0.4053
 2477TIP3    H228847   2.618   2.372   5.193  2.5037  3.0862  0.4477
 2478TIP3   OH228848   4.385   6.575   0.508  0.2624 -0.0573  0.1298
 2478TIP3    H128849   4.356   6.486   0.530  0.2649  0.0528  0.5880
 2478TIP3    H228850   4.459   6.562   0.449 -0.4851 -0.3498 -0.7728
 2479TIP3   OH228851   6.122   1.393   5.563  0.3344  0.2505 -0.2494
 2479TIP3    H128852   6.170   1.364   5.641 -2.2579  0.1341  1.4580
 2479TIP3    H228853   6.068   1.466   5.594 -1.6905 -0.5785 -1.5753
 2480TIP3   OH228854   0.115   2.701   0.165 -0.1592 -0.0288  0.9133
 2480TIP3    H128855   0.084   2.716   0.076  1.0548  0.0383  0.4802
 2480TIP3    H228856   0.038   2.670   0.213 -0.9187  0.3372 -0.0526
 2481TIP3   OH228857   6.702   4.535  13.162 -0.1682 -0.0848 -0.3417
 2481TIP3    H128858   6.660   4.525  13.076 -1.2620 -0.2195  0.1884
 2481TIP3    H228859   6.788   4.571  13.142 -0.3215 -0.3096 -1.5128
 2482TIP3   OH228860   5.558   5.055  10.819 -0.3098 -0.1744  0.2912
 2482TIP3    H128861   5.622   5.120  10.793 -0.8672  0.3120  0.1057
 2482TIP3    H228862   5.492   5.057  10.749 -1.2221  0.3103  1.1398
 2483TIP3   OH228863   2.125   2.918  15.792 -0.1503  0.4858 -0.1552
 2483TIP3    H128864   2.033   2.934  15.772  0.0289  0.9012 -0.6507
 2483TIP3    H228865   2.162   2.885  15.711 -0.5583 -2.8884  0.8543
 2484TIP3   OH228866   6.649   1.371  13.006 -0.6600 -0.2557 -0.2274
 2484TIP3    H128867   6.679   1.338  12.921 -0.9027 -2.0254  0.3391
 2484TIP3    H228868   6.559   1.400  12.991 -1.3401 -2.2100 -0.2358
 2485TIP3   OH228869   0.978   1.513  16.954 -0.0809  0.2084  0.2489
 2485TIP3    H128870   0.887   1.540  16.968 -0.6347 -0.6695 -1.3523
 2485TIP3    H228871   0.988   1.432  17.005 -0.4861 -0.1758 -0.2711
 2486TIP3   OH228872   3.214   3.298  13.533  0.4712  0.1780  0.3238
 2486TIP3    H128873   3.296   3.302  13.583  1.3290  1.4724 -1.0820
 2486TIP3    H228874   3.214   3.211  13.493  1.3900  0.3149  0.0001
 2487TIP3   OH228875   2.725   5.512  15.125 -0.2804 -0.3161 -0.3449
 2487TIP3    H128876   2.757   5.518  15.215  0.5006 -0.9733 -0.5658
 2487TIP3    H228877   2.630   5.502  15.134 -0.2077 -0.3749  0.4083
 2488TIP3   OH228878   2.422   3.845   2.218 -0.4967 -0.7755 -0.0975
 2488TIP3    H128879   2.427   3.882   2.130  0.1551  2.6988  1.1977
 2488TIP3    H228880   2.497   3.884   2.264 -1.4378 -1.5633  2.2602
 2489TIP3   OH228881   3.322   2.553   2.158  0.1182 -0.2074  0.1692
 2489TIP3    H128882   3.324   2.462   2.187  0.2528 -0.9626 -2.0647
 2489TIP3    H228883   3.358   2.551   2.070 -0.6233  1.9039 -0.2346
 2490TIP3   OH228884   0.230   5.935  11.515 -0.1598 -0.2066 -0.2853
 2490TIP3    H128885   0.283   5.961  11.440 -1.5976  0.9298 -0.9644
 2490TIP3    H228886   0.293   5.929  11.588  0.7393  2.7343 -0.6618
 2491TIP3   OH228887   6.086   1.561   3.539 -0.9182  0.1569  0.2422
 2491TIP3    H128888   6.041   1.518   3.612  2.3903 -0.6938  1.9744
 2491TIP3    H228889   6.044   1.526   3.461 -1.2559 -2.9293  1.6576
 2492TIP3   OH228890   0.372   4.033  15.771  0.4485 -0.2080  0.0761
 2492TIP3    H128891   0.281   4.017  15.797  0.1553 -2.7161 -2.0864
 2492TIP3    H228892   0.366   4.069  15.683  1.5517  2.3306  0.9593
 2493TIP3   OH228893   1.038   2.355  17.026 -0.4713 -0.3610  0.0759
 2493TIP3    H128894   0.991   2.420  17.079  0.2163  1.2823 -1.2233
 2493TIP3    H228895   1.120   2.399  17.003 -0.6394 -1.0820 -2.1543
 2494TIP3   OH228896   0.661   5.204  10.667 -0.0504  0.0409  0.5496
 2494TIP3    H128897   0.729   5.145  10.632  0.4640  0.4682  0.8195
 2494TIP3    H228898   0.705   5.252  10.737 -0.7856 -0.0556  1.0827
 2495TIP3   OH228899   4.970   2.383  13.369 -0.4069  0.0140 -0.1068
 2495TIP3    H128900   4.973   2.337  13.453  1.0165  1.1378  0.5169
 2495TIP3    H228901   4.884   2.424  13.367 -0.5280 -0.1779  0.7151
 2496TIP3   OH228902   5.906   3.802  12.026 -0.5266 -0.2021  0.0541
 2496TIP3    H128903   5.991   3.836  11.999 -0.0836 -3.4991 -3.6437
 2496TIP3    H228904   5.843   3.846  11.969 -1.0179  0.3615  1.0061
 2497TIP3   OH228905   2.224   6.379  15.947  0.0392 -0.2090  0.9379
 2497TIP3    H128906   2.256   6.427  15.871  0.3493  0.9007  1.7599
 2497TIP3    H228907   2.160   6.437  15.988 -1.6155 -1.5739  0.4633
 2498TIP3   OH228908   0.283   3.476  13.077  0.3674 -0.2626 -0.6097
 2498TIP3    H128909   0.277   3.477  12.982  0.8313  0.9363 -0.6337
 2498TIP3    H228910   0.201   3.436  13.106  0.4098 -1.0328 -1.5151
 2499TIP3   OH228911   5.075   1.374  10.658 -0.0047 -0.0492  0.0247
 2499TIP3    H128912   5.135   1.446  10.636 -0.3284 -0.2713 -1.7123
 2499TIP3    H228913   5.128   1.315  10.713  1.4501 -0.3047 -1.5654
 2500TIP3   OH228914   6.246   5.003  15.918 -0.5792 -0.0694 -0.2566
 2500TIP3    H128915   6.285   5.026  16.003  0.2824 -0.5571 -0.5089
 2500TIP3    H228916   6.164   4.959  15.941 -0.0903 -0.6935  0.3503
 2501TIP3   OH228917   3.008   6.728   5.849 -0.5042 -0.2242  0.5001
 2501TIP3    H128918   3.034   6.799   5.791 -1.7216  0.5510  0.8821
 2501TIP3    H228919   3.023   6.761   5.937  2.2623 -1.7440  0.7117
 2502TIP3   OH228920   1.940   4.104  12.325  0.4752 -0.0923  0.5323
 2502TIP3    H128921   1.957   4.041  12.395 -0.6939 -0.3192  0.6354
 2502TIP3    H228922   1.866   4.067  12.278  2.3445 -0.8749 -1.9907
 2503TIP3   OH228923   1.783   2.830   0.832  0.2574 -0.5108 -0.0636
 2503TIP3    H128924   1.743   2.823   0.746 -1.1483  0.9626  0.4268
 2503TIP3    H228925   1.845   2.757   0.835 -0.0235 -0.9047 -2.1041
 2504TIP3   OH228926   2.696   2.214   2.703 -0.7376 -0.2510 -0.4936
 2504TIP3    H128927   2.661   2.235   2.616 -2.3544 -0.2925  0.1194
 2504TIP3    H228928   2.753   2.288   2.724 -1.7057  0.6332 -0.8702
 2505TIP3   OH228929   6.112   5.280  14.923 -0.5893 -1.0007 -0.8025
 2505TIP3    H128930   6.154   5.193  14.924  1.2924 -0.1691 -2.1449
 2505TIP3    H228931   6.083   5.291  14.833  1.5257  0.7531 -1.3595
 2506TIP3   OH228932   0.385   5.656   2.834 -0.2966  0.1182 -0.1419
 2506TIP3    H128933   0.474   5.653   2.798 -1.0096  0.1193 -1.9749
 2506TIP3    H228934   0.337   5.590   2.786 -1.2000 -0.2254  1.1816
 2507TIP3   OH228935   1.515   0.569  15.968 -0.0552 -0.0596  0.3969
 2507TIP3    H128936   1.582   0.507  15.997  1.2812  0.9876 -0.3058
 2507TIP3    H228937   1.531   0.579  15.874 -1.1433  0.2931  0.2386
 2508TIP3   OH228938   3.243   2.524  16.995  0.4274  0.0018 -0.3930
 2508TIP3    H128939   3.202   2.447  16.955 -0.5062 -0.1389  0.7850
 2508TIP3    H228940   3.336   2.501  17.002  0.0605 -1.3096  0.5307
 2509TIP3   OH228941   1.241   3.284  12.042  0.4426 -0.5528 -0.0063
 2509TIP3    H128942   1.180   3.275  12.115  0.7429 -1.4913  0.1370
 2509TIP3    H228943   1.244   3.378  12.025 -2.2656 -0.5453 -1.0396
 2510TIP3   OH228944   1.410   5.533  16.869 -0.3985 -0.4938 -0.0703
 2510TIP3    H128945   1.381   5.495  16.787  1.5891  0.0579 -1.1068
 2510TIP3    H228946   1.445   5.459  16.919  2.0669 -0.3549 -1.4493
 2511TIP3   OH228947   1.917   4.382   4.614  0.1536 -0.1458 -0.5287
 2511TIP3    H128948   1.930   4.337   4.531  0.3645  1.4870 -1.4182
 2511TIP3    H228949   1.839   4.435   4.602 -1.8804 -2.4104  1.5067
 2512TIP3   OH228950   4.890   1.036  14.971  0.2156 -0.0596  0.1334
 2512TIP3    H128951   4.950   1.044  14.896  1.9897 -0.4056  1.4423
 2512TIP3    H228952   4.858   0.947  14.967 -1.2916  0.5084 -1.3187
 2513TIP3   OH228953   5.669   3.546  12.180  0.7452 -0.6135 -0.2246
 2513TIP3    H128954   5.622   3.507  12.254 -0.0516 -0.0059 -0.4027
 2513TIP3    H228955   5.742   3.593  12.220 -0.1795  0.4519  0.2835
 2514TIP3   OH228956   4.207   6.367  13.378  0.0278 -0.1982 -0.0407
 2514TIP3    H128957   4.144   6.345  13.310  0.9026  0.3698 -1.0705
 2514TIP3    H228958   4.288   6.322  13.352  0.8392  1.3324 -0.2967
 2515TIP3   OH228959   4.326   2.854   1.601  0.1393 -0.8642 -0.2489
 2515TIP3    H128960   4.252   2.845   1.661  0.4199 -0.3326  0.1860
 2515TIP3    H228961   4.356   2.944   1.613  0.2145 -0.7538 -1.1770
 2516TIP3   OH228962   1.349   3.587   4.565 -0.5435  0.2709  0.6469
 2516TIP3    H128963   1.421   3.554   4.619 -0.1354  0.3178  0.1377
 2516TIP3    H228964   1.384   3.589   4.476 -1.0149  0.7651  0.4655
 2517TIP3   OH228965   1.677   1.450  15.151 -0.1259  0.2099 -0.0517
 2517TIP3    H128966   1.671   1.480  15.242 -0.5502  0.1078 -0.0436
 2517TIP3    H228967   1.768   1.422  15.141 -0.4714 -1.3699  0.8412
 2518TIP3   OH228968   1.588   1.111  16.616 -0.5175  0.5045 -0.0775
 2518TIP3    H128969   1.586   1.020  16.646 -1.8629  0.7627  0.7145
 2518TIP3    H228970   1.679   1.138  16.627  0.0692 -0.9584 -1.0352
 2519TIP3   OH228971   0.879   5.797   4.117 -0.0130  0.5873  0.2951
 2519TIP3    H128972   0.816   5.797   4.189 -0.5760  1.7672 -0.1552
 2519TIP3    H228973   0.828   5.828   4.042  0.3875 -1.2735 -0.7923
 2520TIP3   OH228974   0.029   5.022  11.556 -0.6842 -0.1382 -0.2646
 2520TIP3    H128975   0.084   4.944  11.549  0.2134  0.3867  0.8152
 2520TIP3    H228976   0.089   5.093  11.575 -1.4875  0.8558 -1.2901
 2521TIP3   OH228977   1.270   2.190  14.238 -0.3612  0.3837  0.7506
 2521TIP3    H128978   1.310   2.219  14.320  1.6483 -1.4651  0.5363
 2521TIP3    H228979   1.258   2.096  14.250 -0.8632  0.2282 -0.7519
 2522TIP3   OH228980   0.375   1.631   0.609  0.5710  0.3294 -0.1918
 2522TIP3    H128981   0.392   1.641   0.515  2.0031  0.6009  0.0698
 2522TIP3    H228982   0.359   1.720   0.640  0.7280  0.3200 -0.0796
 2523TIP3   OH228983   3.471   1.850   0.235 -0.1911 -0.0622 -0.1777
 2523TIP3    H128984   3.418   1.863   0.156  0.2997  0.8397 -0.3695
 2523TIP3    H228985   3.532   1.924   0.235  1.5750 -1.4656 -0.3641
 2524TIP3   OH228986   0.012   5.840   6.405 -0.5473  0.0651  0.8394
 2524TIP3    H128987   0.014   5.761   6.459 -1.2900 -0.7341 -0.2492
 2524TIP3    H228988  -0.081   5.861   6.398 -0.3771  0.8174  0.8092
 2525TIP3   OH228989   3.420   2.463   0.698  0.3454 -0.4893 -0.2126
 2525TIP3    H128990   3.439   2.531   0.762  0.3160  0.5421 -1.2588
 2525TIP3    H228991   3.448   2.500   0.614 -0.5391 -1.3875 -0.9434
 2526TIP3   OH228992   1.147   6.289  10.554 -0.0761 -0.3748 -0.0142
 2526TIP3    H128993   1.137   6.204  10.511  0.1882 -0.5135  0.1964
 2526TIP3    H228994   1.177   6.268  10.642 -0.2768 -0.0738  0.1259
 2527TIP3   OH228995   0.639   0.813   5.194 -0.3346 -0.3143  0.4357
 2527TIP3    H128996   0.614   0.888   5.248  0.6469  0.8031 -0.6137
 2527TIP3    H228997   0.638   0.739   5.255 -3.5061  0.0628  1.0362
 2528TIP3   OH228998   0.505   5.034   3.378 -0.6862 -0.3086 -0.3103
 2528TIP3    H128999   0.430   5.091   3.364 -0.8059 -0.0460  1.2232
 2528TIP3    H229000   0.501   5.012   3.471  1.7937  0.6713  0.0999
 2529TIP3   OH229001   2.511   1.258  16.258 -0.5450 -0.3409 -0.0990
 2529TIP3    H129002   2.493   1.271  16.165  1.3512 -0.5714 -0.5552
 2529TIP3    H229003   2.568   1.181  16.260 -0.3940 -0.2137  1.2332
 2530TIP3   OH229004   3.795   1.977  13.118  0.1666 -0.0411  0.9013
 2530TIP3    H129005   3.845   1.940  13.046  0.2431 -1.9530  1.8858
 2530TIP3    H229006   3.861   1.996  13.186 -0.1895 -0.8251  1.4870
 2531TIP3   OH229007   0.382   6.618  14.718  0.2815  0.5531  0.3287
 2531TIP3    H129008   0.289   6.628  14.701 -0.2900 -1.9992  1.5056
 2531TIP3    H229009   0.393   6.642  14.810  0.2285 -1.6656  0.9688
 2532TIP3   OH229010   0.081   4.432  14.389  0.7807 -0.4932  0.0867
 2532TIP3    H129011   0.021   4.369  14.349 -0.2141  0.5189 -0.1017
 2532TIP3    H229012   0.071   4.511  14.335  0.7711  0.3376  1.2619
 2533TIP3   OH229013   4.605   3.876  14.786 -0.0767  0.1683 -0.4401
 2533TIP3    H129014   4.686   3.862  14.737  0.7263  0.6364  0.7233
 2533TIP3    H229015   4.617   3.960  14.830 -0.2553 -0.7842  1.5296
 2534TIP3   OH229016   1.814   1.633   3.761 -0.6321  0.4061  0.5918
 2534TIP3    H129017   1.853   1.554   3.798  1.6206  1.3891  0.4984
 2534TIP3    H229018   1.834   1.629   3.667  0.5559  1.5963  0.7600
 2535TIP3   OH229019   2.817   4.781  11.499  0.8122  0.4443 -0.0066
 2535TIP3    H129020   2.736   4.731  11.488  0.1624  1.5763 -0.5270
 2535TIP3    H229021   2.870   4.759  11.422  0.3817  0.8152 -0.4140
 2536TIP3   OH229022   3.693   3.482  11.065  0.3005 -0.1464 -0.6758
 2536TIP3    H129023   3.635   3.433  11.007 -0.1923 -1.0153  0.4994
 2536TIP3    H229024   3.655   3.570  11.068 -0.1138 -0.3059 -1.0636
 2537TIP3   OH229025   0.506   2.988   1.730  0.0993  0.1692  0.0804
 2537TIP3    H129026   0.418   2.996   1.691 -0.8726  1.3165  2.3036
 2537TIP3    H229027   0.516   2.894   1.747 -0.4981 -0.0333 -0.6068
 2538TIP3   OH229028   6.110   4.017  16.946  0.1846  0.5291 -1.2161
 2538TIP3    H129029   6.041   3.988  16.887 -0.9764  0.3806  0.1589
 2538TIP3    H229030   6.118   4.111  16.929  0.1778  0.4053 -1.9130
 2539TIP3   OH229031   4.975   5.413   5.966 -0.1246 -0.1545  0.3459
 2539TIP3    H129032   4.899   5.448   6.011  0.3490  0.5978  0.5750
 2539TIP3    H229033   4.957   5.319   5.958 -0.8497 -0.0643  0.8290
 2540TIP3   OH229034   1.567   2.796  10.522 -0.1649  0.0319  0.2989
 2540TIP3    H129035   1.490   2.739  10.519 -1.5535  1.8102 -0.6062
 2540TIP3    H229036   1.549   2.857  10.594  0.1548  0.7551 -0.2136
 2541TIP3   OH229037   5.712   5.440  14.380 -0.0857  0.4732 -0.8968
 2541TIP3    H129038   5.700   5.487  14.297  1.0032  1.4965 -0.4890
 2541TIP3    H229039   5.745   5.506  14.440 -0.0417 -0.4714  0.1304
 2542TIP3   OH229040   5.023   4.289  14.662 -0.0179  0.1749 -0.3598
 2542TIP3    H129041   5.042   4.195  14.667 -2.9868 -0.4749  2.7042
 2542TIP3    H229042   5.096   4.331  14.706  0.1951 -0.9777  0.4354
 2543TIP3   OH229043   4.017   2.762  11.593 -0.3137  0.2167 -0.4550
 2543TIP3    H129044   3.972   2.726  11.669 -0.2062  1.2136  0.0978
 2543TIP3    H229045   3.947   2.790  11.534 -0.3971 -0.5569 -0.7387
 2544TIP3   OH229046   1.219   4.820  12.803  0.0128 -0.5863 -0.1430
 2544TIP3    H129047   1.272   4.880  12.856 -0.9310 -0.3246  0.5319
 2544TIP3    H229048   1.251   4.832  12.714  0.1002  0.6447  0.0416
 2545TIP3   OH229049   4.908   3.056   3.807  0.0315  0.5511 -0.2130
 2545TIP3    H129050   4.954   2.972   3.803 -0.1877  0.4801 -1.3684
 2545TIP3    H229051   4.953   3.105   3.876  2.4860  0.8729 -1.9590
 2546TIP3   OH229052   4.222   4.860  16.826 -0.3161 -0.3077 -0.2275
 2546TIP3    H129053   4.271   4.784  16.855  0.0262  0.4853  1.3428
 2546TIP3    H229054   4.134   4.827  16.808 -0.5574 -0.8507  1.7863
 2547TIP3   OH229055   4.365   4.479   3.810 -0.0540 -0.6798  0.4417
 2547TIP3    H129056   4.410   4.550   3.855 -0.3958 -0.1052 -0.1004
 2547TIP3    H229057   4.417   4.401   3.830 -0.3104 -0.4805  1.9646
 2548TIP3   OH229058   4.494   5.258  16.208  0.1073  0.3215  0.2176
 2548TIP3    H129059   4.491   5.203  16.286  0.3838 -1.3355 -0.8723
 2548TIP3    H229060   4.403   5.264  16.179  0.1425 -0.0633  0.0203
 2549TIP3   OH229061   0.187   3.745   5.138 -0.2950 -0.4738  0.0641
 2549TIP3    H129062   0.268   3.709   5.173 -0.3249 -0.5999  0.0044
 2549TIP3    H229063   0.117   3.698   5.184 -0.3332 -0.3530  0.1279
 2550TIP3   OH229064   4.304   4.079  14.823 -0.2452 -0.0668  0.0844
 2550TIP3    H129065   4.321   3.989  14.796  1.0784 -0.0678  0.8669
 2550TIP3    H229066   4.261   4.071  14.908 -1.2325  0.0266 -0.3926
 2551TIP3   OH229067   6.405   3.706  11.558  0.0130  0.3287  0.4180
 2551TIP3    H129068   6.415   3.621  11.515 -1.3878 -0.0698  0.8186
 2551TIP3    H229069   6.494   3.735  11.575  0.7463  0.9201 -3.5067
 2552TIP3   OH229070   4.333   4.181   5.550 -0.5272 -0.0421 -0.3434
 2552TIP3    H129071   4.396   4.253   5.540 -0.7239  0.3461  1.0908
 2552TIP3    H229072   4.379   4.105   5.513  0.9129  0.1794  0.8869
 2553TIP3   OH229073   2.909   3.928   0.056  0.0410 -0.1623  0.0483
 2553TIP3    H129074   2.875   3.862  -0.004 -0.2852  0.6363 -0.6727
 2553TIP3    H229075   2.835   3.988   0.069  0.8583  1.0919 -0.8022
 2554TIP3   OH229076   0.475   2.547   5.807 -0.9153 -0.0053  0.3282
 2554TIP3    H129077   0.473   2.546   5.711  1.4303 -0.7718  0.2053
 2554TIP3    H229078   0.542   2.482   5.829 -0.1754  1.3947  2.4227
 2555TIP3   OH229079   4.661   0.772   3.960 -0.2453 -0.3246  0.0048
 2555TIP3    H129080   4.694   0.710   3.895  0.8838 -0.7583  0.9569
 2555TIP3    H229081   4.582   0.731   3.994 -1.4394  0.3728 -1.7716
 2556TIP3   OH229082   5.667   0.331  15.092  0.1011 -0.2330  0.0563
 2556TIP3    H129083   5.678   0.352  14.999 -0.1582 -0.2443  0.0247
 2556TIP3    H229084   5.649   0.415  15.134  0.4016 -0.2005  0.1252
 2557TIP3   OH229085   5.028   6.640   5.039  0.6773  0.4227 -0.2085
 2557TIP3    H129086   5.044   6.546   5.028  0.1789  0.0750  1.5898
 2557TIP3    H229087   4.947   6.644   5.091 -0.2822  1.9089 -1.7014
 2558TIP3   OH229088   6.779   3.888  16.992 -0.6216  0.3304 -0.7078
 2558TIP3    H129089   6.860   3.842  16.967 -0.3110  1.5928 -2.1962
 2558TIP3    H229090   6.728   3.822  17.039  0.9290 -0.7362 -0.4090
 2559TIP3   OH229091   3.863   6.002  12.522 -0.3857 -0.2915  0.0780
 2559TIP3    H129092   3.886   6.087  12.559 -0.4884 -0.7792  1.2941
 2559TIP3    H229093   3.867   5.941  12.596 -1.1861 -1.1906 -0.5918
 2560TIP3   OH229094   2.163   2.446   4.443 -0.1181 -0.7847 -0.1838
 2560TIP3    H129095   2.187   2.409   4.528  0.9312  0.1061 -0.0770
 2560TIP3    H229096   2.113   2.525   4.464 -0.6883 -1.0728 -0.4126
 2561TIP3   OH229097   2.543   2.751   2.055  0.3014  0.0200  0.4093
 2561TIP3    H129098   2.510   2.742   2.144  0.2703  1.4678  0.5651
 2561TIP3    H229099   2.466   2.740   1.999  0.0794  0.4180  0.6308
 2562TIP3   OH229100   6.516   5.466  12.476 -0.6813 -0.5616 -0.2295
 2562TIP3    H129101   6.514   5.515  12.559 -0.5404  1.1953 -1.2213
 2562TIP3    H229102   6.544   5.378  12.502 -1.0237 -0.1774  1.6394
 2563TIP3   OH229103   6.425   5.694   4.977  0.4416 -0.0617 -0.0947
 2563TIP3    H129104   6.446   5.781   5.011  1.9084 -1.0522  1.6973
 2563TIP3    H229105   6.329   5.693   4.970  0.4262  1.8002 -0.5051
 2564TIP3   OH229106   5.133   0.132   3.721 -0.3383 -0.3225  0.6049
 2564TIP3    H129107   5.153   0.149   3.628 -1.4439  2.2023  0.7492
 2564TIP3    H229108   5.196   0.185   3.769 -1.0266 -0.0904  1.2617
 2565TIP3   OH229109   3.145   5.344  16.027  0.0305 -0.3818  0.2107
 2565TIP3    H129110   3.182   5.391  16.102  0.3591 -1.2339  0.5994
 2565TIP3    H229111   3.191   5.260  16.027 -0.1944 -0.5132 -0.7608
 2566TIP3   OH229112   4.017   5.150   1.019  0.5434  0.1645  0.6877
 2566TIP3    H129113   4.039   5.060   1.042  0.4800  0.5074  2.1978
 2566TIP3    H229114   3.924   5.147   0.997  0.4916 -0.1184  0.9303
 2567TIP3   OH229115   2.860   5.553  11.499  0.5836 -0.2177 -0.7897
 2567TIP3    H129116   2.808   5.541  11.419  1.2126 -1.0902 -1.0866
 2567TIP3    H229117   2.803   5.601  11.558  0.4123  1.2355 -2.0737
 2568TIP3   OH229118   4.539   2.847   4.540 -0.3532  0.3335 -0.0557
 2568TIP3    H129119   4.585   2.922   4.578  0.4724 -1.1079  1.9322
 2568TIP3    H229120   4.598   2.773   4.552 -1.1761 -0.6894 -1.9060
 2569TIP3   OH229121   4.404   2.682   5.216 -0.1609  0.6624  0.5789
 2569TIP3    H129122   4.456   2.762   5.227 -0.3902  0.9477 -0.3076
 2569TIP3    H229123   4.375   2.660   5.304  1.3240  0.5875  1.0891
 2570TIP3   OH229124   2.741   1.163   0.883  0.3597 -0.2068  0.1930
 2570TIP3    H129125   2.663   1.132   0.838  1.5051 -0.6773 -1.5965
 2570TIP3    H229126   2.782   1.084   0.917  1.3269 -0.3102 -1.1028
 2571TIP3   OH229127   6.635   2.146  13.664 -0.4287 -0.4403 -0.6176
 2571TIP3    H129128   6.592   2.065  13.637  1.6677 -0.9398 -2.7722
 2571TIP3    H229129   6.728   2.131  13.646  0.4747  1.2823  2.0220
 2572TIP3   OH229130   5.100   1.039  12.096  0.1049 -0.1951 -0.1593
 2572TIP3    H129131   5.036   1.110  12.107  0.3046  0.0306 -0.4264
 2572TIP3    H229132   5.154   1.068  12.023  0.2216 -0.6025 -0.2330
 2573TIP3   OH229133   2.860   0.409   5.956 -0.0323 -0.3341  0.1032
 2573TIP3    H129134   2.778   0.363   5.970  0.9951 -2.1128  0.5665
 2573TIP3    H229135   2.854   0.487   6.012 -1.4314 -0.3870  0.0456
 2574TIP3   OH229136   2.525   1.186  17.024 -0.5251  0.5727 -0.2373
 2574TIP3    H129137   2.614   1.193  17.060 -0.0428 -1.8917 -0.7791
 2574TIP3    H229138   2.529   1.111  16.965 -2.5633  1.4824 -1.6382
 2575TIP3   OH229139   4.614   1.839   3.700  0.1088  0.3523  0.1633
 2575TIP3    H129140   4.636   1.805   3.787 -0.1579  0.1080  0.1386
 2575TIP3    H229141   4.639   1.768   3.641  1.4652  1.0074 -0.0792
 2576TIP3   OH229142   2.351   0.935  11.962  0.1759 -0.0913 -0.3403
 2576TIP3    H129143   2.331   0.986  12.040 -2.9811 -1.1289 -0.3676
 2576TIP3    H229144   2.438   0.899  11.979  0.8600  2.1249  1.3230
 2577TIP3   OH229145   2.650   0.402   2.721  0.1611  0.1039 -0.4790
 2577TIP3    H129146   2.675   0.429   2.809 -0.7710 -1.4990  0.3125
 2577TIP3    H229147   2.642   0.484   2.672  0.3978  1.0385  0.9898
 2578TIP3   OH229148   0.329   2.287  14.668  0.6235 -0.1117  0.3333
 2578TIP3    H129149   0.327   2.370  14.715  0.0905 -0.5913  1.1956
 2578TIP3    H229150   0.418   2.254  14.680  0.6761  0.0765  0.4577
 2579TIP3   OH229151   0.819   2.237   2.401 -0.2346  0.2835 -0.9425
 2579TIP3    H129152   0.896   2.246   2.457  0.8622 -2.0512 -1.9531
 2579TIP3    H229153   0.838   2.294   2.326 -0.6267  1.5407 -0.1315
 2580TIP3   OH229154   2.512   4.225   3.324 -0.9022  0.9373 -0.2612
 2580TIP3    H129155   2.487   4.318   3.324 -0.6338  1.0161  0.5227
 2580TIP3    H229156   2.579   4.219   3.392 -0.0458  0.3950 -1.1403
 2581TIP3   OH229157   2.208   6.741   5.731  0.0460 -0.1611  0.0541
 2581TIP3    H129158   2.218   6.763   5.639 -0.5296  1.7301  0.4148
 2581TIP3    H229159   2.293   6.761   5.770 -0.3325  1.0610  0.2924
 2582TIP3   OH229160   0.110   5.424   5.611  0.5093 -0.2241  0.2888
 2582TIP3    H129161   0.138   5.452   5.523  2.0710  0.8624  1.0846
 2582TIP3    H229162   0.178   5.456   5.669  0.4360 -2.4742  1.7419
 2583TIP3   OH229163   5.602   3.207  13.687 -0.1657 -0.5314 -0.0035
 2583TIP3    H129164   5.568   3.173  13.770 -1.1431  0.7037  0.1259
 2583TIP3    H229165   5.550   3.285  13.669  1.5821  0.5823 -0.5810
 2584TIP3   OH229166   4.774   5.742  11.878 -0.3356 -0.2856 -0.2855
 2584TIP3    H129167   4.747   5.796  11.952 -1.1254 -0.1435 -0.6637
 2584TIP3    H229168   4.869   5.733  11.888 -0.3646  0.1446  0.4617
 2585TIP3   OH229169   5.906   5.069   5.984  0.6129 -0.0260  0.0474
 2585TIP3    H129170   5.914   5.063   6.079  1.9217 -1.1472 -0.0981
 2585TIP3    H229171   5.853   5.147   5.969 -1.1935 -0.8275  1.7455
 2586TIP3   OH229172   2.434   6.656  15.202 -0.5004 -0.0760  0.1583
 2586TIP3    H129173   2.475   6.610  15.275 -0.8602 -0.9654 -0.1811
 2586TIP3    H229174   2.389   6.730  15.242  0.9199  0.5892  0.6051
 2587TIP3   OH229175   5.069   0.342  13.587  0.3144  0.2645  0.1541
 2587TIP3    H129176   5.164   0.349  13.596  0.5316 -1.3615 -0.4656
 2587TIP3    H229177   5.034   0.420  13.630  1.9149  0.7623  0.6003
 2588TIP3   OH229178   0.292   5.454   2.305  0.3617  0.7693 -0.5657
 2588TIP3    H129179   0.201   5.454   2.336  0.7833  0.3451  0.7355
 2588TIP3    H229180   0.323   5.365   2.322  0.8275  0.7052 -1.6494
 2589TIP3   OH229181   0.083   5.686  16.541  0.4166 -0.1568  0.9316
 2589TIP3    H129182  -0.011   5.667  16.533  0.5842 -0.5775 -0.2985
 2589TIP3    H229183   0.093   5.773  16.504  0.7354 -0.7943 -0.5514
 2590TIP3   OH229184   5.575   0.689  14.818  0.2380  0.5542  0.0486
 2590TIP3    H129185   5.480   0.685  14.819  0.2561 -0.2117 -0.1814
 2590TIP3    H229186   5.596   0.782  14.818 -0.5263  0.7383 -1.0198
 2591TIP3   OH229187   6.307   5.733   1.548 -0.1921  0.1016 -0.4990
 2591TIP3    H129188   6.337   5.748   1.459  1.6134  1.1306  0.2345
 2591TIP3    H229189   6.269   5.645   1.546 -0.5810  0.2721 -2.3548
 2592TIP3   OH229190   2.494   3.524   3.077 -0.0544 -0.1372  0.8165
 2592TIP3    H129191   2.506   3.550   3.168  0.1591 -1.4538  1.1857
 2592TIP3    H229192   2.563   3.570   3.029 -0.5155  1.0057  1.2049
 2593TIP3   OH229193   3.777   2.770  15.317 -0.4825 -0.1312 -0.3400
 2593TIP3    H129194   3.872   2.762  15.310 -0.5329 -0.1654 -1.0383
 2593TIP3    H229195   3.759   2.860  15.289 -0.7942 -0.6152 -1.7577
 2594TIP3   OH229196   3.029   3.588  12.976  0.2650 -0.3347  0.3022
 2594TIP3    H129197   2.986   3.673  12.986  1.3445  0.3550 -0.7230
 2594TIP3    H229198   2.975   3.540  12.913  0.3029  0.0418 -0.0157
 2595TIP3   OH229199   6.654   5.018   2.009 -0.2716  0.3897  0.2953
 2595TIP3    H129200   6.633   4.945   2.067 -3.3349 -1.6825 -2.9625
 2595TIP3    H229201   6.744   5.004   1.983 -0.2215 -1.1291  1.2179
 2596TIP3   OH229202   1.253   2.533   5.073  0.1321 -0.1468 -0.1629
 2596TIP3    H129203   1.257   2.545   4.978  1.3096 -1.3297 -0.2901
 2596TIP3    H229204   1.333   2.487   5.095 -0.3923 -0.4010  1.3418
 2597TIP3   OH229205   5.680   2.179   2.038  0.7753  0.0281  0.0705
 2597TIP3    H129206   5.646   2.262   2.004  4.2279  1.5688 -0.0403
 2597TIP3    H229207   5.775   2.191   2.040  1.4452 -3.9791  0.0631
 2598TIP3   OH229208   6.061   5.983   5.477 -0.4425  0.0809  0.1471
 2598TIP3    H129209   6.153   6.008   5.461  0.0088 -1.2362  0.5553
 2598TIP3    H229210   6.040   6.025   5.560 -0.1174  0.1712  0.1884
 2599TIP3   OH229211   3.880   1.090   1.796  0.3841 -0.3967  0.5593
 2599TIP3    H129212   3.918   1.097   1.708  0.8575 -1.6853  0.6488
 2599TIP3    H229213   3.956   1.083   1.854  0.1436  1.8072  1.2542
 2600TIP3   OH229214   4.858   2.678   2.214  0.0090 -0.4161  0.5668
 2600TIP3    H129215   4.838   2.713   2.128  1.3834 -1.2022 -0.1019
 2600TIP3    H229216   4.772   2.668   2.256 -0.8043 -1.1298 -1.1538
 2601TIP3   OH229217   0.766   1.684  12.895 -0.5378 -0.0742  0.0357
 2601TIP3    H129218   0.709   1.657  12.967 -0.7006 -2.3785 -0.8606
 2601TIP3    H229219   0.717   1.753  12.850 -1.0128  0.4673  1.3359
 2602TIP3   OH229220   0.754   6.018   3.241 -0.0983 -0.6151  0.2423
 2602TIP3    H129221   0.811   5.955   3.198 -0.3289 -0.4309 -0.3395
 2602TIP3    H229222   0.739   5.981   3.328  0.2006 -1.0918  0.0941
 2603TIP3   OH229223   6.282   6.183  12.708 -0.2460 -0.1172 -0.1505
 2603TIP3    H129224   6.357   6.172  12.650 -0.1141  0.4392 -0.0938
 2603TIP3    H229225   6.209   6.143  12.661  0.0118 -0.3267 -0.3726
 2604TIP3   OH229226   2.495   0.731   2.562  0.3218  0.2786 -0.4850
 2604TIP3    H129227   2.499   0.789   2.638  0.6930  1.1071 -1.1318
 2604TIP3    H229228   2.567   0.669   2.575 -1.3975 -1.4646  1.3229
 2605TIP3   OH229229   4.781   5.886  15.806 -0.0106  0.5397 -0.2675
 2605TIP3    H129230   4.768   5.797  15.840  0.6064 -0.8810 -3.3476
 2605TIP3    H229231   4.859   5.918  15.852 -0.1694 -0.5681  0.8298
 2606TIP3   OH229232   2.344   1.052   3.315  0.5119  0.0261 -0.4614
 2606TIP3    H129233   2.369   0.971   3.270 -0.5100 -0.8163  0.4089
 2606TIP3    H229234   2.322   1.023   3.404 -0.1949  1.2241 -0.2287
 2607TIP3   OH229235   4.668   4.214   1.051 -0.6648 -0.1845  0.1112
 2607TIP3    H129236   4.653   4.127   1.088 -0.7511  0.4202  1.5587
 2607TIP3    H229237   4.763   4.221   1.042 -0.6837 -0.5909 -0.4356
 2608TIP3   OH229238   1.208   5.146   1.216 -0.1307  0.2672  0.4239
 2608TIP3    H129239   1.268   5.157   1.289 -0.5560 -0.8606  0.9684
 2608TIP3    H229240   1.250   5.193   1.143  0.8572  0.4264  1.0724
 2609TIP3   OH229241   3.644   1.984  14.848 -0.3672 -0.2985  0.2483
 2609TIP3    H129242   3.629   2.047  14.778  1.0725 -0.8406 -0.5988
 2609TIP3    H229243   3.657   1.900  14.804  0.2241 -0.7221  1.1730
 2610TIP3   OH229244   4.397   1.331   2.748  0.2845  0.0547 -0.3248
 2610TIP3    H129245   4.365   1.408   2.795  2.3935  0.2810  0.8831
 2610TIP3    H229246   4.490   1.327   2.769  1.0817 -0.6165 -3.5060
 2611TIP3   OH229247   3.405   3.069  11.074 -1.3657  0.3385 -0.0613
 2611TIP3    H129248   3.318   3.094  11.046 -0.9127  4.0099  1.3125
 2611TIP3    H229249   3.412   3.102  11.164  1.4350  0.1919 -0.1396
 2612TIP3   OH229250   5.998   2.615  14.363 -0.5492  0.3432  0.4407
 2612TIP3    H129251   6.063   2.673  14.403  0.6551 -1.0179  0.5316
 2612TIP3    H229252   5.925   2.614  14.424  1.1201 -1.4770  2.5969
 2613TIP3   OH229253   4.498   4.709   1.097 -0.1392 -0.3260  0.2214
 2613TIP3    H129254   4.448   4.691   1.177 -0.1327  1.2381  0.6123
 2613TIP3    H229255   4.562   4.775   1.124 -0.4400  0.5694 -1.1860
 2614TIP3   OH229256   3.899   3.330   0.747  0.6603  0.1266 -0.6769
 2614TIP3    H129257   3.934   3.240   0.747  0.6734  0.1163  0.2395
 2614TIP3    H229258   3.818   3.325   0.696 -0.2730 -0.8073  0.8139
 2615TIP3   OH229259   1.693   5.760   0.499 -0.0959 -0.2512 -0.8798
 2615TIP3    H129260   1.659   5.735   0.585  0.0301  2.2847  0.0233
 2615TIP3    H229261   1.780   5.722   0.495  0.0114 -0.1561  0.2650
 2616TIP3   OH229262   2.006   5.913   2.832  0.1974  0.1812 -0.3998
 2616TIP3    H129263   2.091   5.893   2.871  0.7873 -0.3833 -1.9270
 2616TIP3    H229264   1.947   5.848   2.870  0.7465 -0.3269 -0.3983
 2617TIP3   OH229265   2.100   0.047  14.600  0.6697 -0.3586  0.1484
 2617TIP3    H129266   2.077   0.067  14.690  1.2281 -1.4693  0.5686
 2617TIP3    H229267   2.016   0.034  14.556  0.3569  1.3062  0.2110
 2618TIP3   OH229268   4.294   3.698  10.705 -0.3862 -0.2990 -0.0984
 2618TIP3    H129269   4.389   3.702  10.704 -0.3906  0.0144  0.6026
 2618TIP3    H229270   4.271   3.651  10.624  0.2211  2.9395 -2.3347
 2619TIP3   OH229271   2.819   5.893  14.711 -0.7519 -0.1505  1.0095
 2619TIP3    H129272   2.794   5.980  14.680  1.5574 -0.2760 -1.5555
 2619TIP3    H229273   2.832   5.904  14.805  0.0443  2.4560  0.6755
 2620TIP3   OH229274   6.467   6.510  15.022 -0.2949 -0.4554 -0.3366
 2620TIP3    H129275   6.501   6.599  15.030 -1.9111  0.0675  1.5392
 2620TIP3    H229276   6.393   6.517  14.963 -0.0564 -0.6922 -0.6697
 2621TIP3   OH229277   0.994   2.786  16.746 -0.6929 -0.4548 -0.0689
 2621TIP3    H129278   1.046   2.760  16.822  0.8630 -0.5222 -1.1139
 2621TIP3    H229279   1.040   2.862  16.710 -3.1701  1.6652  0.8556
 2622TIP3   OH229280   4.561   2.998   0.598 -0.2855  0.5578 -0.3443
 2622TIP3    H129281   4.618   3.051   0.543  0.0060 -0.1250 -0.7100
 2622TIP3    H229282   4.610   2.986   0.679 -0.0815  0.3241 -0.5001
 2623TIP3   OH229283   6.086   3.603  13.777 -0.5271  0.1915  0.3668
 2623TIP3    H129284   6.087   3.561  13.691  0.5834 -0.9353  0.8804
 2623TIP3    H229285   6.006   3.572  13.818 -0.4679 -0.2279  0.1731
 2624TIP3   OH229286   1.320   6.287   5.975 -0.0212  0.5302 -0.6720
 2624TIP3    H129287   1.251   6.249   6.030 -1.3622  0.2450 -2.4528
 2624TIP3    H229288   1.394   6.299   6.034 -0.7273 -1.5582  0.7478
 2625TIP3   OH229289   6.009   5.863  15.059 -0.1052  0.0186  0.5011
 2625TIP3    H129290   5.924   5.878  15.016 -0.3807 -1.3780  0.5196
 2625TIP3    H229291   5.986   5.832  15.146  0.4460  0.2119  0.7186
 2626TIP3   OH229292   3.083   3.727  14.400 -0.1445 -0.5289  0.1953
 2626TIP3    H129293   3.077   3.660  14.331  0.2560 -0.4293  0.0655
 2626TIP3    H229294   2.996   3.727  14.440  0.0651 -1.6673  0.6937
 2627TIP3   OH229295   2.223   4.820   6.177 -0.4664  0.4864 -0.4583
 2627TIP3    H129296   2.284   4.825   6.104 -0.7490 -0.1818 -0.7442
 2627TIP3    H229297   2.269   4.767   6.243 -0.0681  1.3813  0.0009
 2628TIP3   OH229298   3.479   1.536   4.420 -0.2672 -0.6401  0.2994
 2628TIP3    H129299   3.507   1.586   4.497  0.4110 -0.9950  0.2971
 2628TIP3    H229300   3.405   1.485   4.450 -1.2882  0.7107  0.1775
 2629TIP3   OH229301   6.436   2.441   0.997  0.3203 -0.0383  0.1251
 2629TIP3    H129302   6.507   2.395   0.954  0.1425 -0.3899  0.2078
 2629TIP3    H229303   6.375   2.373   1.024 -0.1432  0.2693 -0.1157
 2630TIP3   OH229304   1.828   0.929   3.392  0.1315  0.0088 -0.2221
 2630TIP3    H129305   1.891   0.988   3.433  0.9770 -0.7367 -0.4026
 2630TIP3    H229306   1.744   0.973   3.401  0.6094  0.8164  0.4394
 2631TIP3   OH229307   1.485   2.991  11.541  0.3031  0.7615 -0.1574
 2631TIP3    H129308   1.422   3.026  11.478  1.2795  1.9013 -0.5261
 2631TIP3    H229309   1.527   2.918  11.496 -0.2330  0.4471 -0.1637
 2632TIP3   OH229310   2.788   1.455   0.465 -0.1323 -0.2052 -0.3235
 2632TIP3    H129311   2.775   1.459   0.370  3.4795  0.9048 -0.9020
 2632TIP3    H229312   2.853   1.386   0.478  0.1431  0.3076  1.2630
 2633TIP3   OH229313   1.177   0.247   2.279 -0.1781 -0.3952  0.0541
 2633TIP3    H129314   1.112   0.314   2.298  0.0788  0.4626 -1.8299
 2633TIP3    H229315   1.139   0.166   2.312 -1.4044  0.3659  0.5518
 2634TIP3   OH229316   3.863   4.946   1.983 -0.2349 -0.3883  0.1725
 2634TIP3    H129317   3.930   4.881   2.006 -0.3882 -0.6233 -0.0419
 2634TIP3    H229318   3.861   5.005   2.058  1.6514  0.8051 -0.6266
 2635TIP3   OH229319   1.561   2.408  12.384 -0.4979  0.3015 -0.0468
 2635TIP3    H129320   1.478   2.371  12.415 -1.8815  3.8219  0.9537
 2635TIP3    H229321   1.610   2.427  12.464  0.9267 -0.8116 -0.6013
 2636TIP3   OH229322   6.668   6.714   4.700  0.0019 -0.7616 -0.5424
 2636TIP3    H129323   6.762   6.700   4.694  0.3389  0.4056  1.2080
 2636TIP3    H229324   6.630   6.626   4.700  1.3618 -1.4374  1.9274
 2637TIP3   OH229325   4.984   6.249   1.198  0.3114  0.7346  0.1288
 2637TIP3    H129326   4.932   6.228   1.120 -0.6921  1.2127  0.6385
 2637TIP3    H229327   5.043   6.318   1.169 -0.4798  1.3456 -0.0786
 2638TIP3   OH229328   2.056   3.865   0.771 -0.1989 -0.9362  0.0379
 2638TIP3    H129329   2.017   3.785   0.737  0.0291 -1.7854  1.6765
 2638TIP3    H229330   2.150   3.849   0.770 -0.2428 -1.6088  2.4357
 2639TIP3   OH229331   5.615   4.896   5.570 -0.0992  0.4152 -0.0696
 2639TIP3    H129332   5.626   4.805   5.542  1.0150  0.9263 -1.3775
 2639TIP3    H229333   5.692   4.913   5.624  0.4857  1.0246 -1.0775
 2640TIP3   OH229334   6.811   4.310   4.848  0.1619  0.2392 -0.2490
 2640TIP3    H129335   6.736   4.255   4.869 -0.4028  1.2371  0.4620
 2640TIP3    H229336   6.878   4.285   4.911  0.3128 -0.4158 -0.6647
 2641TIP3   OH229337   2.410   1.507   3.732 -0.2937 -0.4436  0.4842
 2641TIP3    H129338   2.473   1.499   3.803 -0.4990 -0.7565  0.6346
 2641TIP3    H229339   2.365   1.590   3.749  0.9918  0.4743 -0.3791
 2642TIP3   OH229340   2.605   1.510   0.203  0.0204  0.1602 -0.2307
 2642TIP3    H129341   2.633   1.567   0.131 -1.2378  1.0626 -0.0392
 2642TIP3    H229342   2.513   1.492   0.184 -0.9484  2.0926  2.1739
 2643TIP3   OH229343   6.225   5.044  11.976 -0.2217 -0.3001  0.3575
 2643TIP3    H129344   6.157   5.066  12.040 -1.1325 -1.2331 -0.2531
 2643TIP3    H229345   6.203   4.955  11.947  0.6093 -0.1867 -0.6888
 2644TIP3   OH229346   5.034   2.865   2.359 -0.3338 -0.2751  0.2474
 2644TIP3    H129347   4.975   2.820   2.299 -0.2837 -0.6059  0.4428
 2644TIP3    H229348   4.976   2.901   2.427 -0.1523 -2.7571  1.8569
 2645TIP3   OH229349   4.083   5.297  12.880  0.4738  0.0201  0.4553
 2645TIP3    H129350   4.078   5.392  12.874 -0.4151 -0.1006 -2.1620
 2645TIP3    H229351   4.166   5.280  12.925  1.1540  2.0249  0.0796
 2646TIP3   OH229352   4.621   2.546  16.131 -0.3194  0.5105 -0.1465
 2646TIP3    H129353   4.699   2.591  16.100  0.3657 -0.5243  0.0346
 2646TIP3    H229354   4.571   2.527  16.051  1.0209 -1.3791 -0.6059
 2647TIP3   OH229355   0.456   3.740   4.429  0.3666  0.3649 -0.2392
 2647TIP3    H129356   0.490   3.789   4.503 -1.7359  2.9397 -0.7890
 2647TIP3    H229357   0.362   3.732   4.447  0.2835 -1.4889 -1.3039
 2648TIP3   OH229358   1.704   5.267   4.744  0.0984 -0.2581 -0.3352
 2648TIP3    H129359   1.645   5.202   4.705 -1.8960 -0.5470  2.8486
 2648TIP3    H229360   1.675   5.351   4.707 -0.1195 -0.7122 -1.2357
 2649TIP3   OH229361   5.614   3.038   3.306  0.2609 -0.4300 -1.0014
 2649TIP3    H129362   5.539   2.987   3.277  0.4966 -1.0528 -0.5482
 2649TIP3    H229363   5.689   2.995   3.266  0.6644 -1.7553  1.0197
 2650TIP3   OH229364   1.794   3.438  15.404 -0.1892  0.0354  0.4177
 2650TIP3    H129365   1.843   3.520  15.404 -0.1396  0.0100 -0.3250
 2650TIP3    H229366   1.714   3.458  15.356  1.1598 -1.1181 -2.5314
 2651TIP3   OH229367   5.172   0.825  11.580 -0.0990  0.5323  0.0559
 2651TIP3    H129368   5.177   0.920  11.583 -0.8563  0.5777  0.1207
 2651TIP3    H229369   5.260   0.795  11.602 -0.1948  1.1848  1.3724
 2652TIP3   OH229370   6.084   1.310  12.005 -0.3069 -0.4086 -0.4644
 2652TIP3    H129371   6.001   1.277  11.971  0.2938 -0.1766 -2.2690
 2652TIP3    H229372   6.075   1.405  11.999 -0.3134 -0.3461  0.4046
 2653TIP3   OH229373   2.626   0.077   2.746  0.1430 -0.3678  0.5770
 2653TIP3    H129374   2.675   0.085   2.664  0.1714 -3.1756  0.2325
 2653TIP3    H229375   2.540   0.115   2.726  1.0365  1.5729  0.1778
 2654TIP3   OH229376   5.129   0.951  16.707 -0.2081  0.0835  0.2959
 2654TIP3    H129377   5.207   0.958  16.651  1.2284 -2.9550  1.6846
 2654TIP3    H229378   5.067   0.900  16.655 -0.1387  0.0173  0.2782
 2655TIP3   OH229379   6.426   5.818  11.448  0.1052  0.4934  0.8049
 2655TIP3    H129380   6.343   5.777  11.474  0.9076 -0.4408  2.0150
 2655TIP3    H229381   6.401   5.880  11.379 -1.1224 -2.6995 -1.9757
 2656TIP3   OH229382   5.463   3.970   1.859 -0.4115 -0.0471  0.2603
 2656TIP3    H129383   5.552   4.001   1.843  0.0634 -0.6297  1.6490
 2656TIP3    H229384   5.445   3.910   1.785  1.1485 -1.5173  1.0055
 2657TIP3   OH229385   4.921   2.043  11.931 -0.6441  0.0127  0.1193
 2657TIP3    H129386   4.937   1.952  11.908 -2.3507 -0.3113  0.0486
 2657TIP3    H229387   4.963   2.055  12.016 -0.3169 -0.8139  0.0793
 2658TIP3   OH229388   5.148   2.784   5.298  0.2164  0.2443 -0.2266
 2658TIP3    H129389   5.139   2.879   5.298 -2.3646  0.0926 -1.4358
 2658TIP3    H229390   5.058   2.752   5.295  1.0484 -2.2347 -0.9342
 2659TIP3   OH229391   4.942   5.172   2.919 -0.4246 -0.0223  0.0027
 2659TIP3    H129392   5.036   5.173   2.898 -0.6085  0.6241 -0.8267
 2659TIP3    H229393   4.901   5.222   2.849 -1.3417  0.1471  0.6431
 2660TIP3   OH229394   0.326   3.341  11.128 -0.0988 -0.1937 -0.1454
 2660TIP3    H129395   0.373   3.358  11.047  1.4161  0.5617  0.8518
 2660TIP3    H229396   0.234   3.354  11.105  0.3044  0.0883 -1.7115
 2661TIP3   OH229397   3.800   3.776   0.874 -0.0077  0.1345  0.2839
 2661TIP3    H129398   3.726   3.784   0.934 -0.3712  2.2861 -0.3609
 2661TIP3    H229399   3.877   3.786   0.929 -0.3045  0.8270  0.5892
 2662TIP3   OH229400   2.204   0.899  11.397 -0.0947  0.0948 -0.4521
 2662TIP3    H129401   2.206   0.848  11.478  0.6224 -1.0167 -1.1442
 2662TIP3    H229402   2.133   0.861  11.346  1.3755 -1.2481 -1.5900
 2663TIP3   OH229403   6.699   0.276  11.849  0.6540  0.7374  0.4436
 2663TIP3    H129404   6.737   0.363  11.833  0.7875  0.5212 -0.4750
 2663TIP3    H229405   6.772   0.223  11.880  0.3230  1.2512  2.2353
 2664TIP3   OH229406   4.718   3.776   0.390 -0.6110 -0.3424 -0.2033
 2664TIP3    H129407   4.638   3.830   0.383 -0.2663  0.0738 -1.0388
 2664TIP3    H229408   4.781   3.832   0.435 -0.3371 -0.1344 -0.8338
 2665TIP3   OH229409   3.356   5.755  14.921  0.6144 -0.3173 -0.5329
 2665TIP3    H129410   3.380   5.839  14.960 -1.2642  0.0285 -0.0338
 2665TIP3    H229411   3.313   5.707  14.991 -2.3244  0.0880 -1.9086
 2666TIP3   OH229412   0.300   3.325   0.772  0.2257  0.3241  0.3009
 2666TIP3    H129413   0.290   3.304   0.680  1.8456 -0.1082  0.2066
 2666TIP3    H229414   0.236   3.395   0.787 -1.4781 -0.9352 -0.6389
 2667TIP3   OH229415   4.301   1.282  13.707  0.2945 -0.4271 -0.4836
 2667TIP3    H129416   4.382   1.332  13.703 -0.3359  0.8022  1.1085
 2667TIP3    H229417   4.265   1.287  13.619  0.6318  1.3399 -0.5647
 2668TIP3   OH229418   3.631   5.149   2.792 -0.0385 -0.3541  0.0628
 2668TIP3    H129419   3.572   5.135   2.866 -0.9901  3.1437  0.1298
 2668TIP3    H229420   3.699   5.207   2.826  0.3627  0.1012 -1.4266
 2669TIP3   OH229421   2.088   2.307  11.544 -0.4291  0.1548  0.1418
 2669TIP3    H129422   2.084   2.402  11.553  0.2164  0.1251  0.8297
 2669TIP3    H229423   2.072   2.291  11.451  0.9752  1.0355 -0.2721
 2670TIP3   OH229424   2.929   4.694  12.702  0.2599  0.3547 -0.1053
 2670TIP3    H129425   2.981   4.725  12.776  0.7903 -1.9078  0.5483
 2670TIP3    H229426   2.980   4.719  12.624  1.9050 -1.0084  0.4902
 2671TIP3   OH229427   4.345   1.701  12.919 -0.3184 -0.0999 -0.7948
 2671TIP3    H129428   4.321   1.771  12.858 -0.1664 -0.5370 -1.3650
 2671TIP3    H229429   4.440   1.693  12.911 -0.3416 -0.4086 -0.7763
 2672TIP3   OH229430   2.729   6.006  15.503  0.2436  0.3563 -0.0190
 2672TIP3    H129431   2.819   5.995  15.534  0.0561 -0.4168  0.2746
 2672TIP3    H229432   2.728   5.965  15.417  0.7669  2.5142 -1.1303
 2673TIP3   OH229433   5.861   0.575   1.378  0.9672 -0.2233  0.0187
 2673TIP3    H129434   5.898   0.587   1.465  1.7442  0.5578 -0.3960
 2673TIP3    H229435   5.784   0.520   1.391  0.2573  1.0503  1.3742
 2674TIP3   OH229436   3.940   4.392  12.239 -0.3663 -0.2613  0.1440
 2674TIP3    H129437   3.874   4.323  12.246  1.1113 -1.7264  0.4658
 2674TIP3    H229438   3.941   4.415  12.146 -2.1051  0.6373  0.3149
 2675TIP3   OH229439   0.772   1.437  13.912  0.6601 -0.2483  0.5156
 2675TIP3    H129440   0.726   1.400  13.988 -0.7027 -0.3340 -0.3072
 2675TIP3    H229441   0.712   1.505  13.880 -0.0235 -1.8949 -1.9592
 2676TIP3   OH229442   3.943   6.266   1.686 -0.1437  0.0016  0.0495
 2676TIP3    H129443   3.962   6.233   1.773  1.2344  0.5492 -0.0157
 2676TIP3    H229444   3.854   6.301   1.692 -1.4043 -2.8986  0.3255
 2677TIP3   OH229445   1.390   0.919  12.669 -0.2603 -0.3246  0.6085
 2677TIP3    H129446   1.468   0.939  12.722  0.4361  1.1253 -0.8612
 2677TIP3    H229447   1.319   0.913  12.732  0.5591  1.2245  1.7481
 2678TIP3   OH229448   3.763   0.243   4.114  0.6091  0.1064  0.4313
 2678TIP3    H129449   3.745   0.337   4.119  2.1680  0.4924 -0.6068
 2678TIP3    H229450   3.745   0.220   4.023 -1.7655 -1.0961  1.1215
 2679TIP3   OH229451   0.446   3.955   5.798 -0.0388 -0.3253  1.0923
 2679TIP3    H129452   0.515   3.925   5.856  1.3724 -0.5157 -0.6233
 2679TIP3    H229453   0.404   3.875   5.766  3.0144 -0.7355 -2.6195
 2680TIP3   OH229454   0.823   3.657   3.855 -0.2274 -0.3741  0.3923
 2680TIP3    H129455   0.790   3.603   3.783  2.0554  1.1480 -1.9773
 2680TIP3    H229456   0.750   3.715   3.877 -1.4720 -1.8806  0.4249
 2681TIP3   OH229457   4.443   1.581  15.204  0.0900 -0.1389  0.1043
 2681TIP3    H129458   4.369   1.632  15.171 -1.2772 -1.4005  1.0695
 2681TIP3    H229459   4.481   1.541  15.126  0.6428  1.5945 -0.5645
 2682TIP3   OH229460   0.183   1.549  11.837 -0.1556 -0.3709  0.4831
 2682TIP3    H129461   0.144   1.617  11.782 -0.0619 -0.3210  0.4789
 2682TIP3    H229462   0.232   1.596  11.904 -1.6005 -0.3971  1.6016
 2683TIP3   OH229463   0.340   3.959  12.788 -0.7660  0.0205 -0.4703
 2683TIP3    H129464   0.375   3.970  12.700 -0.9732 -0.3406 -0.5982
 2683TIP3    H229465   0.414   3.928  12.840 -0.8556 -0.5996 -0.7071
 2684TIP3   OH229466   0.087   6.614  16.433  0.4712 -0.1832 -0.4517
 2684TIP3    H129467   0.085   6.596  16.339  1.9651  0.5042 -0.6419
 2684TIP3    H229468   0.175   6.590  16.461 -0.0962 -0.8298  0.8966
 2685TIP3   OH229469   2.452   5.371   0.083  0.5008 -0.2995 -0.1376
 2685TIP3    H129470   2.438   5.281   0.053  0.7133 -0.7731  1.1294
 2685TIP3    H229471   2.364   5.410   0.085  0.2727 -0.8257  0.3503
 2686TIP3   OH229472   1.214   5.884   3.208 -0.2745 -0.5463  0.4858
 2686TIP3    H129473   1.142   5.913   3.152 -0.0347 -1.1983 -0.1855
 2686TIP3    H229474   1.266   5.827   3.152 -0.4454 -1.8410  1.5881
 2687TIP3   OH229475   3.857   1.014   5.380 -0.6099 -0.2152  0.3526
 2687TIP3    H129476   3.792   1.080   5.405 -1.0862 -0.1923 -0.8714
 2687TIP3    H229477   3.813   0.930   5.395 -1.8950 -0.2159 -2.6378
 2688TIP3   OH229478   6.664   0.358  13.768 -0.3953 -0.3832 -0.4045
 2688TIP3    H129479   6.578   0.375  13.729 -1.4919 -3.3954  0.5086
 2688TIP3    H229480   6.703   0.445  13.776 -3.6468  1.2157 -0.1414
 2689TIP3   OH229481   1.878   0.886  16.226 -0.1148  0.2615 -0.5876
 2689TIP3    H129482   1.933   0.809  16.212 -0.3455 -0.1665  0.7806
 2689TIP3    H229483   1.934   0.960  16.202  1.0870 -0.1644  0.8122
 2690TIP3   OH229484   4.014   2.769  12.798 -0.2679 -0.6730 -0.4749
 2690TIP3    H129485   4.005   2.786  12.891  1.1071 -0.7629 -0.3047
 2690TIP3    H229486   4.054   2.848  12.762  0.6715 -1.2258 -0.6938
 2691TIP3   OH229487   4.755   2.301   4.130  0.1040  0.0253 -0.1010
 2691TIP3    H129488   4.737   2.374   4.070  0.3198  0.2588  0.1155
 2691TIP3    H229489   4.797   2.235   4.075 -0.4982 -0.1164 -0.3930
 2692TIP3   OH229490   0.967   1.638   5.800  0.0431  0.2665 -0.1859
 2692TIP3    H129491   1.047   1.584   5.794 -0.8687 -1.0464 -1.1912
 2692TIP3    H229492   0.934   1.621   5.888 -0.9182 -1.9524 -0.8838
 2693TIP3   OH229493   1.303   3.945  16.554 -0.2889 -0.5167 -0.2390
 2693TIP3    H129494   1.362   3.875  16.584 -0.0257 -0.0755  0.2849
 2693TIP3    H229495   1.356   3.998  16.495 -0.0407  0.0917  0.5145
 2694TIP3   OH229496   1.560   4.466  16.142 -0.3310  0.2749 -0.6689
 2694TIP3    H129497   1.552   4.537  16.079 -0.8571 -0.9874 -2.1010
 2694TIP3    H229498   1.470   4.436  16.155 -0.0078 -1.0422 -1.2487
 2695TIP3   OH229499   4.395   6.784   3.441 -0.2621  0.3774 -0.3097
 2695TIP3    H129500   4.430   6.730   3.512 -2.6854  0.2454  0.8852
 2695TIP3    H229501   4.312   6.742   3.418 -0.7818  1.9175 -1.4051
 2696TIP3   OH229502   3.827   1.707  14.910  0.8806 -0.5361 -0.0249
 2696TIP3    H129503   3.762   1.708  14.840  0.7071  0.1857  0.1446
 2696TIP3    H229504   3.911   1.716  14.864  0.7092  0.8759 -0.0799
 2697TIP3   OH229505   4.410   2.890  15.654 -0.1501  0.5216  0.2340
 2697TIP3    H129506   4.373   2.976  15.673 -0.7596  0.2123  0.4863
 2697TIP3    H229507   4.337   2.840  15.617  0.3660  0.3152 -0.5504
 2698TIP3   OH229508   3.203   3.362  16.326  0.4846 -0.1303 -0.3036
 2698TIP3    H129509   3.141   3.389  16.258  0.4067 -0.6021 -0.4258
 2698TIP3    H229510   3.258   3.296  16.283  1.1923  0.4117 -0.2490
 2699TIP3   OH229511   0.297   6.475   5.721  0.4355 -0.4717 -0.0961
 2699TIP3    H129512   0.220   6.420   5.736 -1.0744  1.7250  0.7389
 2699TIP3    H229513   0.341   6.436   5.646 -2.7697 -0.5510 -2.1014
 2700TIP3   OH229514   5.914   0.653  13.026 -0.0087 -0.1993  0.5339
 2700TIP3    H129515   5.994   0.659  13.078 -0.5365  2.9679  1.2345
 2700TIP3    H229516   5.911   0.736  12.979 -2.0502 -0.9509 -0.7795
 2701TIP3   OH229517   2.999   1.584  11.639 -0.1670  0.1991 -0.0610
 2701TIP3    H129518   3.037   1.626  11.716 -0.7758 -0.6013  0.7023
 2701TIP3    H229519   2.979   1.495  11.668 -0.7162 -0.0147 -1.0484
 2702TIP3   OH229520   6.688   6.783  16.389  0.3381 -0.3532  0.1767
 2702TIP3    H129521   6.738   6.711  16.429  0.4657 -0.5520 -0.3331
 2702TIP3    H229522   6.738   6.862  16.410 -0.3708 -0.2542  1.6885
 2703TIP3   OH229523   5.322   2.482   5.456  0.0218 -0.3903 -0.0794
 2703TIP3    H129524   5.367   2.464   5.538 -1.8525 -0.2163  1.0212
 2703TIP3    H229525   5.267   2.406   5.441 -2.1106  0.9222  0.5876
 2704TIP3   OH229526   3.728   4.793   1.804 -0.4597  0.4718  0.6928
 2704TIP3    H129527   3.732   4.859   1.873 -1.7856  2.4005 -0.9430
 2704TIP3    H229528   3.790   4.823   1.738 -2.0416  0.8836 -0.6748
 2705TIP3   OH229529   4.305   0.977   2.569  0.1903 -0.0560  0.4442
 2705TIP3    H129530   4.382   1.028   2.597 -0.3723  0.8341  0.4272
 2705TIP3    H229531   4.302   0.989   2.474 -0.1183  0.1369  0.4770
 2706TIP3   OH229532   2.317   3.795   4.843  0.4204 -0.3693 -0.3135
 2706TIP3    H129533   2.330   3.875   4.793  0.9944 -0.9973 -1.1936
 2706TIP3    H229534   2.365   3.809   4.925 -1.3051  1.0412  0.5253
 2707TIP3   OH229535   2.240   2.177   0.162 -0.0494 -0.3673 -0.1292
 2707TIP3    H129536   2.199   2.235   0.226 -1.6629 -0.4616 -1.0376
 2707TIP3    H229537   2.331   2.208   0.156  0.1940 -0.4247  2.2542
 2708TIP3   OH229538   2.884   4.844   0.313  0.1262 -0.8647 -0.4422
 2708TIP3    H129539   2.941   4.772   0.286  0.3430 -1.0278  0.4075
 2708TIP3    H229540   2.884   4.840   0.409 -0.0009  0.1582 -0.3855
 2709TIP3   OH229541   5.524   5.755  13.762  0.0595  0.0398 -0.0700
 2709TIP3    H129542   5.511   5.822  13.695 -1.0609  0.5345  0.6335
 2709TIP3    H229543   5.563   5.801  13.836 -0.6990 -0.0864  0.4123
 2710TIP3   OH229544   1.347   0.171  12.787  0.6713 -0.3743  0.2073
 2710TIP3    H129545   1.387   0.238  12.842 -0.8745  0.3696  0.4635
 2710TIP3    H229546   1.406   0.096  12.794  1.0701  0.0667  2.0182
 2711TIP3   OH229547   6.661   0.174   3.800 -0.3587  0.5016 -0.3975
 2711TIP3    H129548   6.683   0.089   3.761  0.3168  0.5876 -0.2190
 2711TIP3    H229549   6.700   0.171   3.887  0.3404  1.2820 -0.6674
 2712TIP3   OH229550   3.637   4.196   1.406 -0.5652  0.1670 -0.2605
 2712TIP3    H129551   3.629   4.287   1.434 -1.4063  0.2652 -0.7695
 2712TIP3    H229552   3.550   4.173   1.372  0.5606  0.3986 -3.7335
 2713TIP3   OH229553   0.380   6.480  12.161  0.0868 -0.4298 -0.2891
 2713TIP3    H129554   0.308   6.476  12.098 -1.9936 -0.9440  1.9731
 2713TIP3    H229555   0.406   6.389  12.174  1.0627 -0.2621 -0.9338
 2714TIP3   OH229556   5.520   5.689  11.478 -0.0948  0.5248  0.0185
 2714TIP3    H129557   5.538   5.601  11.512  0.1064  0.0390 -1.3072
 2714TIP3    H229558   5.512   5.677  11.384  0.7474  2.0599 -0.2752
 2715TIP3   OH229559   4.291   3.252   3.291  0.1337  0.4678  0.0431
 2715TIP3    H129560   4.322   3.227   3.378 -0.3237 -2.5678 -0.5386
 2715TIP3    H229561   4.365   3.297   3.250  1.7289 -1.3880  0.7360
 2716TIP3   OH229562   5.487   6.280  15.698 -0.4153 -0.4942  0.1218
 2716TIP3    H129563   5.489   6.361  15.749  0.4078 -0.5376  0.1622
 2716TIP3    H229564   5.468   6.212  15.762 -4.2575 -0.0624 -0.3011
 2717TIP3   OH229565   6.009   4.514   4.248 -0.0580  0.1435 -0.1568
 2717TIP3    H129566   5.996   4.466   4.166 -0.4272 -1.5949  0.8646
 2717TIP3    H229567   5.951   4.590   4.241  0.6635  0.5913 -1.9023
 2718TIP3   OH229568   6.301   5.208  16.821  0.7514 -0.1385 -0.3894
 2718TIP3    H129569   6.246   5.284  16.802  1.3797  0.1757 -1.0040
 2718TIP3    H229570   6.325   5.173  16.735  0.2256 -1.2269 -0.1225
 2719TIP3   OH229571   1.136   1.066   6.462  0.2697 -0.2189 -0.5090
 2719TIP3    H129572   1.150   1.139   6.523 -0.3947  0.0661 -0.6834
 2719TIP3    H229573   1.174   1.097   6.379  0.0688 -0.1040 -0.5595
 2720TIP3   OH229574   2.976   4.365   5.645 -0.1633 -0.3567 -0.0269
 2720TIP3    H129575   2.965   4.383   5.552  1.4151 -0.4371 -0.2586
 2720TIP3    H229576   2.939   4.442   5.688 -0.9122 -0.3209 -0.7178
 2721TIP3   OH229577   1.829   5.629   1.819  0.2554 -0.1785  0.1775
 2721TIP3    H129578   1.870   5.604   1.902  2.5420  1.7330 -0.2367
 2721TIP3    H229579   1.742   5.661   1.843  0.9343  0.5000  1.9142
 2722TIP3   OH229580   0.030   0.859  13.727 -0.1507 -0.0466  0.0781
 2722TIP3    H129581   0.049   0.943  13.769 -1.5456  1.4412 -2.0533
 2722TIP3    H229582   0.042   0.875  13.633  0.8324 -2.6446 -0.3402
 2723TIP3   OH229583   6.038   2.654   0.067  0.4494 -1.1188 -0.1501
 2723TIP3    H129584   6.090   2.661   0.147  1.5701 -1.1560 -0.8513
 2723TIP3    H229585   5.984   2.576   0.079 -1.2549  0.2347  1.5864
 2724TIP3   OH229586   6.759   3.924   2.167  0.2003  0.4011  0.2179
 2724TIP3    H129587   6.759   3.921   2.072  3.0847 -1.9974  0.1584
 2724TIP3    H229588   6.697   3.856   2.193  0.4521  0.0917  0.0139
 2725TIP3   OH229589   3.521   6.618  12.045 -0.1390  0.5354 -0.3090
 2725TIP3    H129590   3.436   6.642  12.082 -0.3391 -0.2292 -0.2635
 2725TIP3    H229591   3.566   6.569  12.114 -0.4440 -0.7470 -0.9777
 2726TIP3   OH229592   6.691   2.376   1.208 -0.3424 -0.2072 -0.3945
 2726TIP3    H129593   6.646   2.295   1.229 -0.3355 -0.2538 -0.5614
 2726TIP3    H229594   6.709   2.371   1.114  3.3263 -1.9129  0.1981
 2727TIP3   OH229595   1.634   5.878  15.364 -0.4071  0.2135  0.1294
 2727TIP3    H129596   1.581   5.907  15.438 -1.0685  0.0393 -0.2612
 2727TIP3    H229597   1.707   5.940  15.360 -1.2943  1.2794 -0.1287
 2728TIP3   OH229598   1.373   3.262  17.033  1.0927 -0.2813  0.2023
 2728TIP3    H129599   1.459   3.233  17.065  0.4432 -1.0447  1.3144
 2728TIP3    H229600   1.353   3.339  17.086  0.8651 -0.4253  0.3298
 2729TIP3   OH229601   6.550   0.233  17.097  0.3029  0.1928 -0.0666
 2729TIP3    H129602   6.542   0.326  17.075 -0.4015 -0.0086 -0.7115
 2729TIP3    H229603   6.469   0.212  17.143  0.5339 -0.0636  0.2287
 2730TIP3   OH229604   2.922   0.876   3.639  0.3015  0.1201 -0.0818
 2730TIP3    H129605   2.856   0.815   3.673  0.8346  0.3398  1.4335
 2730TIP3    H229606   2.874   0.932   3.578 -0.0367 -2.3144 -2.2336
 2731TIP3   OH229607   0.923   0.548   4.387 -0.2474 -0.1553  0.1390
 2731TIP3    H129608   0.894   0.617   4.448  1.6613  1.2893 -0.4787
 2731TIP3    H229609   0.982   0.493   4.440  2.3781  1.7919 -0.5144
 2732TIP3   OH229610   2.349   1.862   1.945  0.5303 -0.4317 -0.1954
 2732TIP3    H129611   2.407   1.932   1.914  0.4241 -0.6712 -0.9627
 2732TIP3    H229612   2.302   1.834   1.867  0.9537 -1.7328 -0.0017
 2733TIP3   OH229613   4.502   3.425  11.466  0.2578  0.2921 -0.3036
 2733TIP3    H129614   4.427   3.380  11.505  1.3299 -0.1570  1.3111
 2733TIP3    H229615   4.469   3.513  11.446 -0.3498  0.5514  1.6338
 2734TIP3   OH229616   1.159   0.167  10.937 -0.5995 -0.0352 -0.3010
 2734TIP3    H129617   1.126   0.255  10.951  0.2234  0.1231  0.7375
 2734TIP3    H229618   1.080   0.113  10.928 -1.2323  0.2294  2.6386
 2735TIP3   OH229619   1.919   3.900  16.704 -0.1144 -0.2581  0.2813
 2735TIP3    H129620   1.849   3.955  16.670 -0.1259  1.5561  3.0027
 2735TIP3    H229621   1.882   3.858  16.781  0.7070 -2.1964 -0.3136
 2736TIP3   OH229622   5.639   6.643  15.636  0.0902  0.1417 -0.0927
 2736TIP3    H129623   5.628   6.732  15.602  0.8791  2.0979  4.0489
 2736TIP3    H229624   5.732   6.624  15.624  0.1309  0.3354 -0.0954
 2737TIP3   OH229625   3.759   0.165   0.400  0.1820  0.7091 -0.5707
 2737TIP3    H129626   3.744   0.086   0.451  0.1446  1.9178  1.4065
 2737TIP3    H229627   3.759   0.136   0.309  0.2858 -1.5546  0.1011
 2738TIP3   OH229628   2.928   2.727  14.560  0.1974  0.6094 -0.1074
 2738TIP3    H129629   2.894   2.705  14.473 -0.7982 -1.0267  0.6556
 2738TIP3    H229630   2.863   2.787  14.597 -0.4740 -0.3528  0.2971
 2739TIP3   OH229631   5.599   3.650  15.512  0.1129  0.3919 -0.1776
 2739TIP3    H129632   5.659   3.725  15.514 -0.0985  0.5534  0.2117
 2739TIP3    H229633   5.532   3.671  15.577 -0.6112  0.4160 -0.9185
 2740TIP3   OH229634   6.243   1.674  13.572  0.3081 -0.1742  0.8373
 2740TIP3    H129635   6.202   1.591  13.595 -1.1410  0.1176 -0.5019
 2740TIP3    H229636   6.190   1.740  13.618  0.2012  0.1095  0.3210
 2741TIP3   OH229637   5.810   4.733  10.484  0.2291 -0.0836 -0.0180
 2741TIP3    H129638   5.756   4.812  10.485 -2.6564 -1.8637 -1.7693
 2741TIP3    H229639   5.775   4.679  10.555  1.1253 -0.4429  0.1663
 2742TIP3   OH229640   0.874   6.256  15.113 -0.8226  0.1157  0.1886
 2742TIP3    H129641   0.797   6.313  15.106 -0.9761 -0.1609 -0.4513
 2742TIP3    H229642   0.915   6.281  15.196 -1.3291  0.6079  0.2970
 2743TIP3   OH229643   6.487   3.659   3.253  0.4957 -0.7972 -0.5364
 2743TIP3    H129644   6.495   3.754   3.242  1.7581 -0.6140  1.4584
 2743TIP3    H229645   6.438   3.649   3.334  1.1337 -1.8221 -0.2626
 2744TIP3   OH229646   1.930   3.100   6.333  0.0275 -0.1819 -0.1444
 2744TIP3    H129647   1.961   3.012   6.309  0.4792  0.2244 -1.1040
 2744TIP3    H229648   1.996   3.159   6.296  0.3290  0.5255  1.4439
 2745TIP3   OH229649   6.040   2.512  11.529 -1.0706 -0.1819 -0.8646
 2745TIP3    H129650   6.038   2.516  11.625 -2.5702 -0.3067 -0.8593
 2745TIP3    H229651   6.077   2.596  11.503  2.7391 -1.4579 -0.1775
 2746TIP3   OH229652   0.004   3.383   5.259 -0.2256  0.2431  0.1579
 2746TIP3    H129653  -0.074   3.428   5.290 -0.6254  0.3781 -0.9791
 2746TIP3    H229654   0.010   3.407   5.166 -0.2867 -1.8020 -0.4283
 2747TIP3   OH229655   4.119   6.418   2.124  0.3205  0.3797  0.1342
 2747TIP3    H129656   4.040   6.399   2.174  0.7363  1.3821  1.1973
 2747TIP3    H229657   4.089   6.417   2.033 -0.6823 -0.3219  0.4432
 2748TIP3   OH229658   6.016   5.096  17.062 -0.3702 -0.8175 -0.1174
 2748TIP3    H129659   5.922   5.077  17.063 -0.3087 -1.2149  1.5262
 2748TIP3    H229660   6.024   5.177  17.012 -1.5494 -0.9169 -0.4963
 2749TIP3   OH229661   1.597   1.534   0.904  0.3521 -0.3788 -0.4461
 2749TIP3    H129662   1.690   1.538   0.927  0.7047 -1.4718 -1.5471
 2749TIP3    H229663   1.557   1.478   0.971  0.7069 -0.7736 -0.5588
 2750TIP3   OH229664   6.447   1.552   5.547  0.3217  0.1282  0.2748
 2750TIP3    H129665   6.395   1.623   5.584  1.1180  0.2047  1.3195
 2750TIP3    H229666   6.429   1.477   5.604 -1.5286 -0.9335 -1.5769
 2751TIP3   OH229667   1.524   2.484   5.137  0.4502 -0.3885 -0.1688
 2751TIP3    H129668   1.542   2.548   5.206 -0.7320  0.0756 -0.2605
 2751TIP3    H229669   1.600   2.489   5.079  1.4234 -0.7247  1.0356
 2752TIP3   OH229670   6.236   6.570  11.487 -0.0769 -0.2481  0.0249
 2752TIP3    H129671   6.288   6.494  11.461 -1.6587 -1.4220  0.1533
 2752TIP3    H229672   6.148   6.553  11.452 -0.7284  1.0309  0.9418
 2753TIP3   OH229673   3.614   2.635   0.615  0.3052 -0.1997  0.3212
 2753TIP3    H129674   3.568   2.705   0.661  1.3479 -0.1180  1.2890
 2753TIP3    H229675   3.611   2.660   0.523  1.8446  1.8852  0.7539
 2754TIP3   OH229676   0.636   3.806   3.602  0.9683 -0.3422 -0.2946
 2754TIP3    H129677   0.619   3.812   3.696  0.2429  0.2878 -0.4530
 2754TIP3    H229678   0.723   3.766   3.595 -0.0603 -2.9249  0.5806
 2755TIP3   OH229679   5.488   3.871  12.374 -0.4177  0.0895 -0.1834
 2755TIP3    H129680   5.455   3.942  12.318  1.3462  3.2056  2.3784
 2755TIP3    H229681   5.555   3.828  12.321 -1.6887  0.1192 -1.8938
 2756TIP3   OH229682   5.504   4.343   2.952  0.3115 -0.6357  0.3192
 2756TIP3    H129683   5.410   4.327   2.953  0.1055  0.5311  0.6889
 2756TIP3    H229684   5.513   4.432   2.918  1.3456 -1.1142 -0.6929
 2757TIP3   OH229685   0.978   3.166   0.687  0.3636 -0.0391 -0.4906
 2757TIP3    H129686   0.900   3.184   0.740  0.8640 -2.6879  1.3387
 2757TIP3    H229687   1.023   3.251   0.681 -1.3461  1.0010  0.5959
 2758TIP3   OH229688   6.556   6.451  16.542  0.5205  0.0353  0.1218
 2758TIP3    H129689   6.622   6.395  16.580  0.6018  0.3859  0.5030
 2758TIP3    H229690   6.533   6.513  16.611 -0.3933 -0.2411  0.0887
 2759TIP3   OH229691   3.859   6.614  16.685 -0.0520  0.2050  0.0267
 2759TIP3    H129692   3.795   6.598  16.615  0.7462 -2.0365 -0.2978
 2759TIP3    H229693   3.847   6.540  16.745  1.3402  0.4529  0.6488
 2760TIP3   OH229694   3.698   5.641  11.693  0.1616  0.0684  0.0965
 2760TIP3    H129695   3.738   5.711  11.743  1.2527  0.0950 -0.7687
 2760TIP3    H229696   3.763   5.570  11.696  0.3620  0.1623 -1.4501
 2761TIP3   OH229697   2.238   6.660  13.715 -0.4954  0.4148  0.0285
 2761TIP3    H129698   2.206   6.611  13.791 -1.2326 -2.2671 -1.8499
 2761TIP3    H229699   2.168   6.722  13.695 -0.0276  1.5962  1.8208
 2762TIP3   OH229700   1.754   2.457   0.574 -0.3378  0.3091 -0.8394
 2762TIP3    H129701   1.687   2.418   0.518 -0.8681  1.3882 -0.9894
 2762TIP3    H229702   1.780   2.387   0.634 -1.1000 -0.3238 -1.2388
 2763TIP3   OH229703   0.665   0.183  15.811 -0.0527 -0.2153  0.0965
 2763TIP3    H129704   0.656   0.113  15.747 -3.7600 -0.5292  0.7470
 2763TIP3    H229705   0.672   0.263  15.760  1.3546 -0.7576 -0.6230
 2764TIP3   OH229706   1.200   4.967   0.534 -0.6831 -0.2352 -0.0563
 2764TIP3    H129707   1.167   4.913   0.462 -1.5710  1.2942 -0.8426
 2764TIP3    H229708   1.141   4.947   0.607 -1.2032 -0.0856 -0.4335
 2765TIP3   OH229709   4.279   1.622  16.283 -0.2372  0.2352  0.7031
 2765TIP3    H129710   4.359   1.577  16.255 -2.3094 -2.0865 -2.1189
 2765TIP3    H229711   4.285   1.709  16.244  0.4963 -0.2840 -0.3905
 2766TIP3   OH229712   0.155   1.676  13.001  0.1466 -0.3905  0.1265
 2766TIP3    H129713   0.207   1.599  13.026  0.1266 -1.1631 -1.9981
 2766TIP3    H229714   0.118   1.707  13.083  1.8256 -1.3977  1.3475
 2767TIP3   OH229715   1.556   5.787   1.369 -0.2400 -0.2489  0.1267
 2767TIP3    H129716   1.635   5.773   1.422  0.7561  3.1548 -0.2408
 2767TIP3    H229717   1.587   5.833   1.291 -2.2719 -1.2948 -1.3902
 2768TIP3   OH229718   6.099   6.782  11.596 -0.7478  0.3967  0.0870
 2768TIP3    H129719   6.010   6.747  11.596 -0.2471 -0.9880 -0.7960
 2768TIP3    H229720   6.154   6.708  11.569  0.7654  1.0165  1.2984
 2769TIP3   OH229721   0.988   3.167  11.154 -0.4946  0.8421  0.3149
 2769TIP3    H129722   0.989   3.231  11.083 -1.3843  1.2797  0.6817
 2769TIP3    H229723   0.940   3.210  11.224 -0.3796  0.0823  0.8701
 2770TIP3   OH229724   0.489   3.246   4.470  0.1623 -0.5548 -0.1825
 2770TIP3    H129725   0.494   3.339   4.492  1.9205 -0.6636 -0.0082
 2770TIP3    H229726   0.403   3.236   4.428 -1.3718  0.5661  2.4217
 2771TIP3   OH229727   1.137   5.725  15.427 -0.4288 -0.3843 -0.4503
 2771TIP3    H129728   1.183   5.762  15.352  1.5644  1.8504  1.6994
 2771TIP3    H229729   1.063   5.783  15.441  0.3002  0.3625  0.4139
 2772TIP3   OH229730   2.609   3.486  14.688  0.0274  0.1787 -0.1915
 2772TIP3    H129731   2.573   3.526  14.609 -1.6647 -0.6046  0.1419
 2772TIP3    H229732   2.657   3.409  14.657 -0.4571 -0.0072 -0.4851
 2773TIP3   OH229733   1.648   2.818  16.541 -0.3455 -0.6072  0.6849
 2773TIP3    H129734   1.657   2.912  16.528 -0.1172 -0.4394  1.9493
 2773TIP3    H229735   1.555   2.801  16.532 -0.1964 -0.5992 -1.4829
 2774TIP3   OH229736   5.097   4.493  15.415 -0.2795  0.1586 -0.5344
 2774TIP3    H129737   5.032   4.468  15.349 -0.3325  1.7332 -1.1114
 2774TIP3    H229738   5.127   4.409  15.451 -3.4629 -0.6198  0.5997
 2775TIP3   OH229739   0.712   2.169   4.882  0.5717 -0.2392  0.0667
 2775TIP3    H129740   0.733   2.261   4.866 -2.5876  0.6424  0.3590
 2775TIP3    H229741   0.689   2.133   4.796  2.3934 -0.9988 -0.1500
 2776TIP3   OH229742   2.596   3.019  15.788  0.0735  0.3328 -0.2500
 2776TIP3    H129743   2.510   2.989  15.819 -0.1469  1.4361  0.2467
 2776TIP3    H229744   2.591   3.115  15.792  0.6879  0.4717 -1.9822
 2777TIP3   OH229745   4.203   6.057   3.819  0.7848 -0.0013  0.5340
 2777TIP3    H129746   4.258   6.035   3.744 -0.4840 -2.9390  0.3310
 2777TIP3    H229747   4.196   5.976   3.868 -0.0002  1.3723  2.8287
 2778TIP3   OH229748   2.746   2.790   3.994  0.1773 -0.2105  0.6946
 2778TIP3    H129749   2.692   2.719   4.028  1.1840 -2.2920 -1.7613
 2778TIP3    H229750   2.836   2.765   4.015  0.5874  0.0221 -0.6628
 2779TIP3   OH229751   0.039   6.380  10.860  0.2436 -1.0319 -0.2164
 2779TIP3    H129752   0.101   6.397  10.931  2.1480  0.9454 -2.2011
 2779TIP3    H229753  -0.036   6.436  10.880  0.9483 -0.1567  0.0317
 2780TIP3   OH229754   1.211   1.952  15.418 -0.3895  0.6446 -0.1509
 2780TIP3    H129755   1.195   1.861  15.443 -0.1740  0.7123  0.2432
 2780TIP3    H229756   1.132   1.979  15.372 -0.7777  0.5057  0.4296
 2781TIP3   OH229757   2.679   3.877   3.448 -0.0701 -0.0390  0.1438
 2781TIP3    H129758   2.599   3.840   3.488 -0.2087 -0.6718 -0.6979
 2781TIP3    H229759   2.736   3.895   3.523 -0.6649 -0.3842  0.6969
 2782TIP3   OH229760   2.899   1.856   4.908 -0.2229  0.4204 -0.4555
 2782TIP3    H129761   2.966   1.925   4.912  0.3471 -0.0809 -1.1270
 2782TIP3    H229762   2.819   1.899   4.940  0.3007  1.1680 -0.1154
 2783TIP3   OH229763   1.216   6.353  17.089 -0.0978 -0.5827 -0.1491
 2783TIP3    H129764   1.130   6.330  17.054 -0.5986  2.4980 -1.3320
 2783TIP3    H229765   1.237   6.436  17.046  2.8731 -0.5426  1.1472
 2784TIP3   OH229766   3.153   4.643  16.595 -0.2201  0.1412 -0.1119
 2784TIP3    H129767   3.161   4.722  16.649 -2.4695 -0.0307  0.5517
 2784TIP3    H229768   3.156   4.571  16.658  0.0063 -0.2293 -0.5432
 2785TIP3   OH229769   1.489   6.066   4.314  0.0757  0.0768 -0.2868
 2785TIP3    H129770   1.521   6.050   4.225 -0.8084 -1.3524 -0.3791
 2785TIP3    H229771   1.549   6.015   4.369 -0.2639 -0.2272 -0.1992
 2786TIP3   OH229772   1.747   0.498  12.303  0.5944  0.5106  0.1571
 2786TIP3    H129773   1.671   0.502  12.360  0.5874  0.5614  0.1438
 2786TIP3    H229774   1.711   0.485  12.215  0.5871  0.8881  0.1050
 2787TIP3   OH229775   0.220   6.382   0.807 -0.1854 -0.0158  1.0480
 2787TIP3    H129776   0.287   6.450   0.805  0.9468 -1.0737  1.9903
 2787TIP3    H229777   0.195   6.374   0.899 -1.2441 -0.0051  0.7848
 2788TIP3   OH229778   0.411   3.486   1.004 -0.1158 -0.1130 -0.2389
 2788TIP3    H129779   0.412   3.490   0.908 -0.2561  0.5022 -0.2208
 2788TIP3    H229780   0.399   3.393   1.024  1.7016 -0.5170 -0.7937
 2789TIP3   OH229781   6.639   6.104   2.996  0.5756 -0.0803 -0.0284
 2789TIP3    H129782   6.581   6.097   2.920 -0.0663  0.9836  0.3375
 2789TIP3    H229783   6.721   6.063   2.967  0.3410  0.2752 -1.2908
 2790TIP3   OH229784   1.828   3.637   4.953  0.0495 -0.3253  0.0368
 2790TIP3    H129785   1.818   3.712   4.895 -1.4423  0.7508  1.5920
 2790TIP3    H229786   1.920   3.610   4.941  1.7689  3.8692  1.7907
 2791TIP3   OH229787   3.169   5.330   1.362 -0.2512 -0.2470  0.0116
 2791TIP3    H129788   3.255   5.288   1.365 -1.1866 -2.8041 -3.2422
 2791TIP3    H229789   3.185   5.415   1.320  0.7340 -0.5687 -0.2951
 2792TIP3   OH229790   5.079   1.397  11.543 -0.3729  0.0865 -0.4293
 2792TIP3    H129791   5.141   1.447  11.596 -0.8887 -0.1616  0.4265
 2792TIP3    H229792   5.020   1.463  11.507  0.2770  0.3058 -1.1064
 2793TIP3   OH229793   6.417   0.801   0.240  0.0915  0.5161 -0.0731
 2793TIP3    H129794   6.462   0.825   0.321  0.5671  0.3489 -0.2789
 2793TIP3    H229795   6.488   0.776   0.180 -0.2957  0.0050 -0.3275
 2794TIP3   OH229796   5.327   1.001   5.425 -0.5014  0.1191  0.3400
 2794TIP3    H129797   5.287   1.067   5.481 -1.2336 -0.6935  0.7931
 2794TIP3    H229798   5.377   0.945   5.484  0.3364  0.4127 -0.0752
 2795TIP3   OH229799   4.148   0.624  15.964  0.3243  0.1672 -0.8051
 2795TIP3    H129800   4.075   0.579  16.007  0.2882  0.4242 -0.5927
 2795TIP3    H229801   4.142   0.597  15.872 -1.9215  2.5541 -1.4855
 2796TIP3   OH229802   4.234   3.548  10.485  0.1544 -0.1107  0.3501
 2796TIP3    H129803   4.252   3.583  10.398 -1.7542 -1.5451 -0.7105
 2796TIP3    H229804   4.213   3.456  10.470 -4.5338  0.4972  1.6281
 2797TIP3   OH229805   3.472   1.724  13.308  0.3118  0.3242  0.2138
 2797TIP3    H129806   3.497   1.640  13.348  0.3607  0.4702  0.4945
 2797TIP3    H229807   3.481   1.709  13.214 -1.8532 -0.6945  0.1006
 2798TIP3   OH229808   2.844   1.819  15.094 -0.1376  0.3616 -0.0399
 2798TIP3    H129809   2.758   1.858  15.110 -0.1616  0.1785  0.3083
 2798TIP3    H229810   2.845   1.742  15.151  0.1087  0.1511 -0.3311
 2799TIP3   OH229811   2.809   3.711  17.014 -0.3586 -0.0804 -0.2158
 2799TIP3    H129812   2.733   3.711  17.072 -0.6522  1.7543 -0.5554
 2799TIP3    H229813   2.774   3.734  16.928  0.3753 -0.7885 -0.7249
 2800TIP3   OH229814   2.244   2.300   1.295 -0.0168  0.0040 -0.3816
 2800TIP3    H129815   2.158   2.257   1.293 -0.3279  0.5582  0.3136
 2800TIP3    H229816   2.257   2.321   1.388  0.3937  0.8672 -0.6316
 2801TIP3   OH229817   4.240   2.001   1.779 -0.0544  0.3104  0.4995
 2801TIP3    H129818   4.303   2.073   1.769  1.3819 -0.7760  1.4146
 2801TIP3    H229819   4.219   1.976   1.689  2.3675 -0.5869  0.1171
 2802TIP3   OH229820   5.462   0.421  11.588 -0.1347 -0.1175 -0.2520
 2802TIP3    H129821   5.522   0.362  11.542  0.6043  1.2671 -1.1553
 2802TIP3    H229822   5.377   0.377  11.584  0.8953 -2.5772  1.8385
 2803TIP3   OH229823   0.333   0.020  14.494 -0.5621  0.2095  0.1513
 2803TIP3    H129824   0.292   0.080  14.432 -0.3635  0.8491  0.6324
 2803TIP3    H229825   0.284  -0.062  14.484 -1.9513  0.9376  0.7006
 2804TIP3   OH229826   1.147   2.634  13.672  0.5842 -0.0516 -0.1114
 2804TIP3    H129827   1.128   2.687  13.595 -0.3194 -0.6671 -0.3281
 2804TIP3    H229828   1.222   2.580  13.646  0.4851 -0.0296 -0.4450
 2805TIP3   OH229829   2.581   6.335   1.641 -0.8912  0.7135  0.0724
 2805TIP3    H129830   2.569   6.270   1.571  1.7978 -0.6772  0.7647
 2805TIP3    H229831   2.533   6.299   1.716  0.1967 -0.2845  0.3134
 2806TIP3   OH229832   6.423   3.411   5.093 -0.6294  0.3466  0.5778
 2806TIP3    H129833   6.428   3.323   5.056  0.2467 -0.3454  2.2234
 2806TIP3    H229834   6.348   3.409   5.152 -1.3192  1.0804 -0.2544
 2807TIP3   OH229835   6.066   0.771   2.548  0.1847  0.0855 -0.2242
 2807TIP3    H129836   6.036   0.680   2.546  0.3999 -0.0162  0.6319
 2807TIP3    H229837   6.057   0.797   2.640  4.2689 -0.5049  0.5518
 2808TIP3   OH229838   0.511   5.396  11.202  0.1561 -0.5219  0.4784
 2808TIP3    H129839   0.418   5.396  11.179 -0.3740  1.0043  2.4378
 2808TIP3    H229840   0.554   5.426  11.122 -1.1976  0.3363  0.0240
 2809TIP3   OH229841   4.564   1.699  16.389  0.0110  0.4549 -0.1003
 2809TIP3    H129842   4.563   1.749  16.308  1.2740  1.4616  0.4705
 2809TIP3    H229843   4.643   1.646  16.384 -0.5645 -0.4411 -0.0573
 2810TIP3   OH229844   4.442   1.954  13.138  0.1193  0.1037  0.7652
 2810TIP3    H129845   4.366   1.954  13.196  0.5676  1.8859  1.4453
 2810TIP3    H229846   4.516   1.932  13.196  0.5339  1.6325  0.8681
 2811TIP3   OH229847   4.806   6.017  17.066  0.2774  0.6294  0.0044
 2811TIP3    H129848   4.787   6.107  17.095  0.8940  1.4192 -1.8745
 2811TIP3    H229849   4.856   6.028  16.985  2.0478 -1.4261  0.7267
 2812TIP3   OH229850   0.351   6.691  16.064  0.8698  0.1977  0.3526
 2812TIP3    H129851   0.377   6.741  15.986  1.1378  0.1131  0.3849
 2812TIP3    H229852   0.426   6.699  16.123  0.6780  0.2362  0.5890
 2813TIP3   OH229853   4.687   2.615   2.791 -0.3409 -0.9357  0.2498
 2813TIP3    H129854   4.667   2.608   2.884 -1.6160  0.4427  0.1236
 2813TIP3    H229855   4.628   2.684   2.759  0.2508 -1.1964 -1.5211
 2814TIP3   OH229856   3.195   1.689  10.746  0.3833  0.1630  0.4843
 2814TIP3    H129857   3.229   1.613  10.700  0.6130  0.2433  0.5176
 2814TIP3    H229858   3.271   1.723  10.794  1.0785  2.1605 -1.8298
 2815TIP3   OH229859   1.125   3.953  12.425  0.0135  0.3985 -1.1126
 2815TIP3    H129860   1.058   3.950  12.357 -0.0664  1.9338 -1.1507
 2815TIP3    H229861   1.118   4.042  12.461  0.9791  0.0680 -0.0512
 2816TIP3   OH229862   5.516   2.101  12.817 -0.6154 -0.2183  0.7749
 2816TIP3    H129863   5.488   2.070  12.903  1.6859  0.9658  2.0550
 2816TIP3    H229864   5.571   2.031  12.783 -1.7324 -0.7965  0.1124
 2817TIP3   OH229865   3.081   4.483   1.033 -0.0682  0.3233 -0.3885
 2817TIP3    H129866   3.048   4.429   1.106  1.1897 -1.4676 -1.0591
 2817TIP3    H229867   3.071   4.573   1.063  1.0132 -0.3466  2.3257
 2818TIP3   OH229868   4.054   4.115   1.104 -0.2264 -0.1824 -0.3275
 2818TIP3    H129869   3.959   4.118   1.097 -0.1809  0.2022 -0.9217
 2818TIP3    H229870   4.085   4.145   1.018  0.4312  0.3685  0.0902
 2819TIP3   OH229871   1.123   0.083  11.955 -0.1924  0.3763 -0.3292
 2819TIP3    H129872   1.170   0.160  11.924  0.5840 -0.1746 -0.5663
 2819TIP3    H229873   1.192   0.019  11.973 -0.8545 -0.4298 -0.5922
 2820TIP3   OH229874   6.124   4.997   4.087 -0.1078 -0.0717 -0.4824
 2820TIP3    H129875   6.120   5.092   4.098  0.0264 -0.1418  0.1941
 2820TIP3    H229876   6.212   4.973   4.116  0.4724 -0.2168 -2.1981
 2821TIP3   OH229877   6.271   3.566   2.321 -0.1006 -0.3751  0.3327
 2821TIP3    H129878   6.267   3.605   2.234 -0.1750 -0.7594  0.1652
 2821TIP3    H229879   6.302   3.637   2.377  1.7322 -0.6150 -0.3033
 2822TIP3   OH229880   0.188   3.482   5.715  0.1506 -0.0877 -0.2600
 2822TIP3    H129881   0.227   3.400   5.685  1.0799  0.7398 -1.3945
 2822TIP3    H229882   0.127   3.507   5.645 -1.2084 -0.5094  0.7290
 2823TIP3   OH229883   0.427   0.024   4.446 -0.2828  0.6637 -0.2842
 2823TIP3    H129884   0.519   0.046   4.464  0.1453 -0.9396 -0.3471
 2823TIP3    H229885   0.386   0.021   4.532 -0.1639  0.9176 -0.2169
 2824TIP3   OH229886   6.705   6.371  15.213  0.1809  0.2225 -0.0608
 2824TIP3    H129887   6.636   6.384  15.278  0.9675  2.1776  0.4651
 2824TIP3    H229888   6.720   6.458  15.177  1.2074 -0.4711 -1.3953
 2825TIP3   OH229889   6.754   6.095  10.303  0.3166  0.0697 -0.1276
 2825TIP3    H129890   6.723   6.153  10.373  0.0212 -0.6605  0.3644
 2825TIP3    H229891   6.796   6.022  10.349  1.2342  0.1923 -0.7541
 2826TIP3   OH229892   2.662   1.141  12.794 -0.0251 -0.0300  0.4248
 2826TIP3    H129893   2.737   1.183  12.837 -0.8103  0.3602  1.4555
 2826TIP3    H229894   2.698   1.061  12.756  1.0408  0.4615  0.3426
 2827TIP3   OH229895   0.798   6.294   3.590 -0.2060  0.3066 -0.0726
 2827TIP3    H129896   0.834   6.375   3.626  2.0734  0.8766 -3.1944
 2827TIP3    H229897   0.852   6.225   3.630  2.4691  0.9447 -2.2178
 2828TIP3   OH229898   4.842   6.037   3.785  0.0765  0.0385  0.2010
 2828TIP3    H129899   4.750   6.059   3.794 -0.2436 -0.5358 -1.3267
 2828TIP3    H229900   4.876   6.102   3.723  0.2190 -0.8753 -0.7109
 2829TIP3   OH229901   6.218   4.389   5.652  0.1864 -0.4112 -0.1484
 2829TIP3    H129902   6.251   4.414   5.738 -0.2940 -0.0775 -0.0563
 2829TIP3    H229903   6.295   4.362   5.603  0.4327 -0.8017  0.4568
 2830TIP3   OH229904   3.246   5.651  16.488 -0.2497  0.0047  0.2003
 2830TIP3    H129905   3.266   5.584  16.554  0.2746 -0.6541 -0.6133
 2830TIP3    H229906   3.330   5.689  16.466 -0.4077  0.1376 -0.1802
 2831TIP3   OH229907   1.807   0.987   3.001  0.7317 -0.3523 -0.2109
 2831TIP3    H129908   1.805   0.940   3.084 -0.8815  0.8386  0.4877
 2831TIP3    H229909   1.755   0.933   2.941  0.4388 -0.3681  0.0552
 2832TIP3   OH229910   3.363   6.313   3.864 -0.2394 -0.3014  0.5246
 2832TIP3    H129911   3.317   6.397   3.869 -0.9308 -0.5696 -0.9163
 2832TIP3    H229912   3.456   6.336   3.872 -0.3871  0.6683 -0.3076
 2833TIP3   OH229913   0.678   5.019  15.571  0.5733 -0.0058  0.1450
 2833TIP3    H129914   0.597   4.971  15.585 -0.5356  1.6516 -0.3377
 2833TIP3    H229915   0.747   4.956  15.592 -0.8320 -0.8216  2.7061
 2834TIP3   OH229916   6.381   1.160   6.591 -0.1817 -0.1195 -0.3630
 2834TIP3    H129917   6.446   1.167   6.661  1.2959  1.1724 -1.7990
 2834TIP3    H229918   6.385   1.068   6.564  0.4570 -0.2408  0.1258
 2835TIP3   OH229919   4.376   4.119   2.897 -0.2694 -0.1001 -0.1886
 2835TIP3    H129920   4.322   4.043   2.919 -1.0487 -0.5494 -3.2187
 2835TIP3    H229921   4.315   4.180   2.854  1.0283  0.7584 -0.8768
 2836TIP3   OH229922   6.565   0.741   3.579 -0.0370 -0.2973 -0.0095
 2836TIP3    H129923   6.556   0.726   3.673  0.2393 -0.4278 -0.0029
 2836TIP3    H229924   6.617   0.821   3.572  0.5321 -0.6648 -0.0500
 2837TIP3   OH229925   1.339   3.413  16.199  0.0107 -0.6498  0.9301
 2837TIP3    H129926   1.276   3.399  16.270 -0.8721  3.0356  1.0523
 2837TIP3    H229927   1.370   3.325  16.178 -0.0401 -2.0178  5.4695
 2838TIP3   OH229928   3.799   3.907  13.204  0.2240  0.9188  0.0810
 2838TIP3    H129929   3.841   3.991  13.221  0.8478  0.7099 -0.4025
 2838TIP3    H229930   3.827   3.851  13.276  0.8447  0.7586 -0.2792
 2839TIP3   OH229931   1.014   1.632  16.690  0.2081 -0.0917 -0.2417
 2839TIP3    H129932   1.062   1.558  16.653 -0.5082 -0.9475  0.4974
 2839TIP3    H229933   1.015   1.617  16.784  1.6276  1.8314  0.0894
 2840TIP3   OH229934   1.240   3.085  15.843 -0.0045  0.1935 -0.5189
 2840TIP3    H129935   1.265   3.172  15.814 -2.5971  0.5992 -1.8001
 2840TIP3    H229936   1.173   3.100  15.910  1.3000 -0.8318  1.0818
 2841TIP3   OH229937   4.337   0.027  14.729  0.1627 -0.5644 -0.1948
 2841TIP3    H129938   4.334   0.037  14.634 -0.1922  2.0604 -0.0062
 2841TIP3    H229939   4.259  -0.024  14.751  0.7706 -2.0339 -1.3474
 2842TIP3   OH229940   2.704   2.033  15.471 -0.1208 -0.8000 -0.5000
 2842TIP3    H129941   2.639   1.984  15.421  0.8700 -0.9511 -1.6709
 2842TIP3    H229942   2.720   1.979  15.549 -0.7987 -1.1394 -0.5890
 2843TIP3   OH229943   4.092   6.164   6.100  0.0191 -0.8005 -0.1266
 2843TIP3    H129944   4.156   6.229   6.071 -1.0107 -0.3866 -1.5674
 2843TIP3    H229945   4.112   6.150   6.193  0.5947  1.1870  0.0856
 2844TIP3   OH229946   6.327   2.817  12.937 -0.1774  0.8293  0.7633
 2844TIP3    H129947   6.260   2.860  12.990 -0.4325 -0.6978  1.7328
 2844TIP3    H229948   6.410   2.849  12.973 -0.3421  1.9192  0.2377
 2845TIP3   OH229949   2.775   4.507  12.100 -1.0395 -0.3860  0.4311
 2845TIP3    H129950   2.795   4.493  12.008  0.4522  0.0974  0.6506
 2845TIP3    H229951   2.710   4.577  12.100  1.4691  2.1219 -0.1989
 2846TIP3   OH229952   6.313   6.217  15.492 -0.4106  0.0812 -0.3358
 2846TIP3    H129953   6.234   6.164  15.477 -1.7962  1.7399  0.7364
 2846TIP3    H229954   6.298   6.259  15.576  0.5388  2.3044 -1.2013
 2847TIP3   OH229955   3.759   4.897  15.615  0.4276 -0.2929 -0.1327
 2847TIP3    H129956   3.704   4.833  15.570  1.2744 -1.8696  0.9830
 2847TIP3    H229957   3.697   4.950  15.665 -0.1849 -1.2628  0.1695
 2848TIP3   OH229958   3.891   1.608   0.596 -0.1610 -0.0038 -0.1478
 2848TIP3    H129959   3.917   1.526   0.554 -2.3409 -0.8814  0.1009
 2848TIP3    H229960   3.884   1.671   0.523  1.1096 -0.1156 -0.3904
 2849TIP3   OH229961   0.639   4.136   4.637  0.3495  0.3309 -0.1873
 2849TIP3    H129962   0.574   4.066   4.637  0.0484  0.6091  0.4172
 2849TIP3    H229963   0.610   4.195   4.567 -0.6951  1.0426  0.8145
 2850TIP3   OH229964   0.518   5.984  15.889 -0.2552 -0.1857  0.0665
 2850TIP3    H129965   0.499   6.049  15.956  0.8779  1.5725 -1.2143
 2850TIP3    H229966   0.613   5.970  15.895  0.3718  1.9973 -2.7366
 2851TIP3   OH229967   3.044   3.506   3.099 -0.4241  0.4568  0.0217
 2851TIP3    H129968   3.122   3.452   3.111 -1.8104 -1.4833  0.9525
 2851TIP3    H229969   3.010   3.479   3.013 -1.9773 -1.4587  1.1511
 2852TIP3   OH229970   2.005   2.616   4.273  0.0305  0.1629 -0.4463
 2852TIP3    H129971   2.016   2.662   4.356 -2.0731  1.7475 -0.9802
 2852TIP3    H229972   1.911   2.606   4.263  0.3184 -2.9792 -1.1199
 2853TIP3   OH229973   2.123   2.087  17.033 -0.3450  0.3248 -0.1838
 2853TIP3    H129974   2.129   2.113  17.125 -0.2503  1.1534 -0.4112
 2853TIP3    H229975   2.138   2.169  16.985 -0.6345 -0.0563 -0.9273
 2854TIP3   OH229976   3.081   3.240   2.193  0.9502  0.0592 -0.1543
 2854TIP3    H129977   3.030   3.170   2.153  0.4022 -1.2165  2.6201
 2854TIP3    H229978   3.171   3.207   2.192  1.0665  0.3650 -0.9398
 2855TIP3   OH229979   1.160   5.383  14.193  0.0284 -0.2563  0.1576
 2855TIP3    H129980   1.169   5.350  14.283  0.5824 -1.3795 -0.2900
 2855TIP3    H229981   1.097   5.454  14.200 -0.1199 -0.4854  1.4021
 2856TIP3   OH229982   3.155   5.007   4.662  0.4476  0.3135 -0.2324
 2856TIP3    H129983   3.234   4.963   4.691  0.9141  1.0682 -0.3358
 2856TIP3    H229984   3.148   5.085   4.717 -0.5556 -0.0491  0.1846
 2857TIP3   OH229985   1.947   0.926   0.270  0.0396  0.1934 -0.0985
 2857TIP3    H129986   1.984   1.005   0.308  0.2945 -0.2260  0.5350
 2857TIP3    H229987   1.858   0.922   0.305  0.2871 -0.2132  0.4924
 2858TIP3   OH229988   1.637   6.382   4.047  0.2190 -0.4405 -0.3748
 2858TIP3    H129989   1.727   6.398   4.076  0.0511 -1.2557  0.6481
 2858TIP3    H229990   1.585   6.388   4.126 -0.3407 -2.0956 -0.5805
 2859TIP3   OH229991   5.802   2.566   3.084 -0.3656  0.1370  0.1128
 2859TIP3    H129992   5.873   2.614   3.126 -0.6347  1.6206 -1.0222
 2859TIP3    H229993   5.724   2.619   3.101 -0.5068  0.7383 -2.0215
 2860TIP3   OH229994   5.956   6.767   6.204 -0.0769 -0.0876 -0.3816
 2860TIP3    H129995   5.892   6.832   6.235 -0.2684 -0.0985 -0.7447
 2860TIP3    H229996   5.917   6.731   6.124  0.6080  0.2776 -0.9043
 2861TIP3   OH229997   1.315   6.341  13.240  0.1247  0.3570  0.6419
 2861TIP3    H129998   1.247   6.360  13.305  0.3559  1.5447  0.5502
 2861TIP3    H229999   1.356   6.260  13.272 -1.1555 -0.2592  0.8278
 2862TIP3   OH230000   1.222   6.077   4.358 -0.2461  0.1848 -0.0961
 2862TIP3    H130001   1.225   6.099   4.451 -2.6250 -0.5721  0.2100
 2862TIP3    H230002   1.314   6.079   4.330  0.6029 -0.3037  2.4387
 2863TIP3   OH230003   6.468   0.937  12.321 -0.3549 -0.4633  0.7129
 2863TIP3    H130004   6.474   0.842  12.322 -2.3800 -0.6863 -0.9890
 2863TIP3    H230005   6.523   0.964  12.248 -1.5403 -0.5760 -0.2630
 2864TIP3   OH230006   2.365   6.396   5.327  0.2291 -0.3145 -0.4224
 2864TIP3    H130007   2.366   6.356   5.414 -0.2173  0.7683  0.0888
 2864TIP3    H230008   2.290   6.355   5.283 -0.9055  0.7266  0.4841
 2865TIP3   OH230009   0.504   1.047   2.063  0.0459 -0.3160 -0.1366
 2865TIP3    H130010   0.536   1.033   1.974  0.6078  0.6480 -0.0943
 2865TIP3    H230011   0.409   1.044   2.055  0.0782  0.3337 -0.8761
 2866TIP3   OH230012   3.004   0.472  16.547  0.5640  0.4727  0.3620
 2866TIP3    H130013   2.925   0.478  16.493  0.8210  1.3159  0.0734
 2866TIP3    H230014   3.076   0.476  16.485  0.8481 -1.6624  0.4895
 2867TIP3   OH230015   6.759   0.590  13.528 -0.4112  0.1187 -0.2915
 2867TIP3    H130016   6.768   0.658  13.596 -2.6066  1.2487 -1.0418
 2867TIP3    H230017   6.828   0.611  13.465 -0.6934  1.3527 -0.2228
 2868TIP3   OH230018   2.975   0.710  16.702 -0.1437 -0.0927 -0.2643
 2868TIP3    H130019   2.996   0.630  16.653 -0.7149 -0.1542 -0.4177
 2868TIP3    H230020   3.058   0.738  16.739  0.4011  0.2249 -1.6731
 2869TIP3   OH230021   3.474   3.463   4.563  0.0899 -0.1838 -0.1001
 2869TIP3    H130022   3.474   3.489   4.471 -2.2999  0.0445 -0.1094
 2869TIP3    H230023   3.465   3.368   4.561 -0.3580 -0.1416 -0.1063
 2870TIP3   OH230024   0.819   3.328   2.993  0.5111  0.1742  0.4294
 2870TIP3    H130025   0.847   3.374   3.071  0.5667  0.1872  0.4017
 2870TIP3    H230026   0.730   3.300   3.012  0.6305 -0.0842  0.6134
 2871TIP3   OH230027   5.467   6.648   5.324 -0.4540 -0.0409 -0.2922
 2871TIP3    H130028   5.491   6.623   5.234 -2.2673 -0.1764 -0.7837
 2871TIP3    H230029   5.513   6.731   5.339 -0.5767  0.2871 -1.5882
 2872TIP3   OH230030   1.675   3.949   2.179  0.2247 -0.1825 -0.3576
 2872TIP3    H130031   1.727   4.019   2.139 -0.0602  1.0729  1.3695
 2872TIP3    H230032   1.723   3.924   2.258 -0.4484 -0.8871 -0.1533
 2873TIP3   OH230033   3.212   3.607   6.358  0.7606  0.0324 -0.1546
 2873TIP3    H130034   3.261   3.533   6.321 -1.7947 -1.4317 -0.8462
 2873TIP3    H230035   3.280   3.669   6.385  3.1329 -2.8966  1.2696
 2874TIP3   OH230036   6.210   1.668  16.875  0.6506  0.1979  0.1633
 2874TIP3    H130037   6.162   1.743  16.842  1.2936  0.3337 -0.4934
 2874TIP3    H230038   6.221   1.685  16.968  2.7461  2.0620 -0.3481
 2875TIP3   OH230039   2.440   4.269   2.202 -0.3304 -0.1302 -0.2660
 2875TIP3    H130040   2.386   4.205   2.249 -0.8299  1.5662  1.6486
 2875TIP3    H230041   2.376   4.327   2.159 -0.0306  0.7607  0.4390
 2876TIP3   OH230042   3.112   2.064   5.666 -0.0057  0.1775  0.0317
 2876TIP3    H130043   3.148   2.099   5.747  0.6005  0.2389 -0.2573
 2876TIP3    H230044   3.184   2.016   5.626 -0.3323  0.0477 -0.4143
 2877TIP3   OH230045   3.371   4.959  11.843  0.7318 -0.3804  0.0830
 2877TIP3    H130046   3.295   4.915  11.804  1.2962  0.2214 -1.7737
 2877TIP3    H230047   3.349   5.052  11.840  1.3365 -0.2372  0.0035
 2878TIP3   OH230048   5.433   2.425  13.422 -0.2045 -0.9329 -0.0865
 2878TIP3    H130049   5.385   2.504  13.448  0.9384 -0.1915 -0.1440
 2878TIP3    H230050   5.381   2.353  13.458 -1.7149 -0.2159 -0.7148
 2879TIP3   OH230051   1.160   5.003   5.022  0.2203  0.6238 -0.6506
 2879TIP3    H130052   1.188   5.090   4.992 -1.1084  0.9661 -0.9729
 2879TIP3    H230053   1.121   4.963   4.944 -0.6676  0.3903 -0.0940
 2880TIP3   OH230054   2.858   0.873   1.547  0.9478  0.3926 -0.2785
 2880TIP3    H130055   2.768   0.843   1.562  0.2220  2.8308  0.7920
 2880TIP3    H230056   2.868   0.947   1.606  3.9301 -0.2058  0.1087
 2881TIP3   OH230057   1.612   2.763   5.177  0.8111  0.2934  0.1253
 2881TIP3    H130058   1.518   2.760   5.191  0.6930 -0.5874 -0.7209
 2881TIP3    H230059   1.632   2.855   5.160  0.1662  0.5312  0.6278
 2882TIP3   OH230060   0.534   3.225  16.561 -0.2065 -0.5094  0.1745
 2882TIP3    H130061   0.453   3.262  16.594  0.6826  0.6107  1.2209
 2882TIP3    H230062   0.534   3.134  16.592 -1.5912 -0.9032 -0.8904
 2883TIP3   OH230063   5.282   4.227  14.324  0.0156 -0.5755 -0.6540
 2883TIP3    H130064   5.326   4.187  14.249  0.7026 -1.7444  0.3420
 2883TIP3    H230065   5.193   4.190  14.321  0.3880 -1.5308 -0.2388
 2884TIP3   OH230066   2.984   4.281   3.152  0.7157 -0.1816  0.5725
 2884TIP3    H130067   3.021   4.333   3.223  0.2967 -1.7779  2.0045
 2884TIP3    H230068   2.902   4.247   3.186 -0.0469 -0.0841 -1.0877
 2885TIP3   OH230069   6.011   6.136   3.353 -0.1515  0.3566  0.3259
 2885TIP3    H130070   6.006   6.210   3.292 -0.5144  0.7214  0.7929
 2885TIP3    H230071   5.939   6.079   3.326 -0.4460  0.6210  0.5436
 2886TIP3   OH230072   1.828   4.113  17.107 -0.0501 -0.0034  0.2350
 2886TIP3    H130073   1.800   4.100  17.016 -0.5758  1.5758  0.1382
 2886TIP3    H230074   1.792   4.198  17.130  1.2360  0.2192  1.4953
 2887TIP3   OH230075   2.700   2.513   4.941 -0.0564  0.3038 -0.2348
 2887TIP3    H130076   2.676   2.458   4.867  0.8726  1.2797 -1.3067
 2887TIP3    H230077   2.758   2.579   4.904  0.1594  1.0325  1.3098
 2888TIP3   OH230078   3.806   1.622  11.275 -0.0374  0.3196 -0.2768
 2888TIP3    H130079   3.837   1.663  11.194  0.0065  0.6155 -0.1134
 2888TIP3    H230080   3.713   1.644  11.279  0.0190  0.5369 -0.1122
 2889TIP3   OH230081   0.874   4.120   2.417 -0.0759  0.2490  0.2173
 2889TIP3    H130082   0.831   4.195   2.375 -1.8067 -1.4968 -1.2854
 2889TIP3    H230083   0.960   4.115   2.375  0.0660  1.3712  0.3431
 2890TIP3   OH230084   5.881   6.689   4.066 -0.3373 -0.0457  0.1754
 2890TIP3    H130085   5.859   6.667   4.156  1.5849 -1.9629  0.2619
 2890TIP3    H230086   5.976   6.674   4.060 -0.7235 -2.3444 -2.7467
 2891TIP3   OH230087   1.285   0.343   0.769 -0.0922 -0.4117 -0.5407
 2891TIP3    H130088   1.279   0.439   0.771  1.2163 -0.3239  0.2081
 2891TIP3    H230089   1.379   0.325   0.773 -0.2371 -1.7129 -1.9807
 2892TIP3   OH230090   6.770   0.146   1.899  0.0735 -0.1414  0.2109
 2892TIP3    H130091   6.761   0.222   1.841 -2.1174 -0.0365  0.6197
 2892TIP3    H230092   6.860   0.152   1.932  0.8529  0.6929 -1.8917
 2893TIP3   OH230093   5.806   5.898   2.730  0.1482 -0.1658  0.3329
 2893TIP3    H130094   5.835   5.979   2.687 -0.6358 -0.6451 -1.2040
 2893TIP3    H230095   5.720   5.920   2.766 -1.6378 -1.0976 -2.9700
 2894TIP3   OH230096   1.294   0.931  13.243  0.1915  0.0902 -0.3825
 2894TIP3    H130097   1.300   1.024  13.219  0.9482  0.6774  1.8184
 2894TIP3    H230098   1.362   0.919  13.310 -0.3761 -1.8885 -0.0956
 2895TIP3   OH230099   5.124   0.771  16.964 -0.2779  0.7198  0.2940
 2895TIP3    H130100   5.043   0.815  16.990  0.3527  3.3594 -1.7529
 2895TIP3    H230101   5.165   0.746  17.046 -2.4658  0.5785  1.4220
 2896TIP3   OH230102   0.766   2.746   1.466 -1.0282 -0.3708 -0.0284
 2896TIP3    H130103   0.715   2.823   1.489 -0.3792 -0.7899  3.3201
 2896TIP3    H230104   0.711   2.672   1.492  0.3145 -0.8603  1.6008
 2897TIP3   OH230105   4.123   5.604  12.536 -0.5184  0.0113  0.3041
 2897TIP3    H130106   4.180   5.616  12.612 -3.2462  0.0693  2.4741
 2897TIP3    H230107   4.037   5.632  12.566 -1.7313  0.0941 -2.8759
 2898TIP3   OH230108   3.351   4.081  16.623  0.4812  0.2740 -0.2861
 2898TIP3    H130109   3.431   4.029  16.621  1.0577  1.1667 -1.0513
 2898TIP3    H230110   3.368   4.150  16.688 -0.1609 -0.2737  0.4897
 2899TIP3   OH230111   0.842   2.529   0.432  0.2148  0.6834  0.4401
 2899TIP3    H130112   0.780   2.568   0.494 -0.4763 -1.0096  0.8620
 2899TIP3    H230113   0.882   2.457   0.481  0.4234 -0.0352 -0.7696
 2900TIP3   OH230114   2.875   1.353   3.568  0.2709 -0.2148 -0.2389
 2900TIP3    H130115   2.825   1.394   3.639 -1.0338 -2.5580  0.2853
 2900TIP3    H230116   2.966   1.353   3.600 -0.1077 -0.1211  0.8845
 2901TIP3   OH230117   4.153   1.393   0.092 -0.3852 -0.2346 -0.2138
 2901TIP3    H130118   4.071   1.386   0.042  0.2507  0.3533 -1.3671
 2901TIP3    H230119   4.207   1.321   0.058  0.3789  0.6985 -1.0361
 2902TIP3   OH230120   2.431   6.794  14.484  0.3621  0.0733  0.4361
 2902TIP3    H130121   2.498   6.845  14.529 -0.4301  1.5862 -0.0497
 2902TIP3    H230122   2.351   6.843  14.497 -0.3283 -0.7604 -0.5593
 2903TIP3   OH230123   2.366   2.374   3.602  0.5789 -0.7064  0.4514
 2903TIP3    H130124   2.419   2.295   3.606 -0.5571 -1.5229 -0.2644
 2903TIP3    H230125   2.278   2.344   3.580  0.0089  0.7075  0.6590
 2904TIP3   OH230126   4.262   4.332  16.227 -0.1702 -0.1325 -0.0621
 2904TIP3    H130127   4.344   4.378  16.208 -0.5929  1.3086  1.4167
 2904TIP3    H230128   4.286   4.239  16.223  1.5704  0.2510  0.4281
 2905TIP3   OH230129   0.081   0.310   5.904  0.6691  0.1536  0.4464
 2905TIP3    H130130   0.019   0.384   5.906  1.7463  1.1263 -0.5582
 2905TIP3    H230131   0.121   0.310   5.990 -2.2716 -1.9302  1.9807
 2906TIP3   OH230132   4.320   3.810  11.596 -0.0669  0.1472 -0.1931
 2906TIP3    H130133   4.393   3.849  11.645 -0.3191 -0.5546  0.7703
 2906TIP3    H230134   4.248   3.872  11.606  0.2181  0.5704 -0.6783
 2907TIP3   OH230135   0.463   5.164   0.587 -0.6701  0.0160 -0.2040
 2907TIP3    H130136   0.522   5.231   0.554  1.1132 -1.3482  0.0624
 2907TIP3    H230137   0.521   5.092   0.614 -2.2222 -0.2337  2.8866
 2908TIP3   OH230138   5.327   1.889   4.794 -0.9028  0.1122  0.2508
 2908TIP3    H130139   5.398   1.828   4.816 -0.0706  0.3676 -1.5880
 2908TIP3    H230140   5.353   1.971   4.835 -0.6244 -0.0477  0.4024
 2909TIP3   OH230141   5.155   1.578  16.801 -0.0191  0.1796 -0.5450
 2909TIP3    H130142   5.244   1.544  16.810  0.2667  1.0041 -0.2307
 2909TIP3    H230143   5.114   1.560  16.886 -0.4584 -1.0150 -0.9773
 2910TIP3   OH230144   4.589   3.916   5.117 -0.3258  0.3822 -0.1951
 2910TIP3    H130145   4.543   3.989   5.157  3.1589  0.9444  3.4149
 2910TIP3    H230146   4.675   3.952   5.094  0.9647 -2.1703  0.3091
 2911TIP3   OH230147   2.573   1.146  15.187  0.0743 -0.3985  0.4705
 2911TIP3    H130148   2.603   1.180  15.271 -0.8131 -1.1140  1.1049
 2911TIP3    H230149   2.485   1.182  15.177 -0.6657 -1.9559  0.8882
 2912TIP3   OH230150   0.111   3.119  16.458 -0.1712 -0.1685 -0.6409
 2912TIP3    H130151   0.161   3.085  16.532 -2.2739  0.7285  1.3170
 2912TIP3    H230152   0.166   3.190  16.423  1.2595 -1.1948 -0.5531
 2913TIP3   OH230153   4.857   6.009   1.904  0.0618 -0.3313 -0.4125
 2913TIP3    H130154   4.847   6.038   1.995  0.2398 -0.1444 -0.4517
 2913TIP3    H230155   4.801   5.932   1.897 -1.7841  0.9753 -0.7742
 2914TIP3   OH230156   0.114   1.044  14.360 -0.2709  0.1122  0.3568
 2914TIP3    H130157   0.073   0.986  14.296 -0.7613 -0.8805  1.5285
 2914TIP3    H230158   0.188   1.083  14.314 -0.4993 -0.7201 -0.7465
 2915TIP3   OH230159   3.577   2.674  13.730 -0.5395 -0.2542 -0.3508
 2915TIP3    H130160   3.595   2.646  13.641 -0.5910  0.7203 -0.6779
 2915TIP3    H230161   3.506   2.617  13.759 -1.0879 -0.0351 -1.2306
 2916TIP3   OH230162   1.716   5.334  11.737  0.3195 -0.3866  0.4048
 2916TIP3    H130163   1.803   5.367  11.716  0.0800  0.6117  0.9227
 2916TIP3    H230164   1.669   5.334  11.654  0.7745 -0.8322  0.1412
 2917TIP3   OH230165   3.261   1.628  11.207 -0.4009  0.4776 -0.2078
 2917TIP3    H130166   3.202   1.610  11.281 -0.5522 -0.0805 -0.4570
 2917TIP3    H230167   3.301   1.544  11.187  0.6190  0.8871  0.0592
 2918TIP3   OH230168   4.188   0.931  13.482  0.5151 -0.0867 -0.3866
 2918TIP3    H130169   4.253   0.931  13.553  0.1771  1.6575 -0.0302
 2918TIP3    H230170   4.208   0.853  13.431  2.0847 -0.2647  0.4475
 2919TIP3   OH230171   3.091   1.127   5.988  0.7785  0.2176 -0.0134
 2919TIP3    H130172   3.009   1.079   5.990  1.4907 -1.1144 -0.9658
 2919TIP3    H230173   3.158   1.062   6.009  1.6999  0.9630 -0.5190
 2920TIP3   OH230174   1.871   6.143   1.601  0.1198 -0.1710  0.1375
 2920TIP3    H130175   1.781   6.169   1.619 -0.5183 -1.4334 -1.0618
 2920TIP3    H230176   1.889   6.073   1.663 -0.2729 -0.9630 -0.6264
 2921TIP3   OH230177   5.407   1.037   1.020 -0.1136 -0.1488  0.1968
 2921TIP3    H130178   5.460   1.107   0.982  2.4848 -0.8194  2.2748
 2921TIP3    H230179   5.356   1.002   0.947  1.6607  1.1799 -1.7647
 2922TIP3   OH230180   6.512   0.592  16.624 -0.4559  0.2615 -0.2064
 2922TIP3    H130181   6.484   0.658  16.686  0.1055  0.7195 -0.4329
 2922TIP3    H230182   6.513   0.510  16.674  1.5813  0.8707  0.8755
 2923TIP3   OH230183   2.746   5.023  13.578  0.1584 -0.2487  0.2194
 2923TIP3    H130184   2.744   4.927  13.570 -0.2705 -0.2662  0.4834
 2923TIP3    H230185   2.781   5.039  13.666  0.2293 -0.1655  0.1757
 2924TIP3   OH230186   5.395   3.611  11.466 -0.9650 -0.0423  0.5705
 2924TIP3    H130187   5.437   3.645  11.387 -0.8002  3.3364  1.9075
 2924TIP3    H230188   5.311   3.576  11.436  0.8385 -2.8992 -1.5685
 2925TIP3   OH230189   3.842   1.727  10.710  0.4541  0.1021 -0.6243
 2925TIP3    H130190   3.775   1.783  10.668  0.0100 -1.0935 -1.5769
 2925TIP3    H230191   3.837   1.645  10.662  1.7399 -0.4512  0.1529
 2926TIP3   OH230192   0.742   4.348  12.579 -0.0017  0.0046  0.3438
 2926TIP3    H130193   0.821   4.360  12.631  0.8982 -0.4161 -0.8916
 2926TIP3    H230194   0.711   4.437  12.561  0.2289  0.1690  0.7503
 2927TIP3   OH230195   2.622   0.187   1.865 -0.0244 -0.1846 -0.1296
 2927TIP3    H130196   2.655   0.275   1.882  0.1733 -0.5941  1.8105
 2927TIP3    H230197   2.551   0.200   1.801  1.0343  1.1698 -1.0812
 2928TIP3   OH230198   5.512   3.436  11.028 -0.1572  0.3386 -0.3281
 2928TIP3    H130199   5.576   3.464  10.962  1.8017 -0.4284  1.1732
 2928TIP3    H230200   5.427   3.457  10.988  0.9401  0.3640 -2.8767
 2929TIP3   OH230201   1.970   1.113  10.811 -0.3283  0.2142 -0.1878
 2929TIP3    H130202   1.930   1.184  10.761 -0.4794  0.4357  0.2449
 2929TIP3    H230203   2.042   1.155  10.857 -1.9229  0.6520  2.0440
 2930TIP3   OH230204   0.090   4.734   3.005  0.1452 -0.3962  0.6143
 2930TIP3    H130205   0.001   4.716   2.973  0.9816 -0.8238 -1.7339
 2930TIP3    H230206   0.131   4.782   2.933  2.4163 -1.9672  0.7597
 2931TIP3   OH230207   1.836   3.628   5.237  0.1439 -0.2344 -0.2990
 2931TIP3    H130208   1.845   3.627   5.141  1.0120  0.0019 -0.2273
 2931TIP3    H230209   1.845   3.721   5.260 -2.2763  0.0384 -0.1668
 2932TIP3   OH230210   3.558   4.414  10.729 -0.1862 -0.1926 -0.2880
 2932TIP3    H130211   3.568   4.509  10.734 -1.0140 -0.1384  0.8753
 2932TIP3    H230212   3.468   4.401  10.698 -1.1189 -0.5375  2.3075
 2933TIP3   OH230213   6.580   1.341  16.540 -0.3244  0.4821 -0.3203
 2933TIP3    H130214   6.662   1.390  16.547  0.7952 -1.2622 -0.3122
 2933TIP3    H230215   6.565   1.334  16.445  1.0925 -1.4534 -0.4927
 2934TIP3   OH230216   2.648   0.038   5.545 -0.2642  0.1066 -0.5769
 2934TIP3    H130217   2.674   0.113   5.599 -0.9747  0.2755 -0.4519
 2934TIP3    H230218   2.613  -0.026   5.607  0.4091 -0.3664 -0.6765
 2935TIP3   OH230219   5.281   5.416  14.383  0.6346  0.5489  0.0015
 2935TIP3    H130220   5.253   5.425  14.292 -2.9196 -1.8363  0.6620
 2935TIP3    H230221   5.336   5.337  14.383 -1.1275 -0.7348  0.1430
 2936TIP3   OH230222   5.812   1.344  12.408  0.6573 -0.0368 -0.4236
 2936TIP3    H130223   5.841   1.253  12.421  0.6825  0.2643  2.1469
 2936TIP3    H230224   5.893   1.394  12.407  0.5937  0.0557 -0.8008
 2937TIP3   OH230225   6.458   1.110   1.762 -0.2928  0.3256  0.3967
 2937TIP3    H130226   6.375   1.082   1.723  0.7346 -1.6108 -0.5406
 2937TIP3    H230227   6.523   1.093   1.694  1.1866 -0.4171  1.9307
 2938TIP3   OH230228   5.178   4.687  11.168 -0.2157 -0.0880  0.4899
 2938TIP3    H130229   5.256   4.674  11.223 -1.3294 -0.8976  1.9376
 2938TIP3    H230230   5.173   4.781  11.157  0.6263  0.0231  0.9099
 2939TIP3   OH230231   2.817   2.197  11.512 -0.0740  0.7618  0.4110
 2939TIP3    H130232   2.863   2.185  11.428  1.6413  0.2898  1.3618
 2939TIP3    H230233   2.786   2.110  11.534 -1.1619  1.0159 -0.0509
 2940TIP3   OH230234   6.243   1.563   4.313  0.0498 -0.1453  0.3389
 2940TIP3    H130235   6.177   1.516   4.263 -0.2989  1.0082 -0.3157
 2940TIP3    H230236   6.297   1.494   4.352 -0.2774 -1.0696 -0.8018
 2941TIP3   OH230237   4.042   5.894   2.402  0.1530  0.2497 -0.4779
 2941TIP3    H130238   4.136   5.885   2.384  1.0989  1.9728  2.6946
 2941TIP3    H230239   4.034   5.877   2.496 -2.9513 -0.8984 -0.8243
 2942TIP3   OH230240   6.409   4.691  15.761  0.1929 -0.3616  0.0835
 2942TIP3    H130241   6.388   4.781  15.736  1.1955 -0.2879 -0.5461
 2942TIP3    H230242   6.327   4.657  15.797 -0.6580  0.2822 -1.1639
 2943TIP3   OH230243   0.705   1.476  16.989  0.0648 -0.1600 -0.2580
 2943TIP3    H130244   0.652   1.551  17.016 -2.7388 -1.8012 -0.7986
 2943TIP3    H230245   0.720   1.427  17.069  2.5005  1.2111  0.2202
 2944TIP3   OH230246   4.182   6.064   2.641  0.1008  0.1452 -0.0768
 2944TIP3    H130247   4.153   6.141   2.689 -0.4749 -0.1672  0.0907
 2944TIP3    H230248   4.212   6.098   2.557 -2.2182  0.3744 -0.8970
 2945TIP3   OH230249   4.543   1.200  11.907 -0.4285  0.0233  0.3980
 2945TIP3    H130250   4.513   1.225  11.994 -0.0665  0.9543  0.2735
 2945TIP3    H230251   4.590   1.118  11.920 -0.9191 -0.1709  0.9735
 2946TIP3   OH230252   6.116   3.224  12.481  0.3141 -0.7992  0.6633
 2946TIP3    H130253   6.078   3.138  12.500 -0.8228 -0.6044 -0.6182
 2946TIP3    H230254   6.155   3.215  12.395  1.4086 -0.4030  1.1003
 2947TIP3   OH230255   3.319   6.760  16.958  0.6327  0.0654 -1.0159
 2947TIP3    H130256   3.350   6.847  16.933  1.8676 -0.4065 -1.1871
 2947TIP3    H230257   3.374   6.735  17.032 -0.2119 -0.2713 -0.4885
 2948TIP3   OH230258   3.987   5.125   2.268  0.5147 -0.2852  0.0411
 2948TIP3    H130259   3.909   5.181   2.267 -0.1753 -1.2218 -0.3109
 2948TIP3    H230260   3.961   5.050   2.321  1.0021 -0.8416 -0.4955
 2949TIP3   OH230261   2.277   1.219   1.283 -0.3795  0.0100  0.2289
 2949TIP3    H130262   2.262   1.126   1.297  0.2032 -0.2019 -0.4961
 2949TIP3    H230263   2.281   1.228   1.188 -1.7922  0.9924  0.2275
 2950TIP3   OH230264   4.362   0.317   4.839  0.0297 -0.1266 -0.1261
 2950TIP3    H130265   4.367   0.222   4.837 -1.0908 -0.2598  1.3976
 2950TIP3    H230266   4.364   0.339   4.932  1.0230  1.4018 -0.4671
 2951TIP3   OH230267   2.112   0.717  15.563  0.0697  0.1108  0.1546
 2951TIP3    H130268   2.151   0.703  15.649  0.6560 -0.1368 -0.1362
 2951TIP3    H230269   2.018   0.725  15.579  0.3016  1.5731  0.9789
 2952TIP3   OH230270   3.313   3.800  15.341 -0.1417 -0.2815  0.1374
 2952TIP3    H130271   3.390   3.856  15.327  0.6639 -1.2662  0.5390
 2952TIP3    H230272   3.258   3.850  15.402 -0.1703  0.7382 -0.6883
 2953TIP3   OH230273   4.431   4.407  12.927 -0.6122  0.0244 -0.0914
 2953TIP3    H130274   4.474   4.344  12.870  0.1893  1.7489 -1.4886
 2953TIP3    H230275   4.413   4.359  13.008  1.3600 -1.5416 -0.5211
 2954TIP3   OH230276   2.239   0.495   1.800  0.1701 -0.9114  0.0950
 2954TIP3    H130277   2.318   0.534   1.838  0.4777 -0.9007 -0.5441
 2954TIP3    H230278   2.266   0.465   1.713 -0.9049  0.4366 -0.7436
 2955TIP3   OH230279   2.666   5.169  13.353  0.6741 -0.2671  0.1600
 2955TIP3    H130280   2.659   5.108  13.280  1.3873 -0.8116  0.5370
 2955TIP3    H230281   2.687   5.115  13.428  1.4686  0.4512  0.4766
 2956TIP3   OH230282   1.105   5.533   0.292 -0.2373  0.3274  0.1528
 2956TIP3    H130283   1.080   5.449   0.330 -0.7670  0.9503  1.2299
 2956TIP3    H230284   1.131   5.512   0.202  0.8099 -1.1437  0.7683
 2957TIP3   OH230285   0.450   5.843   5.533  0.1854 -0.0908 -0.6320
 2957TIP3    H130286   0.477   5.929   5.502  1.2020 -0.1847 -0.0424
 2957TIP3    H230287   0.360   5.855   5.563  0.5470  0.9436  0.0871
 2958TIP3   OH230288   1.925   2.492  15.937  0.3904  0.1595 -0.3550
 2958TIP3    H130289   1.986   2.548  15.985  0.8262 -0.0990 -0.5998
 2958TIP3    H230290   1.877   2.551  15.880 -0.6193  0.5711  0.8875
 2959TIP3   OH230291   1.255   6.714  15.614 -0.8856 -0.3652 -0.1718
 2959TIP3    H130292   1.263   6.621  15.593 -0.1586 -0.0340 -1.4991
 2959TIP3    H230293   1.253   6.717  15.709 -1.2333 -1.7627 -0.1095
 2960TIP3   OH230294   4.749   3.026   4.589  1.0006 -0.2091  0.3915
 2960TIP3    H130295   4.827   2.996   4.542  1.0846  1.1167 -0.3644
 2960TIP3    H230296   4.761   2.994   4.678  1.0311 -2.4668 -0.3523
 2961TIP3   OH230297   6.072   1.794  15.103  0.3284  0.1151  0.6063
 2961TIP3    H130298   6.038   1.835  15.183  0.4608 -0.4824  0.9767
 2961TIP3    H230299   6.157   1.758  15.129  0.9701  1.0313 -0.1476
 2962TIP3   OH230300   5.771   2.691  11.660  0.2713 -0.3596  0.2568
 2962TIP3    H130301   5.765   2.674  11.566 -0.5994 -1.8342  0.5338
 2962TIP3    H230302   5.787   2.605  11.699 -1.5970 -0.1747  1.6151
 2963TIP3   OH230303   1.989   0.954   2.540 -0.4445  0.1339  0.3156
 2963TIP3    H130304   1.915   1.004   2.504 -0.7032  0.0066  0.6659
 2963TIP3    H230305   1.973   0.951   2.634 -0.3460 -0.4712  0.3195
 2964TIP3   OH230306   2.875   5.507   4.843  0.1443 -0.0273  0.2435
 2964TIP3    H130307   2.862   5.454   4.765 -2.1069 -0.1638  0.6403
 2964TIP3    H230308   2.830   5.589   4.825  1.7333  0.9465  0.4792
 2965TIP3   OH230309   4.578   2.403   0.425 -0.2613  0.0435 -0.7540
 2965TIP3    H130310   4.630   2.481   0.406 -0.0768 -0.2342 -1.4040
 2965TIP3    H230311   4.488   2.429   0.408 -0.4047  0.6387  0.7220
 2966TIP3   OH230312   1.520   3.197   5.522  0.1933  0.0231  0.5955
 2966TIP3    H130313   1.492   3.159   5.606 -0.3438  1.0702  0.9064
 2966TIP3    H230314   1.515   3.291   5.536  3.2015  0.2974  0.4057
 2967TIP3   OH230315   3.602   3.763  14.696 -0.4166 -0.0759  0.3186
 2967TIP3    H130316   3.612   3.817  14.775  0.2350 -2.5542  2.0486
 2967TIP3    H230317   3.511   3.773  14.671 -0.4001  1.4881  0.8013
 2968TIP3   OH230318   4.455   1.282  13.989 -0.3931 -0.0576 -0.2018
 2968TIP3    H130319   4.384   1.347  13.994  1.5152  2.4204 -2.4886
 2968TIP3    H230320   4.461   1.259  13.896  1.4899 -0.5429 -0.0033
 2969TIP3   OH230321   5.395   2.315   1.188 -0.2160  0.3801 -0.0467
 2969TIP3    H130322   5.372   2.303   1.096  1.4466 -1.2685 -0.3125
 2969TIP3    H230323   5.466   2.253   1.203  0.1926  1.2826  2.1194
 2970TIP3   OH230324   0.582   6.717  12.764  0.1039  0.0807  0.6262
 2970TIP3    H130325   0.609   6.626  12.777  0.6791  0.1325 -0.0942
 2970TIP3    H230326   0.649   6.753  12.706 -0.3908  0.8267  0.5062
 2971TIP3   OH230327   1.169   3.016  14.141  0.1986  0.0260  0.0458
 2971TIP3    H130328   1.207   3.082  14.084  0.0061 -0.0566 -0.1777
 2971TIP3    H230329   1.076   3.040  14.146  0.2122  0.0273  0.3141
 2972TIP3   OH230330   5.238   5.382  12.333 -0.2534 -0.6149 -0.6415
 2972TIP3    H130331   5.264   5.319  12.400  0.6989 -0.4773 -0.8590
 2972TIP3    H230332   5.315   5.439  12.322 -1.3635  1.1242  0.1582
 2973TIP3   OH230333   4.071   1.164   3.498 -0.0340 -0.2328  0.1884
 2973TIP3    H130334   4.028   1.154   3.583  1.5133  1.3313  1.2198
 2973TIP3    H230335   4.023   1.235   3.455 -0.0949 -0.2373  0.2498
 2974TIP3   OH230336   1.741   6.055   1.350 -0.3390 -0.2456 -0.6510
 2974TIP3    H130337   1.680   6.024   1.416 -0.4672 -2.0643 -1.5765
 2974TIP3    H230338   1.743   6.150   1.362  0.5565 -0.5669  2.7168
 2975TIP3   OH230339   2.116   3.415   5.884 -0.2428  0.2206  0.1044
 2975TIP3    H130340   2.121   3.487   5.947 -0.9985  0.0449  0.3784
 2975TIP3    H230341   2.039   3.435   5.831 -0.8143 -0.6901  0.5727
 2976TIP3   OH230342   0.774   5.252   1.670 -0.5089 -0.4867 -0.1038
 2976TIP3    H130343   0.777   5.346   1.654  1.2962 -0.2286  1.4282
 2976TIP3    H230344   0.811   5.212   1.591  0.0529  0.1697 -0.1701
 2977TIP3   OH230345   3.298   1.597   2.627 -0.4654  0.0327  0.2548
 2977TIP3    H130346   3.340   1.515   2.599  1.4106  1.5344 -1.5994
 2977TIP3    H230347   3.371   1.652   2.657 -1.5089  1.5744  0.0667
 2978TIP3   OH230348   6.425   1.638   0.419  0.2340 -0.1247 -0.3469
 2978TIP3    H130349   6.499   1.580   0.399 -1.1625 -1.6073 -1.4922
 2978TIP3    H230350   6.366   1.585   0.472 -0.2027  0.8993  0.2203
 2979TIP3   OH230351   5.675   4.005  11.093  0.2566  0.0345  0.7349
 2979TIP3    H130352   5.609   4.005  11.023 -0.9173  0.1917  1.8163
 2979TIP3    H230353   5.722   3.923  11.081  1.2871  0.8441 -1.3308
 2980TIP3   OH230354   2.979   3.883  13.049  0.1783  0.4146  0.1406
 2980TIP3    H130355   2.954   3.843  13.132 -0.1578 -0.3390 -0.3194
 2980TIP3    H230356   3.048   3.945  13.072  1.3966 -1.1235  0.7247
 2981TIP3   OH230357   1.066   4.314  14.676 -0.8444 -0.0269  0.6415
 2981TIP3    H130358   1.140   4.365  14.642 -0.4847  0.0411  1.5110
 2981TIP3    H230359   0.990   4.369  14.659 -0.5968  0.2823  0.5088
 2982TIP3   OH230360   0.876   5.416   0.897 -0.1350 -0.2001  0.1873
 2982TIP3    H130361   0.969   5.436   0.908  0.1083 -0.3798 -1.3530
 2982TIP3    H230362   0.834   5.502   0.888  0.1530 -0.1516 -0.8998
 2983TIP3   OH230363   6.500   0.446  14.434 -0.6175  0.4699  0.3612
 2983TIP3    H130364   6.589   0.413  14.448 -0.3353  1.2635  0.4860
 2983TIP3    H230365   6.511   0.517  14.371 -1.2409  0.1952 -0.0621
 2984TIP3   OH230366   0.321   1.989  15.032  0.4856  0.0585  0.5053
 2984TIP3    H130367   0.333   1.894  15.026  0.5995  0.0800  0.3955
 2984TIP3    H230368   0.404   2.023  15.064  0.5803  0.1616  0.1540
 2985TIP3   OH230369   3.255   3.606   4.063 -0.1782  0.3844 -0.3384
 2985TIP3    H130370   3.289   3.676   4.008 -0.4040  2.1451  1.6249
 2985TIP3    H230371   3.173   3.641   4.098 -1.4650 -1.7763 -1.0161
 2986TIP3   OH230372   1.162   2.020  12.962  0.1863 -0.3835  0.3772
 2986TIP3    H130373   1.162   2.009  12.867 -1.3021 -1.6683  0.4839
 2986TIP3    H230374   1.232   1.962  12.992  0.6619  0.0266  0.0864
 2987TIP3   OH230375   2.244   6.343   3.799 -0.1631 -0.2774 -0.1535
 2987TIP3    H130376   2.215   6.323   3.710  1.6108 -2.2674 -0.3383
 2987TIP3    H230377   2.221   6.265   3.850 -1.1765  0.8415  1.1779
 2988TIP3   OH230378   0.250   4.951  16.751 -1.0118 -0.0539 -0.1690
 2988TIP3    H130379   0.161   4.979  16.729 -0.6472 -0.1266 -1.9012
 2988TIP3    H230380   0.253   4.858  16.727 -0.6573 -0.2170  0.4938
 2989TIP3   OH230381   2.906   5.542  10.752 -0.0126 -0.5274  0.6622
 2989TIP3    H130382   2.939   5.453  10.742  0.1148 -0.4142  0.0669
 2989TIP3    H230383   2.940   5.589  10.676 -1.1353 -0.2868  0.2871
 2990TIP3   OH230384   1.793   6.698   4.434  0.3387 -0.3814 -0.3073
 2990TIP3    H130385   1.721   6.685   4.496  0.0164 -0.9680 -0.8036
 2990TIP3    H230386   1.846   6.768   4.474  0.1500 -0.7649  0.6458
 2991TIP3   OH230387   4.191   2.670  15.627  0.1617 -0.0693  0.4290
 2991TIP3    H130388   4.128   2.605  15.656  0.0416 -0.6329 -1.0253
 2991TIP3    H230389   4.137   2.741  15.592  0.3254 -0.0184  0.2817
 2992TIP3   OH230390   3.539   0.271   3.437 -0.8987 -0.1989  1.0170
 2992TIP3    H130391   3.491   0.299   3.358 -0.8199 -0.2716  0.9432
 2992TIP3    H230392   3.483   0.205   3.477 -1.7571  1.0375  1.9480
 2993TIP3   OH230393   5.453   2.533   4.227  0.0344 -0.0766 -0.0722
 2993TIP3    H130394   5.545   2.542   4.204 -0.4078  3.0284 -1.1322
 2993TIP3    H230395   5.406   2.546   4.144 -1.3764 -0.3922  0.6428
 2994TIP3   OH230396   3.332   1.708  16.362  0.0660 -0.0816  0.6141
 2994TIP3    H130397   3.375   1.793  16.357 -1.4528  0.6415 -0.4592
 2994TIP3    H230398   3.390   1.656  16.419  1.9814  1.0580 -0.1980
 2995TIP3   OH230399   3.307   2.268   5.411 -0.0063 -0.2806  0.0004
 2995TIP3    H130400   3.371   2.219   5.461  1.3239  1.4768  0.1113
 2995TIP3    H230401   3.310   2.356   5.448 -0.2668  0.6203 -1.9904
 2996TIP3   OH230402   1.017   6.537   1.161 -0.7554 -0.3789 -0.1016
 2996TIP3    H130403   1.097   6.486   1.172  0.6471  1.4948 -1.0364
 2996TIP3    H230404   0.985   6.513   1.074 -0.1636  0.2246 -0.4917
 2997TIP3   OH230405   3.855   2.152   2.829 -0.2516  0.1226 -0.3816
 2997TIP3    H130406   3.846   2.210   2.753  1.9203  0.5036 -0.4025
 2997TIP3    H230407   3.931   2.186   2.876  0.6244 -2.2279  0.0275
 2998TIP3   OH230408   2.148   1.328  11.615  0.0999  0.1466 -0.1091
 2998TIP3    H130409   2.192   1.253  11.574  0.6421  1.1348 -1.3864
 2998TIP3    H230410   2.125   1.296  11.702  0.5003 -1.4434 -0.5372
 2999TIP3   OH230411   2.772   3.823  16.512 -0.0641  0.2928 -0.4438
 2999TIP3    H130412   2.861   3.849  16.537 -0.4818  0.0228  1.5210
 2999TIP3    H230413   2.783   3.741  16.465  0.6180 -1.4945  2.5483
 3000TIP3   OH230414   2.807   4.502   0.834  0.0190 -0.0225 -0.6031
 3000TIP3    H130415   2.769   4.450   0.763  0.1460 -1.8992  0.6315
 3000TIP3    H230416   2.831   4.438   0.901  0.8324  1.5835  0.7317
 3001TIP3   OH230417   1.211   5.355  12.656  0.1480  0.9881 -0.1941
 3001TIP3    H130418   1.154   5.385  12.584  1.3204  2.7506 -0.4477
 3001TIP3    H230419   1.263   5.285  12.617 -2.2769 -1.2418  0.2564
 3002TIP3   OH230420   1.267   5.716  14.412  0.1840 -0.3170 -0.0428
 3002TIP3    H130421   1.238   5.741  14.324  1.3881 -0.9962 -0.6555
 3002TIP3    H230422   1.338   5.776  14.433  1.8954 -1.9532 -0.7981
 3003TIP3   OH230423   4.560   4.652  16.095  0.5007 -0.4116 -0.1879
 3003TIP3    H130424   4.580   4.734  16.050 -0.6587 -1.0844 -2.0325
 3003TIP3    H230425   4.494   4.610  16.040  1.7047 -3.0148  0.2122
 3004TIP3   OH230426   5.877   5.070  12.486  0.3390 -0.2753 -0.5204
 3004TIP3    H130427   5.797   5.018  12.489 -0.0404  0.3015  2.5034
 3004TIP3    H230428   5.861   5.136  12.417 -1.1662 -1.0541 -0.9364
 3005TIP3   OH230429   0.478   0.766  14.787 -0.2052 -0.6341  0.4944
 3005TIP3    H130430   0.461   0.843  14.732 -1.8274  1.3357  3.4822
 3005TIP3    H230431   0.573   0.768  14.802 -0.0360 -0.0076 -0.5389
 3006TIP3   OH230432   0.019   1.199  16.632 -0.4756 -0.4066  0.2140
 3006TIP3    H130433   0.006   1.181  16.725  0.0086  3.4384  1.2210
 3006TIP3    H230434  -0.070   1.208  16.597 -0.6654  0.0248  0.7949
 3007TIP3   OH230435   3.489   4.298   4.414 -0.3101 -0.2546  0.1092
 3007TIP3    H130436   3.445   4.381   4.430 -1.0750 -0.0750 -2.4789
 3007TIP3    H230437   3.423   4.232   4.434 -0.1130 -0.2120  0.9440
 3008TIP3   OH230438   1.800   0.998  16.948  0.1206  0.0619 -0.7120
 3008TIP3    H130439   1.841   0.920  16.987 -0.8561  0.0172  0.2837
 3008TIP3    H230440   1.785   1.056  17.023 -0.4835  0.5978 -1.2388
 3009TIP3   OH230441   3.027   2.899   1.649  0.4592  0.3656  0.2641
 3009TIP3    H130442   3.070   2.976   1.685 -2.4223  3.3261 -1.9215
 3009TIP3    H230443   3.058   2.894   1.558 -3.7086  3.0292 -1.6149
 3010TIP3   OH230444   4.731   5.264   1.883  0.0530 -0.4690 -0.1202
 3010TIP3    H130445   4.637   5.263   1.901 -0.1429  1.8258 -0.7108
 3010TIP3    H230446   4.739   5.310   1.800  1.7930  1.1316  0.8434
 3011TIP3   OH230447   2.632   5.673  14.730 -0.2624 -0.0667  0.1843
 3011TIP3    H130448   2.576   5.634  14.797 -0.4809 -0.0107  0.0353
 3011TIP3    H230449   2.647   5.762  14.760  0.6154 -0.3924  0.7633
 3012TIP3   OH230450   1.345   6.778  13.674 -0.1677 -0.2922 -0.3910
 3012TIP3    H130451   1.380   6.823  13.597  1.9277  1.4721  1.4839
 3012TIP3    H230452   1.412   6.787  13.741 -2.8790  0.4438  2.4690
 3013TIP3   OH230453   4.607   1.715  12.834 -0.3984  0.2524  0.6374
 3013TIP3    H130454   4.636   1.805  12.817 -0.1645 -0.2096 -1.8104
 3013TIP3    H230455   4.673   1.660  12.790 -1.6946 -1.0126  0.2001
 3014TIP3   OH230456   4.520   2.135   4.500  0.2272 -0.2114 -0.2981
 3014TIP3    H130457   4.584   2.067   4.523  0.2173 -0.4988 -1.0762
 3014TIP3    H230458   4.493   2.113   4.411 -0.3674  0.3680 -0.2674
 3015TIP3   OH230459   5.971   6.147   1.985 -0.3961 -0.6048 -0.1481
 3015TIP3    H130460   5.970   6.203   2.062  2.1683  0.7033 -0.9657
 3015TIP3    H230461   5.919   6.070   2.011  0.0507 -0.0546  2.7232
 3016TIP3   OH230462   2.638   1.462   1.675  0.2326  0.0424  0.2948
 3016TIP3    H130463   2.568   1.399   1.657  0.5297  0.4050 -2.5119
 3016TIP3    H230464   2.710   1.408   1.707 -0.4614 -0.6455  0.7535
 3017TIP3   OH230465   5.569   1.113   5.314  0.2276  0.0775  0.2274
 3017TIP3    H130466   5.567   1.191   5.258 -1.1545 -1.0689 -1.4543
 3017TIP3    H230467   5.477   1.096   5.333  0.0209 -3.2349 -2.6959
 3018TIP3   OH230468   3.869   2.969   3.436  0.1396 -0.0315  0.2766
 3018TIP3    H130469   3.789   2.918   3.440  0.2930 -0.1928  2.6266
 3018TIP3    H230470   3.841   3.059   3.450  0.4306 -0.2478  2.6825
 3019TIP3   OH230471   1.445   4.439  14.878  0.4030  0.0295  0.3690
 3019TIP3    H130472   1.439   4.525  14.835  2.3095  0.1841  0.3467
 3019TIP3    H230473   1.435   4.376  14.807 -0.8414  0.2021  0.3605
 3020TIP3   OH230474   1.128   2.447  15.617  0.3690 -0.3237 -0.3921
 3020TIP3    H130475   1.132   2.487  15.530 -0.5731 -0.1907 -0.3745
 3020TIP3    H230476   1.204   2.388  15.619  1.3432  0.8973 -0.6771
 3021TIP3   OH230477   0.057   1.149  16.914 -0.2073  0.0984  0.2221
 3021TIP3    H130478   0.091   1.180  16.997 -0.5764 -0.0549  0.4306
 3021TIP3    H230479   0.116   1.077  16.889 -0.7659 -0.6120  0.9104
 3022TIP3   OH230480   0.386   4.960  16.017 -0.0292 -0.6420 -0.4771
 3022TIP3    H130481   0.307   4.954  15.963  0.1286 -0.8843 -0.6775
 3022TIP3    H230482   0.404   4.870  16.044  0.8627 -0.7580 -1.4111
 3023TIP3   OH230483   0.028   4.432   1.116 -0.0443 -0.0327 -0.0285
 3023TIP3    H130484   0.033   4.494   1.189  2.4352  0.6216 -0.6615
 3023TIP3    H230485   0.055   4.349   1.154  1.1092  0.2782 -0.1283
 3024TIP3   OH230486   3.223   2.754  16.558 -0.4069  0.3636  0.1343
 3024TIP3    H130487   3.310   2.733  16.593 -1.3204  0.6668  2.9000
 3024TIP3    H230488   3.232   2.844  16.527  0.9726 -0.5821 -2.5384
 3025TIP3   OH230489   3.157   4.907   6.089  0.4194 -0.4162  0.3286
 3025TIP3    H130490   3.071   4.892   6.129  0.6347 -0.3571  0.8209
 3025TIP3    H230491   3.218   4.864   6.149  0.7379 -0.4184  0.0016
 3026TIP3   OH230492   0.852   5.547   5.607 -0.0475 -0.3062 -0.5642
 3026TIP3    H130493   0.922   5.605   5.579  0.2310 -0.3739 -0.0047
 3026TIP3    H230494   0.894   5.462   5.619 -0.2115 -0.3353 -0.1743
 3027TIP3   OH230495   5.457   1.598   5.962 -0.2204  0.0486  0.2456
 3027TIP3    H130496   5.455   1.574   6.055  2.3578 -1.3145  0.0449
 3027TIP3    H230497   5.464   1.694   5.962 -1.6204  0.1868  1.3695
 3028TIP3   OH230498   4.936   0.137  13.657 -0.3605  0.2159  0.8259
 3028TIP3    H130499   5.000   0.208  13.646 -1.8199  1.2472 -2.0760
 3028TIP3    H230500   4.868   0.176  13.713 -0.1284  0.3345  1.0310
 3029TIP3   OH230501   4.637   5.505  13.778  0.4495 -0.3484 -0.1588
 3029TIP3    H130502   4.607   5.579  13.725  0.1273 -0.1002  0.3536
 3029TIP3    H230503   4.618   5.532  13.868  1.0458 -0.7312  0.0854
 3030TIP3   OH230504   4.825   4.852   5.565  0.3965  0.0621  0.4201
 3030TIP3    H130505   4.848   4.863   5.657 -2.5828  2.4165  1.0576
 3030TIP3    H230506   4.851   4.935   5.524  1.1664 -0.7399 -0.7620
 3031TIP3   OH230507   5.458   6.343   1.783  0.1501 -0.3953 -0.0766
 3031TIP3    H130508   5.553   6.351   1.779  0.1297 -0.6887 -1.4783
 3031TIP3    H230509   5.439   6.333   1.877  1.4039  0.5894  0.3124
 3032TIP3   OH230510   1.800   1.183   4.861 -0.1502  0.1312 -0.1276
 3032TIP3    H130511   1.822   1.109   4.917 -0.4189  0.2209  0.1000
 3032TIP3    H230512   1.781   1.255   4.922  0.3011  0.4438 -0.3478
 3033TIP3   OH230513   5.918   4.855   1.895  0.8808 -0.3989  0.3118
 3033TIP3    H130514   5.874   4.807   1.966 -1.3302  0.9276 -0.0808
 3033TIP3    H230515   5.981   4.911   1.940 -0.4169  0.3513  1.2585
 3034TIP3   OH230516   6.206   4.389   4.834 -0.2098 -0.2776  0.5371
 3034TIP3    H130517   6.246   4.417   4.916  1.3304  0.8885 -0.5479
 3034TIP3    H230518   6.259   4.431   4.766 -0.8635 -1.9368 -1.0837
 3035TIP3   OH230519   5.028   3.199  14.279 -0.6353  0.7229 -1.1047
 3035TIP3    H130520   5.107   3.247  14.255 -0.1788  0.1033 -0.8467
 3035TIP3    H230521   4.970   3.211  14.204  0.1387  0.2286 -1.7979
 3036TIP3   OH230522   3.372   5.167   0.377 -0.6891 -0.3384 -0.4431
 3036TIP3    H130523   3.350   5.243   0.324  1.3700 -0.0574 -0.9677
 3036TIP3    H230524   3.391   5.098   0.314  0.2405 -0.4476 -0.0598
 3037TIP3   OH230525   1.435   0.033  11.610  0.2042  0.1781 -0.3227
 3037TIP3    H130526   1.466  -0.038  11.665  1.3495  0.1226 -0.9961
 3037TIP3    H230527   1.429   0.109  11.669 -0.1553 -0.2606  0.2061
 3038TIP3   OH230528   1.662   3.009  12.154 -0.0317 -0.1958 -0.4869
 3038TIP3    H130529   1.752   2.998  12.185 -0.4559  0.3025  0.9940
 3038TIP3    H230530   1.656   3.101  12.129  0.0935 -0.4240 -1.3890
 3039TIP3   OH230531   6.002   6.107  16.739  0.0953  0.2486 -0.5231
 3039TIP3    H130532   6.013   6.199  16.763  0.0747 -0.1374  1.1527
 3039TIP3    H230533   5.914   6.102  16.701 -0.2322  0.7955  0.1303
 3040TIP3   OH230534   2.296   4.082  12.919 -0.2232 -0.2406 -0.2867
 3040TIP3    H130535   2.307   4.161  12.866  1.5978  0.2553  0.7392
 3040TIP3    H230536   2.377   4.033  12.905  0.4945  0.0898  2.2657
 3041TIP3   OH230537   2.641   0.198  16.161 -0.1975  0.1780  0.2424
 3041TIP3    H130538   2.597   0.267  16.211 -0.5772  0.4533 -0.4696
 3041TIP3    H230539   2.570   0.143  16.128 -0.2315  1.8731 -2.7908
 3042TIP3   OH230540   5.777   3.640   1.000  0.1526 -0.4347 -0.2661
 3042TIP3    H130541   5.699   3.591   0.975  0.2352  0.6702 -3.0075
 3042TIP3    H230542   5.743   3.724   1.031  0.2138  0.1657 -1.7593
 3043TIP3   OH230543   0.308   4.878   5.869 -0.1425 -0.0879 -0.2012
 3043TIP3    H130544   0.224   4.834   5.880 -0.1246 -0.1474 -0.3099
 3043TIP3    H230545   0.356   4.857   5.950 -0.4800  0.4929  0.1594
 3044TIP3   OH230546   2.886   6.787   1.025 -1.0148  0.3675 -0.3024
 3044TIP3    H130547   2.949   6.797   0.953 -2.1675 -0.6843 -1.5282
 3044TIP3    H230548   2.919   6.844   1.094  2.0155 -1.1552 -0.3444
 3045TIP3   OH230549   0.457   1.701  13.422  0.0762  0.0776  0.2790
 3045TIP3    H130550   0.504   1.619  13.438  0.8712  0.2495 -1.0355
 3045TIP3    H230551   0.500   1.764  13.480  0.9513  0.0431 -0.3027
 3046TIP3   OH230552   5.127   6.750  10.429  0.3049  0.0616  0.0595
 3046TIP3    H130553   5.206   6.796  10.402 -0.2711  1.5940  0.8090
 3046TIP3    H230554   5.154   6.660  10.445  1.7032  0.3691 -0.5119
 3047TIP3   OH230555   3.914   0.197   3.339 -0.2851  0.3819 -0.0859
 3047TIP3    H130556   3.896   0.243   3.257 -1.6338  0.3973  0.1954
 3047TIP3    H230557   3.847   0.129   3.345 -0.8494  1.0070  1.4517
 3048TIP3   OH230558   5.574   6.807  13.893 -0.0588 -0.0117 -1.0737
 3048TIP3    H130559   5.585   6.759  13.975 -0.0706 -0.2116 -1.1888
 3048TIP3    H230560   5.564   6.739  13.827  0.3338  0.1455 -1.2983
 3049TIP3   OH230561   2.473   3.055   0.585 -0.2169 -0.3243  0.2637
 3049TIP3    H130562   2.415   3.113   0.634  0.7848  0.6494  0.3364
 3049TIP3    H230563   2.537   3.024   0.649  0.1126 -0.3618 -0.0765
 3050TIP3   OH230564   0.428   2.543   4.880 -0.0906  0.3297  0.0540
 3050TIP3    H130565   0.521   2.522   4.893 -0.1880  0.4904  1.0412
 3050TIP3    H230566   0.429   2.637   4.858 -0.0398  0.4223  0.4338
 3051TIP3   OH230567   1.288   1.376   2.738  0.7715  0.3432  0.4206
 3051TIP3    H130568   1.269   1.286   2.711 -1.5123  0.8003  0.3008
 3051TIP3    H230569   1.286   1.373   2.834  1.9241  0.0686  0.4555
 3052TIP3   OH230570   1.055   1.704  15.442 -0.6050  0.7362  0.0135
 3052TIP3    H130571   1.122   1.661  15.494 -1.2810  0.8510  0.9943
 3052TIP3    H230572   1.093   1.710  15.354 -0.1563 -1.0475  0.0634
 3053TIP3   OH230573   2.825   2.095   1.938 -0.6317 -0.1064  0.7411
 3053TIP3    H130574   2.815   2.112   2.032  0.9897 -1.2722  1.1665
 3053TIP3    H230575   2.884   2.020   1.934 -1.5003 -0.7260 -1.2030
 3054TIP3   OH230576   2.873   4.315   0.118  0.3563 -0.6566  0.4025
 3054TIP3    H130577   2.836   4.283   0.201  0.3586  0.0258  0.6785
 3054TIP3    H230578   2.813   4.283   0.051 -0.6764  0.2813  0.8341
 3055TIP3   OH230579   2.356   6.673   5.127  0.4817  0.4494  0.1205
 3055TIP3    H130580   2.407   6.689   5.206 -0.6600  1.3026  0.7106
 3055TIP3    H230581   2.364   6.578   5.112  0.2395  0.1841  1.5927
 3056TIP3   OH230582   0.607   6.650   3.297 -0.4024  0.3649 -0.2412
 3056TIP3    H130583   0.539   6.611   3.352 -0.5095  1.1159  0.1717
 3056TIP3    H230584   0.559   6.697   3.229 -0.2696 -0.6130 -1.0337
 3057TIP3   OH230585   5.819   5.778  15.251  0.8090  0.5287  0.1314
 3057TIP3    H130586   5.768   5.839  15.198  2.1009  1.8274  0.3205
 3057TIP3    H230587   5.756   5.712  15.279 -0.0683  0.1935 -2.3826
 3058TIP3   OH230588   6.753   2.957  12.347 -0.3866 -0.7065  0.1251
 3058TIP3    H130589   6.716   2.994  12.267  0.6212 -0.5471 -0.2763
 3058TIP3    H230590   6.796   2.877  12.319  0.8296 -0.1399  0.3302
 3059TIP3   OH230591   1.446   6.255  14.314 -0.2666 -0.1743 -0.5366
 3059TIP3    H130592   1.450   6.350  14.298 -0.1245  0.3010  1.9264
 3059TIP3    H230593   1.366   6.227  14.270 -1.8866  1.6619  1.0440
 3060TIP3   OH230594   3.027   0.850   4.778 -0.7226 -0.3051 -0.4133
 3060TIP3    H130595   3.046   0.942   4.792  0.0300 -0.3193 -1.2405
 3060TIP3    H230596   3.025   0.839   4.683  0.6966 -1.4083 -0.3556
 3061TIP3   OH230597   3.357   3.449  11.282 -0.0390 -0.4976 -0.3129
 3061TIP3    H130598   3.414   3.373  11.294  0.8860  0.0735 -0.9470
 3061TIP3    H230599   3.292   3.420  11.218 -1.0794 -1.4614  1.1206
 3062TIP3   OH230600   0.506   2.071   5.043 -0.3896  0.4794 -0.4848
 3062TIP3    H130601   0.432   2.091   4.985 -0.2456  1.6011 -0.2952
 3062TIP3    H230602   0.583   2.075   4.985 -0.4435 -0.5527 -0.6531
 3063TIP3   OH230603   5.008   0.635  12.365  0.0655 -0.2111 -0.0340
 3063TIP3    H130604   4.969   0.607  12.447  1.6273 -0.5752  0.6318
 3063TIP3    H230605   5.062   0.560  12.338  0.5235  0.3647 -0.7541
 3064TIP3   OH230606   1.541   3.129   4.907 -0.3668 -0.1991  0.5011
 3064TIP3    H130607   1.513   3.176   4.828 -0.8072  0.9424  1.3050
 3064TIP3    H230608   1.565   3.042   4.876 -1.5754 -0.1300 -0.7463
 3065TIP3   OH230609   3.651   6.573   1.223  0.1090  0.1259 -0.0005
 3065TIP3    H130610   3.607   6.652   1.191 -0.8562 -0.8344 -1.1549
 3065TIP3    H230611   3.602   6.548   1.302  0.9618  1.1441  0.8676
 3066TIP3   OH230612   2.828   4.146   4.514  0.4523  0.6295  0.6533
 3066TIP3    H130613   2.795   4.149   4.424 -0.3540 -0.2976  0.8914
 3066TIP3    H230614   2.846   4.053   4.529  0.6155  0.7833  1.4305
 3067TIP3   OH230615   1.698   5.233  15.823 -0.6422 -0.2411 -0.0045
 3067TIP3    H130616   1.775   5.237  15.766 -0.4421  1.3540  0.3420
 3067TIP3    H230617   1.700   5.145  15.860  0.7965 -0.3508 -0.3060
 3068TIP3   OH230618   2.454   0.624  12.225 -0.3009  0.0008  0.3426
 3068TIP3    H130619   2.549   0.632  12.212 -0.2749 -0.2341  0.3864
 3068TIP3    H230620   2.418   0.698  12.177 -0.2930 -1.5528 -2.2277
 3069TIP3   OH230621   1.476   6.651   3.285 -0.1259  0.1774 -0.0506
 3069TIP3    H130622   1.484   6.647   3.190  2.5187  0.7704  0.0638
 3069TIP3    H230623   1.504   6.564   3.315  0.3837  0.4383  0.2357
 3070TIP3   OH230624   2.703   5.994  13.260 -0.0364  0.2599  0.3235
 3070TIP3    H130625   2.725   6.081  13.295 -1.0065  1.3233 -1.5251
 3070TIP3    H230626   2.757   5.985  13.182 -1.2054  0.0058 -0.4921
 3071TIP3   OH230627   5.056   5.205   3.523  0.4530 -0.3705 -0.1387
 3071TIP3    H130628   5.046   5.168   3.436  2.1241  0.9867 -0.9633
 3071TIP3    H230629   5.078   5.297   3.508  2.9809 -0.5949  1.6260
 3072TIP3   OH230630   6.727   3.265  10.625 -0.4171 -0.2652 -0.0895
 3072TIP3    H130631   6.816   3.252  10.593  0.0377  1.3650  0.3971
 3072TIP3    H230632   6.694   3.177  10.643  1.4943 -0.8612  0.7722
 3073TIP3   OH230633   3.425   2.656  14.752 -0.6332  0.5756  0.1151
 3073TIP3    H130634   3.337   2.641  14.719 -0.3333 -1.6822  0.1598
 3073TIP3    H230635   3.424   2.621  14.841  0.2560  0.6744  0.1728
 3074TIP3   OH230636   1.305   4.223   4.825  0.3507 -0.4101 -0.9941
 3074TIP3    H130637   1.220   4.191   4.793 -1.0211  1.4530  0.5777
 3074TIP3    H230638   1.320   4.173   4.906 -1.2005  1.8612  0.8034
 3075TIP3   OH230639   2.877   0.534   1.656 -0.2152  0.0162  0.1696
 3075TIP3    H130640   2.921   0.618   1.639 -2.2685  1.1231  0.0775
 3075TIP3    H230641   2.935   0.469   1.616  1.4544  1.3623  0.2684
 3076TIP3   OH230642   1.343   0.451   4.286  0.4941 -0.3715 -0.2513
 3076TIP3    H130643   1.354   0.486   4.375 -1.8405 -1.1240  0.3896
 3076TIP3    H230644   1.311   0.362   4.300 -0.9882 -0.1212 -1.8324
 3077TIP3   OH230645   0.257   4.447   3.501 -0.3408  0.7079 -0.1306
 3077TIP3    H130646   0.272   4.539   3.520  1.1913  0.1945  1.4756
 3077TIP3    H230647   0.167   4.443   3.469 -0.5324  2.7164  0.0606
 3078TIP3   OH230648   5.438   0.246  12.314 -0.0375 -0.0064 -0.5100
 3078TIP3    H130649   5.344   0.251  12.297  0.3873  1.1438 -2.9214
 3078TIP3    H230650   5.474   0.200  12.238  1.4338  0.2393  0.0066
 3079TIP3   OH230651   2.309   5.768  12.495  0.0581 -0.4708  0.0407
 3079TIP3    H130652   2.261   5.685  12.494 -1.7176  0.5146  0.3838
 3079TIP3    H230653   2.330   5.784  12.403 -0.2014 -0.9428 -0.1046
 3080TIP3   OH230654   5.836   0.942   0.968  0.5624 -0.1690 -0.3885
 3080TIP3    H130655   5.886   0.860   0.961 -0.7035 -0.9556 -0.6473
 3080TIP3    H230656   5.854   0.988   0.886  1.1600 -0.2643 -0.3106
 3081TIP3   OH230657   5.489   6.109   5.173  0.5626  0.3776  0.0822
 3081TIP3    H130658   5.461   6.079   5.086  2.5877  0.3210 -0.5879
 3081TIP3    H230659   5.409   6.143   5.212 -0.5417 -0.1717 -1.5482
 3082TIP3   OH230660   1.946   1.466   3.940 -0.2987  0.6724 -0.0297
 3082TIP3    H130661   1.952   1.546   3.993 -1.3940  2.4543 -2.3916
 3082TIP3    H230662   2.023   1.468   3.884  0.1571 -0.4753  0.5261
 3083TIP3   OH230663   3.994   1.534   3.012 -0.2929 -0.1703  0.1638
 3083TIP3    H130664   4.059   1.528   3.082 -0.8245  0.6121  0.7503
 3083TIP3    H230665   4.030   1.481   2.941  0.5166 -0.5396  0.8299
 3084TIP3   OH230666   6.747   4.836  15.091  0.6426  0.1354 -0.8447
 3084TIP3    H130667   6.828   4.829  15.142  0.5425  0.0471 -0.6998
 3084TIP3    H230668   6.776   4.873  15.007  1.1102 -1.5706 -1.4737
 3085TIP3   OH230669   0.266   2.949   0.229 -0.5162  0.5530  0.1809
 3085TIP3    H130670   0.229   2.948   0.318  0.8879  0.3023  0.7911
 3085TIP3    H230671   0.223   2.877   0.185 -1.3566  0.7819  0.6044
 3086TIP3   OH230672   1.887   1.063  13.992 -0.6259 -0.5306 -0.1921
 3086TIP3    H130673   1.806   1.097  14.030  0.8207  0.0839  2.6287
 3086TIP3    H230674   1.926   1.139  13.948 -0.3359 -0.0844  0.7960
 3087TIP3   OH230675   5.007   1.316  15.958  0.0677  0.3399 -0.0126
 3087TIP3    H130676   5.095   1.318  15.996  0.0689  2.3690  0.0215
 3087TIP3    H230677   4.981   1.224  15.961  2.5374 -0.4655 -0.8480
 3088TIP3   OH230678   6.590   1.721   3.988  0.3390 -0.0315  0.0963
 3088TIP3    H130679   6.509   1.675   3.966  1.0256 -0.5236 -1.6159
 3088TIP3    H230680   6.561   1.804   4.026 -0.9674 -0.1389 -0.5974
 3089TIP3   OH230681   4.847   1.506  15.874  0.1041  0.4944 -0.0390
 3089TIP3    H130682   4.917   1.453  15.911  0.1267 -0.4998 -1.4283
 3089TIP3    H230683   4.885   1.594  15.867  0.7736  0.2454  0.3928
 3090TIP3   OH230684   0.605   1.350  12.782  0.0305  0.3195  0.3905
 3090TIP3    H130685   0.513   1.374  12.771 -0.5659 -1.0651  1.9009
 3090TIP3    H230686   0.652   1.406  12.721 -2.0142 -0.4942 -2.1105
 3091TIP3   OH230687   1.080   0.734   3.547 -0.5714 -0.3173 -0.5732
 3091TIP3    H130688   0.988   0.729   3.520 -0.6989  1.4277 -0.5982
 3091TIP3    H230689   1.114   0.810   3.500  0.4064  0.1367  0.8053
 3092TIP3   OH230690   1.922   5.931   2.335  0.1525 -0.8851  0.0913
 3092TIP3    H130691   1.983   6.004   2.327 -1.7506  0.7228 -0.3006
 3092TIP3    H230692   1.942   5.894   2.421  1.0198  0.2179  0.3939
 3093TIP3   OH230693   0.230   1.697  16.616 -0.4241  0.3109  0.2236
 3093TIP3    H130694   0.221   1.682  16.522  0.0051 -0.1754  0.2600
 3093TIP3    H230695   0.211   1.612  16.656 -0.5536  0.5030  0.5722
 3094TIP3   OH230696   3.685   2.218  10.783 -0.2904 -0.7366  0.0351
 3094TIP3    H130697   3.707   2.240  10.692  1.3167 -0.2866  0.5052
 3094TIP3    H230698   3.652   2.128  10.779 -1.8370 -0.1583 -1.2014
 3095TIP3   OH230699   2.286   5.875  16.631  0.0344  0.0793  0.2880
 3095TIP3    H130700   2.350   5.805  16.619 -0.2321 -0.0271 -0.5800
 3095TIP3    H230701   2.331   5.940  16.684  0.8295 -0.0257 -0.2561
 3096TIP3   OH230702   0.192   5.434   2.827  0.0269 -0.1812 -0.2203
 3096TIP3    H130703   0.133   5.404   2.758 -0.3183 -0.3210  0.1305
 3096TIP3    H230704   0.218   5.353   2.872 -0.7890  0.0168  0.6378
 3097TIP3   OH230705   1.141   0.359  14.504 -0.7242  0.0101  0.0392
 3097TIP3    H130706   1.191   0.428  14.547 -0.4136  0.0932 -0.4524
 3097TIP3    H230707   1.097   0.403  14.431 -0.0921 -0.4055 -0.6125
 3098TIP3   OH230708   5.276   0.141   6.416 -0.1009 -0.2746 -0.5258
 3098TIP3    H130709   5.333   0.211   6.384 -1.7706  2.0462  1.1722
 3098TIP3    H230710   5.233   0.107   6.338  1.2234  0.1236 -1.4607
 3099TIP3   OH230711   2.311   2.234  13.747 -0.3817  0.5461  0.4594
 3099TIP3    H130712   2.223   2.209  13.775 -1.3079  1.5742 -1.3507
 3099TIP3    H230713   2.330   2.314  13.796  0.2006 -0.4789  1.9634
 3100TIP3   OH230714   6.651   5.632  12.791  0.0888 -0.0554 -0.3137
 3100TIP3    H130715   6.638   5.724  12.770  1.6398  0.1202 -0.5968
 3100TIP3    H230716   6.579   5.611  12.851 -0.1936  1.3678 -0.1194
 3101TIP3   OH230717   5.502   0.275  13.919 -0.0618 -0.3197  0.3767
 3101TIP3    H130718   5.416   0.311  13.940 -0.8086 -1.4165 -0.6453
 3101TIP3    H230719   5.484   0.185  13.893  1.4238 -0.6158  0.3001
 3102TIP3   OH230720   1.888   0.331  15.200  0.7378  0.0613  0.7767
 3102TIP3    H130721   1.811   0.291  15.242  0.7334  0.9549  1.6461
 3102TIP3    H230722   1.896   0.417  15.241  1.0473  0.7742 -0.7051
 3103TIP3   OH230723   0.288   2.810   4.901  0.5356  0.0159 -0.7313
 3103TIP3    H130724   0.309   2.873   4.970 -1.4257  1.9566 -1.7803
 3103TIP3    H230725   0.246   2.737   4.948  0.2404  0.7950  0.2568
 3104TIP3   OH230726   2.960   5.726   1.719 -0.2149  0.2636  0.3737
 3104TIP3    H130727   2.909   5.756   1.644 -0.2617  0.3713  0.4474
 3104TIP3    H230728   3.042   5.694   1.681 -0.3031  0.1678  0.2634
 3105TIP3   OH230729   0.497   0.170  12.273 -0.0380 -0.0137 -0.0758
 3105TIP3    H130730   0.555   0.100  12.301 -0.7633 -1.3553 -1.7662
 3105TIP3    H230731   0.417   0.126  12.246 -0.2004  1.3500 -2.0492
 3106TIP3   OH230732   3.701   4.730  16.184 -0.3385 -0.3771 -0.4428
 3106TIP3    H130733   3.620   4.730  16.234 -0.5850 -1.9288 -0.7642
 3106TIP3    H230734   3.705   4.642  16.146 -0.1561  0.6884 -3.1037
 3107TIP3   OH230735   2.126   2.700  16.013  0.2099 -0.1751  0.8320
 3107TIP3    H130736   2.185   2.630  15.986  0.2330 -0.0416  0.5355
 3107TIP3    H230737   2.140   2.770  15.949 -0.3607 -0.1858  0.6928
 3108TIP3   OH230738   4.488   5.703   4.018  0.1291  0.2757  0.0626
 3108TIP3    H130739   4.421   5.771   4.024 -0.8768 -0.7437  0.6919
 3108TIP3    H230740   4.445   5.624   4.048  1.1950 -0.7165 -0.9089
 3109TIP3   OH230741   6.342   0.326  16.335  0.0483 -0.6393  0.4674
 3109TIP3    H130742   6.331   0.290  16.424 -0.4898  0.2796  0.7800
 3109TIP3    H230743   6.398   0.403  16.348  1.5628 -1.5625 -0.2542
 3110TIP3   OH230744   2.539   5.336   4.612 -0.3565  0.0745 -0.0974
 3110TIP3    H130745   2.488   5.414   4.635 -0.2918  0.4861 -1.2699
 3110TIP3    H230746   2.491   5.263   4.652  0.0837  0.7785  1.7872
 3111TIP3   OH230747   0.492   5.110  14.514  0.0224 -0.0529  0.2490
 3111TIP3    H130748   0.425   5.092  14.580  1.4999 -0.2694  1.7601
 3111TIP3    H230749   0.451   5.174  14.456 -1.3067  0.2559  1.4576
 3112TIP3   OH230750   6.494   4.947   5.977  0.0666 -0.3031  0.0465
 3112TIP3    H130751   6.533   4.860   5.989  0.3893 -0.3056 -0.9399
 3112TIP3    H230752   6.401   4.934   5.995  0.4472 -0.3333  2.2438
 3113TIP3   OH230753   0.228   5.434  15.559 -0.1404 -0.0484  0.2156
 3113TIP3    H130754   0.322   5.425  15.570  0.1020  0.8033 -0.9996
 3113TIP3    H230755   0.204   5.512  15.609 -0.3030 -0.5707  0.9701
 3114TIP3   OH230756   3.858   4.285  10.643 -0.0925  0.4254  0.0758
 3114TIP3    H130757   3.920   4.341  10.691 -0.4445  0.6370  0.2889
 3114TIP3    H230758   3.903   4.263  10.562  0.8985 -0.6909  0.8893
 3115TIP3   OH230759   0.777   4.249   6.097 -0.5012 -0.1220  0.2917
 3115TIP3    H130760   0.725   4.192   6.154  0.2674  1.3396  2.5919
 3115TIP3    H230761   0.809   4.318   6.155  3.7404 -0.7344 -1.0021
 3116TIP3   OH230762   1.627   4.725  16.617  0.0730 -0.0413  0.4744
 3116TIP3    H130763   1.574   4.704  16.540  0.9573  0.2031 -0.2189
 3116TIP3    H230764   1.631   4.642  16.666 -2.5853  0.4091  1.6129
 3117TIP3   OH230765   4.437   6.718   5.506 -0.5452  0.2827  0.2018
 3117TIP3    H130766   4.532   6.715   5.521 -0.3909  1.1377 -0.5096
 3117TIP3    H230767   4.416   6.811   5.507 -1.3900  0.0958  0.4001
 3118TIP3   OH230768   2.494   5.036   3.041 -0.1849  0.4436 -0.2685
 3118TIP3    H130769   2.423   5.059   3.100 -0.3009 -1.0867  0.2303
 3118TIP3    H230770   2.516   5.118   2.996 -2.2587  0.9323 -0.4568
 3119TIP3   OH230771   0.494   5.302   5.846 -0.1329  0.0750  0.0792
 3119TIP3    H130772   0.520   5.384   5.804  0.1219 -0.4133 -0.7526
 3119TIP3    H230773   0.555   5.292   5.919  1.0711 -0.3138 -0.9591
 3120TIP3   OH230774   5.943   2.140   1.798 -0.3925  0.1910 -0.2275
 3120TIP3    H130775   5.977   2.107   1.715  2.2991 -4.5775  2.3694
 3120TIP3    H230776   6.010   2.201   1.829 -0.1181 -0.0184 -0.4084
 3121TIP3   OH230777   5.938   5.042  11.143  0.7173  0.3220 -0.1545
 3121TIP3    H130778   5.995   5.097  11.090  0.2940  1.5199  0.5910
 3121TIP3    H230779   5.852   5.085  11.139  0.0997 -0.8834 -0.4339
 3122TIP3   OH230780   0.332   0.305   5.090 -0.0516 -0.0138 -0.0796
 3122TIP3    H130781   0.265   0.370   5.112 -0.4858 -0.8129  1.0719
 3122TIP3    H230782   0.402   0.355   5.048  0.1384  1.3982  1.8074
 3123TIP3   OH230783   2.085   6.313  11.240 -0.3616 -0.0951  1.2680
 3123TIP3    H130784   2.049   6.380  11.181  0.2211 -1.2240 -0.4649
 3123TIP3    H230785   2.178   6.337  11.248 -0.2582 -0.4142  1.0369
 3124TIP3   OH230786   4.785   6.455  14.726  0.0358  0.4209  0.1469
 3124TIP3    H130787   4.818   6.463  14.815 -1.2362  1.6658  0.5419
 3124TIP3    H230788   4.789   6.544  14.691 -1.3703  0.3216 -0.3244
 3125TIP3   OH230789   2.960   4.795   5.728 -0.1243 -0.4598 -0.3499
 3125TIP3    H130790   2.946   4.873   5.782 -0.3416 -1.6319  1.3800
 3125TIP3    H230791   3.045   4.762   5.757 -1.3609 -2.5143  1.1875
 3126TIP3   OH230792   0.389   1.635   5.106  0.2743  0.1547  0.0195
 3126TIP3    H130793   0.439   1.586   5.171  2.5230  1.0592 -0.9120
 3126TIP3    H230794   0.307   1.658   5.150  0.3863 -1.9178  1.4213
 3127TIP3   OH230795   4.914   3.230   1.522  0.5069 -0.3114  0.2042
 3127TIP3    H130796   4.944   3.296   1.459  1.4885  1.6529  2.5747
 3127TIP3    H230797   4.966   3.152   1.502  0.3424  0.0321 -1.7725
 3128TIP3   OH230798   2.302   3.639  14.179  0.0856 -0.2630 -0.0744
 3128TIP3    H130799   2.326   3.724  14.217 -0.5586 -0.7845  1.5796
 3128TIP3    H230800   2.293   3.657  14.085 -1.0168  1.7287  0.3410
 3129TIP3   OH230801   5.740   3.709   0.253  0.2936  0.2283 -0.1527
 3129TIP3    H130802   5.812   3.743   0.200 -0.7261  0.6691 -1.3045
 3129TIP3    H230803   5.663   3.718   0.197 -0.7064  0.0195  1.1450
 3130TIP3   OH230804   3.070   0.813   5.368  0.6323  0.3856 -0.0765
 3130TIP3    H130805   3.087   0.830   5.276  0.9008  1.1913  0.1113
 3130TIP3    H230806   3.096   0.722   5.381  1.7057  0.6075 -0.5479
 3131TIP3   OH230807   1.440   3.120  16.185  0.2942  0.0374 -0.4494
 3131TIP3    H130808   1.416   3.119  16.093  2.1453  0.0204 -0.9677
 3131TIP3    H230809   1.535   3.111  16.185  0.5056  1.6242  1.4024
 3132TIP3   OH230810   5.988   2.254   4.337 -0.0068  0.3372 -0.1850
 3132TIP3    H130811   5.986   2.232   4.244  0.2355 -0.6986  0.0453
 3132TIP3    H230812   6.080   2.247   4.362 -0.3461 -1.7626  0.6537
 3133TIP3   OH230813   0.166   0.965   6.354 -0.1463 -0.2353  0.5557
 3133TIP3    H130814   0.099   0.960   6.422  1.3759 -2.4614  2.0211
 3133TIP3    H230815   0.239   1.011   6.395 -0.3357  1.2627 -0.6945
 3134TIP3   OH230816   1.575   4.915   4.129  0.5343  0.0839 -0.6519
 3134TIP3    H130817   1.601   4.826   4.152  0.7272 -0.1578 -1.7342
 3134TIP3    H230818   1.598   4.968   4.206  0.1660 -0.8330  0.1086
 3135TIP3   OH230819   2.161   5.026  16.986 -0.1563 -0.0023 -0.0624
 3135TIP3    H130820   2.077   5.043  17.028  0.7185  0.9362  1.4055
 3135TIP3    H230821   2.152   5.063  16.898 -1.1462  0.4627  0.2223
 3136TIP3   OH230822   1.077   1.549   0.567 -0.9196 -0.4121  0.0899
 3136TIP3    H130823   1.108   1.459   0.573 -0.4183 -0.2651 -0.2206
 3136TIP3    H230824   1.132   1.597   0.629 -0.8253 -0.2237 -0.1406
 3137TIP3   OH230825   2.467   3.150  11.306 -0.7703 -0.1703  0.4196
 3137TIP3    H130826   2.459   3.076  11.366 -1.0815 -0.7534 -0.3296
 3137TIP3    H230827   2.394   3.207  11.327 -0.1328  0.2908  1.4764
 3138TIP3   OH230828   5.628   1.101   0.548  0.0973  0.1356 -0.1939
 3138TIP3    H130829   5.671   1.018   0.568  1.9109  1.3264  1.1623
 3138TIP3    H230830   5.675   1.134   0.471  0.4110  0.6090  0.1990
 3139TIP3   OH230831   3.680   1.575   3.343  0.1585  0.3223  0.0587
 3139TIP3    H130832   3.636   1.621   3.415 -1.4136  0.6922 -1.0729
 3139TIP3    H230833   3.618   1.581   3.270  0.9250 -1.6050 -0.8114
 3140TIP3   OH230834   0.941   2.323  13.469 -0.0966  0.0134  0.1540
 3140TIP3    H130835   1.015   2.265  13.451 -0.2316  0.1810 -1.0544
 3140TIP3    H230836   0.914   2.355  13.383 -0.2292  1.6399  0.7648
 3141TIP3   OH230837   4.122   0.211  15.618  0.3903  0.2183  0.1395
 3141TIP3    H130838   4.154   0.130  15.658 -1.6377 -1.5382 -1.5530
 3141TIP3    H230839   4.195   0.241  15.564  1.0001 -0.7826  0.3761
 3142TIP3   OH230840   6.096   6.035   2.939  0.0972  0.3552  0.1587
 3142TIP3    H130841   6.051   6.116   2.916  0.1902 -0.1029 -1.8181
 3142TIP3    H230842   6.180   6.064   2.975  0.6484  1.1981 -1.6408
 3143TIP3   OH230843   2.105   1.981  11.924 -0.5987  0.7176  0.6499
 3143TIP3    H130844   2.077   1.894  11.895  1.9875  0.0576 -0.1282
 3143TIP3    H230845   2.077   2.040  11.854 -1.5199  0.3759  0.7220
 3144TIP3   OH230846   4.655   2.879  17.094  0.3270 -0.2665  0.4211
 3144TIP3    H130847   4.658   2.799  17.042  1.0785  1.0423 -1.7352
 3144TIP3    H230848   4.708   2.860  17.171  0.1138 -1.9606  0.1784
 3145TIP3   OH230849   0.951   3.952   4.523 -0.1997 -0.0150 -0.1455
 3145TIP3    H130850   0.894   3.944   4.599 -1.5468  0.2877 -1.0964
 3145TIP3    H230851   0.994   3.867   4.516 -1.1466 -0.5280  0.1245
 3146TIP3   OH230852   2.380   6.174   0.810 -0.6306 -0.0982  0.4773
 3146TIP3    H130853   2.326   6.104   0.846  0.1107 -1.8329 -1.5994
 3146TIP3    H230854   2.317   6.240   0.781 -1.4363 -0.6897  0.8464
 3147TIP3   OH230855   2.049   3.916  12.877 -0.4300  0.5676 -0.0773
 3147TIP3    H130856   2.132   3.957  12.903 -0.0138  0.1690 -0.7416
 3147TIP3    H230857   1.987   3.989  12.871 -0.7900  0.6006  2.7929
 3148TIP3   OH230858   0.902   0.044  13.547 -0.5444 -0.3428 -0.0726
 3148TIP3    H130859   0.849   0.058  13.469 -1.8915 -3.1225  0.2367
 3148TIP3    H230860   0.897  -0.050  13.563  1.0751 -0.0944  2.4133
 3149TIP3   OH230861   3.034   6.332  14.827  0.2528  0.1700 -0.0914
 3149TIP3    H130862   3.001   6.360  14.742  0.5242  0.6016 -0.0553
 3149TIP3    H230863   3.126   6.357  14.827  0.2001  0.3761  0.4138
 3150TIP3   OH230864   1.885   3.003  13.652 -0.6644  0.5181  0.7400
 3150TIP3    H130865   1.959   2.985  13.593 -0.6028  1.2881  0.5804
 3150TIP3    H230866   1.854   2.916  13.676  1.5011  0.0980  2.3482
 3151TIP3   OH230867   0.281   4.801   3.394  0.3433 -1.2013  0.2394
 3151TIP3    H130868   0.312   4.748   3.321 -0.1632 -1.9441  0.5429
 3151TIP3    H230869   0.226   4.868   3.353  2.7513  0.5153 -0.3586
 3152TIP3   OH230870   3.949   6.178   1.971 -0.9303 -0.1600 -0.7106
 3152TIP3    H130871   3.984   6.123   2.041  0.3998  1.1958 -0.2540
 3152TIP3    H230872   3.901   6.247   2.016 -3.1382 -1.2214 -1.2995
 3153TIP3   OH230873   5.145   6.288   5.760  0.2899  0.2541 -0.6050
 3153TIP3    H130874   5.141   6.375   5.720 -1.2572  0.5880  0.2009
 3153TIP3    H230875   5.112   6.301   5.849  0.5902 -1.0592 -0.2824
 3154TIP3   OH230876   0.408   3.892   2.234 -0.1394  0.5264  0.2617
 3154TIP3    H130877   0.499   3.902   2.205  0.3853  1.0640  2.0187
 3154TIP3    H230878   0.361   3.963   2.190  0.4305  0.7083 -0.0622
 3155TIP3   OH230879   1.605   2.379  15.014 -0.4860 -0.0231  0.2123
 3155TIP3    H130880   1.527   2.347  14.969 -0.4670 -2.4420  1.7330
 3155TIP3    H230881   1.585   2.369  15.107  1.2664  0.2486  0.6539
 3156TIP3   OH230882   2.577   4.925  12.308  0.1563 -0.5503 -0.3102
 3156TIP3    H130883   2.608   4.995  12.366  2.9420 -0.5054 -1.6802
 3156TIP3    H230884   2.514   4.877  12.361  0.0029  1.5064  1.5305
 3157TIP3   OH230885   2.830   2.617  13.175  0.3627  0.2684 -0.1662
 3157TIP3    H130886   2.800   2.527  13.189 -0.6763  0.1684 -2.5681
 3157TIP3    H230887   2.864   2.644  13.260  0.8677 -2.4382  0.5928
 3158TIP3   OH230888   3.743   4.748   6.348 -0.2312 -0.0420  0.1380
 3158TIP3    H130889   3.786   4.785   6.425 -0.1620  1.6333 -0.6399
 3158TIP3    H230890   3.658   4.719   6.380 -0.8184  2.0083  0.6210
 3159TIP3   OH230891   0.759   6.260   0.044 -0.3238 -0.4056  0.6639
 3159TIP3    H130892   0.840   6.233   0.088  0.6952  2.1037  0.5233
 3159TIP3    H230893   0.707   6.302   0.113 -0.0792  0.7922  0.1417
 3160TIP3   OH230894   2.298   5.349  14.143  0.4076 -0.1557  0.3980
 3160TIP3    H130895   2.353   5.273  14.162  1.7393  1.2307  2.7565
 3160TIP3    H230896   2.339   5.391  14.067  1.0273 -0.5849  0.4921
 3161TIP3   OH230897   1.299   1.200  12.870 -0.2692  0.4789  0.2742
 3161TIP3    H130898   1.251   1.282  12.862 -2.1441 -0.5923  0.0052
 3161TIP3    H230899   1.302   1.184  12.965  1.4405  1.5614  0.4478
 3162TIP3   OH230900   4.181   1.285   1.517 -0.1279  0.0582 -0.2599
 3162TIP3    H130901   4.159   1.354   1.579  0.1730  0.8985 -1.0590
 3162TIP3    H230902   4.113   1.220   1.528  0.2726 -0.1252  1.4047
 3163TIP3   OH230903   4.460   1.690   1.067  0.2194  0.0288 -0.4465
 3163TIP3    H130904   4.382   1.685   1.122 -0.2149 -2.2324 -1.1506
 3163TIP3    H230905   4.427   1.716   0.981  0.4300  0.3535 -0.4292
 3164TIP3   OH230906   1.854   2.751  13.903  0.4638 -0.4417 -1.0010
 3164TIP3    H130907   1.914   2.724  13.973  0.2369 -1.5497 -1.2100
 3164TIP3    H230908   1.822   2.837  13.931  0.8412 -0.5938 -0.0390
 3165TIP3   OH230909   3.891   2.338  12.705  0.2635  0.5227 -0.4448
 3165TIP3    H130910   3.948   2.346  12.781  0.1114  0.8772 -0.3666
 3165TIP3    H230911   3.806   2.316  12.742 -0.1596  2.1121 -0.3853
 3166TIP3   OH230912   0.527   0.608  16.585 -0.0918  0.7907  0.2222
 3166TIP3    H130913   0.532   0.655  16.502  1.1078  0.6908  0.2124
 3166TIP3    H230914   0.571   0.666  16.648  0.8626 -0.0261  0.3370
 3167TIP3   OH230915   6.019   3.675   3.824  0.1888  0.0132 -0.5471
 3167TIP3    H130916   6.104   3.711   3.798 -0.1403  0.3345 -1.2134
 3167TIP3    H230917   5.972   3.665   3.741  0.3895 -2.2912 -0.4475
 3168TIP3   OH230918   4.401   0.782   5.009  0.2850 -0.4170  0.1726
 3168TIP3    H130919   4.384   0.734   5.090 -0.8597  0.1194  0.2696
 3168TIP3    H230920   4.425   0.714   4.946  2.3334 -0.7310  1.2214
 3169TIP3   OH230921   5.782   6.092   4.927  0.1759 -0.3116  0.3095
 3169TIP3    H130922   5.701   6.042   4.919 -0.5676  0.9381 -0.2698
 3169TIP3    H230923   5.829   6.052   5.000  0.3696 -2.8622 -1.1270
 3170TIP3   OH230924   1.706   1.953  12.954 -1.0881  0.3900  0.8373
 3170TIP3    H130925   1.740   1.865  12.939 -0.8040  0.3067  1.8916
 3170TIP3    H230926   1.765   1.991  13.019 -0.6180  1.7211 -0.3252
 3171TIP3   OH230927   5.093   6.008  13.136 -0.2102 -0.7535 -0.0982
 3171TIP3    H130928   5.071   6.024  13.044 -0.4909  0.1557  0.1120
 3171TIP3    H230929   5.047   6.078  13.184  0.8576 -0.5269  0.6238
 3172TIP3   OH230930   5.929   0.078  11.805  0.3453  0.2582  0.0272
 3172TIP3    H130931   5.868   0.058  11.733  0.7633  0.3356 -0.3549
 3172TIP3    H230932   6.011   0.101  11.761  0.9269 -0.7481  0.5442
 3173TIP3   OH230933   2.963   1.862   0.623  0.3029 -0.3428 -0.5626
 3173TIP3    H130934   3.034   1.867   0.687  0.7939  1.1547 -1.1831
 3173TIP3    H230935   2.916   1.945   0.631 -1.9977 -1.6345  0.4585
 3174TIP3   OH230936   5.092   2.385  14.823 -0.1090 -0.0394 -0.2269
 3174TIP3    H130937   5.121   2.342  14.742 -0.3757  1.4276 -1.1236
 3174TIP3    H230938   5.173   2.398  14.873  0.1398 -0.3166 -0.5530
 3175TIP3   OH230939   0.886   3.998  12.638  0.3087  0.0856  0.1081
 3175TIP3    H130940   0.924   4.065  12.581  0.3892  0.1556  0.2419
 3175TIP3    H230941   0.962   3.956  12.679  0.3085 -0.7432 -0.7010
 3176TIP3   OH230942   1.718   1.770  10.268 -0.3130 -0.8718  0.0838
 3176TIP3    H130943   1.672   1.685  10.267  0.7979 -1.4934  0.3796
 3176TIP3    H230944   1.740   1.786  10.176 -1.4946 -0.3403 -0.1285
 3177TIP3   OH230945   6.789   4.485  12.759 -0.3339 -0.6412  0.0049
 3177TIP3    H130946   6.749   4.432  12.828 -1.3507  0.0215 -0.0503
 3177TIP3    H230947   6.836   4.554  12.805 -1.3906  0.0685  0.0501
 3178TIP3   OH230948   2.105   3.153   1.370 -0.6354 -0.1957 -0.0838
 3178TIP3    H130949   2.078   3.244   1.377 -0.2119 -0.1304  0.8263
 3178TIP3    H230950   2.053   3.107   1.436  0.5708 -0.2682  0.8444
 3179TIP3   OH230951   6.446   3.166  14.369  0.2412 -0.4661  0.5419
 3179TIP3    H130952   6.428   3.084  14.416 -0.3376 -0.6564  0.0080
 3179TIP3    H230953   6.377   3.170  14.303  0.8173 -0.0005 -0.0308
 3180TIP3   OH230954   5.564   4.011  15.682 -0.5579  0.9051 -0.3296
 3180TIP3    H130955   5.622   3.973  15.615 -0.9383  0.1142 -0.2178
 3180TIP3    H230956   5.479   3.970  15.666 -0.1342 -1.1595  2.1188
 3181TIP3   OH230957   0.538   6.610   4.628 -0.0834  0.0969  0.0693
 3181TIP3    H130958   0.554   6.639   4.539 -0.6796 -0.1949 -0.1354
 3181TIP3    H230959   0.489   6.528   4.619  0.1654 -0.1244  0.6577
 3182TIP3   OH230960   1.305   5.075  13.554 -0.2201  0.6568 -0.2666
 3182TIP3    H130961   1.217   5.112  13.546 -0.4252 -0.1508 -2.3736
 3182TIP3    H230962   1.363   5.150  13.564 -1.0675  1.2478  0.2628
 3183TIP3   OH230963   0.169   1.257  16.144 -0.0173 -0.2894 -0.3093
 3183TIP3    H130964   0.202   1.215  16.223 -0.8562 -0.9114 -0.2709
 3183TIP3    H230965   0.077   1.276  16.163 -0.0843  0.0524 -0.9324
 3184TIP3   OH230966   1.464   2.714   0.313 -0.3202 -0.3321 -0.1499
 3184TIP3    H130967   1.482   2.642   0.253 -1.0486 -1.8358  1.3652
 3184TIP3    H230968   1.482   2.678   0.400 -0.0728  1.5267  0.6127
 3185TIP3   OH230969   2.837   4.082  14.321 -0.1526  0.1518 -0.3442
 3185TIP3    H130970   2.830   4.000  14.273  1.5991 -0.3457  0.2042
 3185TIP3    H230971   2.829   4.150  14.254 -2.1473 -0.4071 -0.7334
 3186TIP3   OH230972   0.607   2.946   5.652 -0.3650 -0.1794 -0.6176
 3186TIP3    H130973   0.608   2.862   5.606  1.6191  0.5533 -2.0443
 3186TIP3    H230974   0.669   2.934   5.724 -0.4831 -0.0824 -0.4995
 3187TIP3   OH230975   6.618   5.963   1.710  0.2485  0.2714 -0.0123
 3187TIP3    H130976   6.631   5.884   1.657  1.5637  0.1761  0.4204
 3187TIP3    H230977   6.647   6.035   1.654  1.0763  0.2286  0.3496
 3188TIP3   OH230978   0.446   1.857  10.091 -0.0254  0.1582  0.1281
 3188TIP3    H130979   0.511   1.822  10.151 -1.2907 -0.0883  1.4172
 3188TIP3    H230980   0.474   1.826  10.005  1.9705  0.7312  0.5213
 3189TIP3   OH230981   6.236   2.771  16.646  0.4819 -0.2195 -0.1057
 3189TIP3    H130982   6.242   2.785  16.740 -1.5724 -3.2086  0.6023
 3189TIP3    H230983   6.298   2.701  16.627 -0.3946 -0.8739 -0.6299
 3190TIP3   OH230984   1.062   4.861  10.853 -0.0810  0.0095  0.5331
 3190TIP3    H130985   1.098   4.790  10.800  1.2465  1.4351 -0.5920
 3190TIP3    H230986   1.133   4.926  10.855 -1.1448  1.1695  1.7536
 3191TIP3   OH230987   4.122   4.172   1.452 -0.3739 -0.3130 -0.6069
 3191TIP3    H130988   4.177   4.151   1.526 -0.5768  0.1577 -0.3165
 3191TIP3    H230989   4.112   4.089   1.404  2.3094 -0.0112 -1.8652
 3192TIP3   OH230990   4.950   0.296   3.363  0.0764 -0.8169 -0.3664
 3192TIP3    H130991   4.916   0.229   3.422 -0.1343 -0.6254 -0.2699
 3192TIP3    H230992   5.038   0.315   3.396 -0.8229  0.8802  1.2591
 3193TIP3   OH230993   2.240   5.461   2.851 -0.1045  0.0653 -0.7053
 3193TIP3    H130994   2.201   5.418   2.928 -0.7567  1.2116 -0.3696
 3193TIP3    H230995   2.165   5.487   2.798  0.2213  1.3418 -0.5796
 3194TIP3   OH230996   0.621   0.423   2.624 -0.7896 -0.3489  0.1516
 3194TIP3    H130997   0.621   0.518   2.625 -3.6568 -0.2786  0.7721
 3194TIP3    H230998   0.673   0.398   2.700 -0.9913  0.7331  0.6613
 3195TIP3   OH230999   2.734   0.876  14.273 -0.4060  0.2274 -0.1627
 3195TIP3    H131000   2.699   0.940  14.211  1.0501  2.0387  0.7644
 3195TIP3    H231001   2.744   0.925  14.355 -1.0797 -1.7515  1.1814
 3196TIP3   OH231002   2.183   0.935  14.568 -0.1158  1.1321 -0.1754
 3196TIP3    H131003   2.255   0.871  14.570 -0.8341  0.2649  2.7817
 3196TIP3    H231004   2.117   0.896  14.512  0.5358  0.5720 -0.5671
 3197TIP3   OH231005   0.698   1.132  11.604  0.1078  0.6797 -0.1247
 3197TIP3    H131006   0.744   1.208  11.569  1.1493 -0.2365 -0.8194
 3197TIP3    H231007   0.752   1.057  11.579 -0.9763 -0.3165  0.3797
 3198TIP3   OH231008   2.093   2.254  15.389  0.2383 -0.1006 -0.1390
 3198TIP3    H131009   2.142   2.191  15.441 -0.7227 -0.7975 -0.0558
 3198TIP3    H231010   2.160   2.310  15.349  1.0340 -0.1890  1.0207
 3199TIP3   OH231011   0.175   1.466  12.433  0.3756  0.1408  0.8326
 3199TIP3    H131012   0.183   1.538  12.496  2.9447 -0.7885  1.6846
 3199TIP3    H231013   0.245   1.481  12.370 -0.6629 -0.2813 -0.4680
 3200TIP3   OH231014   5.727   3.063   4.129  0.2356  0.5425  0.0360
 3200TIP3    H131015   5.751   2.971   4.134 -3.9008 -0.7167  1.3345
 3200TIP3    H231016   5.720   3.091   4.220  0.0226  1.6857 -0.3096
 3201TIP3   OH231017   0.034   2.774  14.514 -0.1841  0.3466  0.7791
 3201TIP3    H131018   0.051   2.776  14.608  0.6972 -0.2301  0.6434
 3201TIP3    H231019  -0.060   2.754  14.507 -0.0769 -0.5160  1.5366
 3202TIP3   OH231020   4.541   1.394  12.637 -0.0938 -0.0603 -0.4659
 3202TIP3    H131021   4.487   1.407  12.715 -0.0540  1.3883 -0.6430
 3202TIP3    H231022   4.486   1.423  12.564  0.6228  0.7162 -0.7249
 3203TIP3   OH231023   2.682   3.162  15.057  0.1132  0.3700 -0.2356
 3203TIP3    H131024   2.674   3.205  15.142 -0.2480 -0.1917  0.0179
 3203TIP3    H231025   2.773   3.177  15.031  1.0034 -1.6235  1.4420
 3204TIP3   OH231026   1.379   1.739  16.085 -0.3840 -0.6839 -0.4793
 3204TIP3    H131027   1.311   1.733  16.018 -0.4197  1.8164 -0.7427
 3204TIP3    H231028   1.461   1.736  16.036 -0.3133 -1.7528 -0.3270
 3205TIP3   OH231029   4.125   1.886   0.733 -0.3646  0.3102 -0.1550
 3205TIP3    H131030   4.101   1.796   0.753 -1.1400 -0.0008 -2.1993
 3205TIP3    H231031   4.042   1.934   0.736  0.1603  1.1654  1.7479
 3206TIP3   OH231032   1.689   2.967   6.112 -0.0243  0.4283 -0.1081
 3206TIP3    H131033   1.614   2.935   6.062  0.4540  1.1516 -1.3388
 3206TIP3    H231034   1.731   2.887   6.145 -0.1153 -0.1137 -1.2368
 3207TIP3   OH231035   4.957   1.351   3.324 -0.4078 -1.0384 -0.2965
 3207TIP3    H131036   4.885   1.414   3.334  1.3811  1.1510 -0.4289
 3207TIP3    H231037   4.990   1.367   3.236  0.7891 -1.3828  0.0760
 3208TIP3   OH231038   1.005   0.868   4.428  0.0044 -0.1640  0.1227
 3208TIP3    H131039   0.919   0.907   4.441 -0.5766 -1.8998  1.9757
 3208TIP3    H231040   0.990   0.774   4.430  1.5485 -0.5980 -2.8797
 3209TIP3   OH231041   2.849   5.582   0.895  0.2429 -0.4531  0.6251
 3209TIP3    H131042   2.837   5.492   0.864  0.4148 -0.0182 -0.7795
 3209TIP3    H231043   2.784   5.633   0.847  1.3128  0.4428  0.0732
 3210TIP3   OH231044   5.763   5.908  14.922  0.1710  0.2093  0.3462
 3210TIP3    H131045   5.835   5.939  14.867  1.5956 -1.4351  1.1444
 3210TIP3    H231046   5.699   5.872  14.861  0.4164  0.9290 -0.3465
 3211TIP3   OH231047   1.163   4.741   0.792  0.1259 -0.6404 -0.2671
 3211TIP3    H131048   1.083   4.790   0.812  0.5698 -0.7055  1.8994
 3211TIP3    H231049   1.133   4.664   0.744 -1.0922 -0.5964  0.3973
 3212TIP3   OH231050   0.548   0.894  16.118  0.8337  0.4937 -0.4208
 3212TIP3    H131051   0.563   0.934  16.033  1.9499  1.7730  0.3388
 3212TIP3    H231052   0.532   0.968  16.177  1.5742 -0.2580  0.7576
 3213TIP3   OH231053   6.229   6.271   5.140 -0.0833  0.4366  0.3338
 3213TIP3    H131054   6.300   6.208   5.128  0.0467  0.2201  1.9843
 3213TIP3    H231055   6.158   6.237   5.085  0.6906  0.0357 -0.4500
 3214TIP3   OH231056   3.773   6.486   0.160  0.2931  0.5268  0.5279
 3214TIP3    H131057   3.762   6.477   0.065  0.6736  0.9228  0.4441
 3214TIP3    H231058   3.848   6.545   0.170  0.0830  0.7052  1.0761
 3215TIP3   OH231059   2.137   4.671   4.045  0.0252  0.2561 -0.3853
 3215TIP3    H131060   2.129   4.601   3.981 -1.7936  1.6087 -1.7234
 3215TIP3    H231061   2.199   4.733   4.005  1.3647 -0.3594  0.6425
 3216TIP3   OH231062   3.276   4.894  16.349 -0.6539  0.0502  0.4927
 3216TIP3    H131063   3.298   4.972  16.399 -0.7750  0.6373 -0.3460
 3216TIP3    H231064   3.335   4.896  16.273 -0.1202 -1.0927  0.8467
 3217TIP3   OH231065   2.123   0.051   1.677  0.2676 -0.3095  0.0824
 3217TIP3    H131066   2.205   0.020   1.637  1.2270  0.2905  1.5020
 3217TIP3    H231067   2.143   0.056   1.771 -1.2568  0.3260  0.3960
 3218TIP3   OH231068   4.746   6.554   3.726 -0.0703 -0.6321 -0.4462
 3218TIP3    H131069   4.784   6.467   3.742  1.4242 -0.3245 -1.9937
 3218TIP3    H231070   4.788   6.611   3.790  0.3056 -0.7250 -0.6085
 3219TIP3   OH231071   6.560   4.585  12.944 -1.0100 -0.4614 -0.6963
 3219TIP3    H131072   6.600   4.656  12.894 -2.6240  0.7539 -0.3649
 3219TIP3    H231073   6.475   4.572  12.903 -0.7842 -2.1714 -0.6786
 3220TIP3   OH231074   3.533   3.950  13.106 -0.7943  0.0546 -0.3576
 3220TIP3    H131075   3.624   3.943  13.134 -0.9637  1.4757  0.6306
 3220TIP3    H231076   3.498   4.023  13.156 -3.4597 -2.5603  1.9655
 3221TIP3   OH231077   0.906   2.087   5.094 -0.4167  0.2878 -0.1099
 3221TIP3    H131078   0.975   2.120   5.037 -1.1743  0.2214 -1.0804
 3221TIP3    H231079   0.825   2.123   5.058 -1.0951 -1.2379 -0.1867
 3222TIP3   OH231080   1.664   6.201  16.436  0.1494  0.3860 -0.2104
 3222TIP3    H131081   1.616   6.196  16.518 -0.9756  2.2484 -0.6767
 3222TIP3    H231082   1.619   6.270  16.386  2.9276  1.8445 -0.9323
 3223TIP3   OH231083   4.181   5.583  12.921 -0.3845  0.2234  0.3204
 3223TIP3    H131084   4.235   5.634  12.983 -2.1186  0.0599  2.0689
 3223TIP3    H231085   4.145   5.648  12.861 -0.3413  0.6815  0.7854
 3224TIP3   OH231086   1.053   4.942  12.234 -0.1500 -0.0826 -0.0847
 3224TIP3    H131087   1.120   5.005  12.209 -1.4503  1.2405 -0.3863
 3224TIP3    H231088   1.008   4.921  12.152 -0.6240 -0.3230  0.2320
 3225TIP3   OH231089   3.904   1.857  16.088  0.0435  0.3685 -0.4087
 3225TIP3    H131090   3.888   1.764  16.076  1.2473  0.1967 -0.7726
 3225TIP3    H231091   3.889   1.896  16.001  1.2865  0.2393 -0.6971
 3226TIP3   OH231092   4.386   0.144   1.284 -0.7374  0.7274 -0.6140
 3226TIP3    H131093   4.449   0.075   1.268 -1.3970 -0.0711  0.1346
 3226TIP3    H231094   4.321   0.105   1.343 -0.2274  2.4540  1.2283
 3227TIP3   OH231095   5.211   4.512   5.237  0.1394  0.3297 -0.0124
 3227TIP3    H131096   5.273   4.558   5.293  0.0324  0.5799 -0.1012
 3227TIP3    H231097   5.125   4.535   5.271  0.0906 -2.0813  1.7977
 3228TIP3   OH231098   4.253   1.330  11.703 -0.5108  0.8369 -0.3852
 3228TIP3    H131099   4.336   1.372  11.725 -1.0881  1.8582 -0.1254
 3228TIP3    H231100   4.187   1.397  11.718 -1.2448  0.5779 -2.1578
 3229TIP3   OH231101   4.683   5.888  16.152 -0.7325 -0.0200 -0.5896
 3229TIP3    H131102   4.658   5.801  16.121  1.1492 -0.9657  0.3515
 3229TIP3    H231103   4.762   5.873  16.204  0.8442  2.4784 -2.0152
 3230TIP3   OH231104   4.378   3.624  16.154 -0.2902  0.3061  0.2695
 3230TIP3    H131105   4.323   3.581  16.220 -0.3741 -1.3499 -0.8252
 3230TIP3    H231106   4.449   3.665  16.205  0.2137 -1.7755  1.3568
 3231TIP3   OH231107   6.133   4.967   2.075  0.1585 -0.2089  0.3004
 3231TIP3    H131108   6.215   4.978   2.028 -0.2690 -1.2407 -0.7369
 3231TIP3    H231109   6.155   4.912   2.150  0.6691  0.6816  0.8170
 3232TIP3   OH231110   2.459   5.658   5.609 -0.5380 -0.2228 -0.3138
 3232TIP3    H131111   2.495   5.692   5.691 -2.5018  3.3090 -0.6873
 3232TIP3    H231112   2.532   5.664   5.546  0.3040 -0.6645  0.5953
 3233TIP3   OH231113   4.349   6.634  15.365 -0.5146  0.0260 -0.1636
 3233TIP3    H131114   4.356   6.565  15.431  1.6514 -2.1037 -2.4462
 3233TIP3    H231115   4.383   6.712  15.408  0.5087 -1.2094  1.3555
 3234TIP3   OH231116   2.852   1.634  13.447 -0.0410  0.1795 -0.4029
 3234TIP3    H131117   2.868   1.542  13.426  0.6322  0.3599 -0.7201
 3234TIP3    H231118   2.816   1.671  13.366 -0.3743  0.1779 -0.2548
 3235TIP3   OH231119   2.341   3.028   0.948  0.0199 -0.4365  0.6397
 3235TIP3    H131120   2.394   3.100   0.982 -0.4508  0.4435 -0.4241
 3235TIP3    H231121   2.403   2.957   0.933  0.5271 -0.1886  1.5100
 3236TIP3   OH231122   4.239   6.510  11.967 -0.1839  1.0803 -0.2864
 3236TIP3    H131123   4.304   6.457  12.013 -1.6479 -0.1094  0.5124
 3236TIP3    H231124   4.267   6.600  11.981  0.5437  0.6537  1.2107
 3237TIP3   OH231125   4.906   6.154   0.825  0.6444  0.1174  0.0868
 3237TIP3    H131126   4.880   6.063   0.812  0.0555  0.2161  0.5278
 3237TIP3    H231127   4.959   6.175   0.748 -1.1420  0.1013 -1.2219
 3238TIP3   OH231128   6.554   5.420  13.150  0.3660 -0.3518  0.3181
 3238TIP3    H131129   6.644   5.410  13.182  1.3991  0.5769 -2.0589
 3238TIP3    H231130   6.500   5.413  13.228  2.6752  1.9005  2.2998
 3239TIP3   OH231131   1.766   1.466   4.729  0.1958 -0.3448 -0.5294
 3239TIP3    H131132   1.830   1.505   4.668 -0.7917 -0.7890 -1.8886
 3239TIP3    H231133   1.744   1.382   4.690 -1.1346 -0.2488 -0.0209
 3240TIP3   OH231134   5.363   4.124  10.399  0.1137  0.1208  0.5684
 3240TIP3    H131135   5.293   4.154  10.342  0.6434  0.0222 -0.1409
 3240TIP3    H231136   5.433   4.189  10.388 -0.0954  0.5810  1.7615
 3241TIP3   OH231137   3.062   6.508  11.246  0.3333  0.1554 -0.1862
 3241TIP3    H131138   2.991   6.572  11.256  0.6129  0.3867  0.3682
 3241TIP3    H231139   3.036   6.455  11.170 -0.3741  0.3110 -0.0625
 3242TIP3   OH231140   2.731   6.533  16.956  0.3097 -0.3718  0.3448
 3242TIP3    H131141   2.735   6.537  17.052  1.3832 -2.5758  0.4436
 3242TIP3    H231142   2.657   6.475  16.937  2.3526 -3.0758  0.0378
 3243TIP3   OH231143   1.865   6.557   1.258  0.4553  0.6518  0.3894
 3243TIP3    H131144   1.881   6.577   1.166  0.1086  0.2030  0.2280
 3243TIP3    H231145   1.929   6.609   1.306  0.4451  1.1075 -0.0921
 3244TIP3   OH231146   1.793   6.595   3.258 -0.4722  0.5935  0.2018
 3244TIP3    H131147   1.759   6.538   3.189  1.1219 -0.6321  0.3952
 3244TIP3    H231148   1.880   6.621   3.228 -0.2846  1.1226  1.1582
 3245TIP3   OH231149   6.368   2.975  13.811  0.2961 -0.5415 -0.4120
 3245TIP3    H131150   6.435   2.909  13.796 -0.6469 -1.4224 -0.8967
 3245TIP3    H231151   6.393   3.048  13.754  2.1407  0.1603  1.2051
 3246TIP3   OH231152   6.693   0.621  15.092  0.3267 -0.0088  0.2961
 3246TIP3    H131153   6.646   0.622  15.009  0.2344 -1.4175  0.2994
 3246TIP3    H231154   6.630   0.653  15.156 -1.0278 -2.6924  0.4493
 3247TIP3   OH231155   1.363   5.090  15.073 -0.1432  0.7997 -0.6452
 3247TIP3    H131156   1.311   5.043  15.139 -0.1039 -0.7747 -1.6856
 3247TIP3    H231157   1.413   5.155  15.124 -0.3537 -0.1464  0.8319
 3248TIP3   OH231158   5.925   4.366   3.155 -0.2201  0.0137  0.1881
 3248TIP3    H131159   5.838   4.327   3.146 -0.7444  0.8943  1.1264
 3248TIP3    H231160   5.934   4.423   3.079 -0.4804 -0.0408  0.1150
 3249TIP3   OH231161   1.287   0.324   6.409 -0.2519  0.0776  0.0617
 3249TIP3    H131162   1.367   0.286   6.373 -0.1153  0.0877  0.3570
 3249TIP3    H231163   1.268   0.398   6.351  2.0535  2.4654  2.0703
 3250TIP3   OH231164   1.880   6.387  14.668  0.6283  0.6418 -0.5263
 3250TIP3    H131165   1.946   6.374  14.600  0.4174  1.1800 -0.8476
 3250TIP3    H231166   1.806   6.334  14.639  1.1393 -0.4592  0.1609
 3251TIP3   OH231167   4.634   4.940   0.637  0.4913 -0.3201 -0.4264
 3251TIP3    H131168   4.548   4.981   0.635  0.7528  0.3568  0.9756
 3251TIP3    H231169   4.681   4.979   0.564 -0.5188 -1.0415 -1.5031
 3252TIP3   OH231170   6.217   6.318  13.207  0.3261  0.1211  0.4113
 3252TIP3    H131171   6.231   6.295  13.299 -0.3005  0.0867  0.5023
 3252TIP3    H231172   6.139   6.374  13.207  0.0579 -0.2390 -0.1454
 3253TIP3   OH231173   5.259   3.426   4.976  0.2431 -0.4318  0.1381
 3253TIP3    H131174   5.233   3.335   4.968  0.5443 -0.4707 -0.4178
 3253TIP3    H231175   5.227   3.468   4.896 -0.7040  0.1547  0.8009
 3254TIP3   OH231176   3.187   0.928   5.696  0.1647  0.4731  0.8204
 3254TIP3    H131177   3.140   0.897   5.774 -0.9329  2.3935  0.9830
 3254TIP3    H231178   3.279   0.932   5.724  0.0111 -0.3522  1.5018
 3255TIP3   OH231179   1.941   4.323   5.229 -0.0474 -0.1333 -0.7436
 3255TIP3    H131180   1.875   4.274   5.179 -2.7207  3.7492 -1.4587
 3255TIP3    H231181   2.009   4.345   5.166  3.0704 -5.2297  0.2478
 3256TIP3   OH231182   1.723   4.532   5.271 -0.0403 -0.0703 -0.0081
 3256TIP3    H131183   1.800   4.588   5.287 -1.3192  1.8488 -0.1982
 3256TIP3    H231184   1.735   4.500   5.182 -0.0619  1.2585 -0.5083
 3257TIP3   OH231185   1.117   3.366  14.886  0.1407 -0.1823 -0.1219
 3257TIP3    H131186   1.179   3.427  14.847  0.2749 -0.5399 -0.4716
 3257TIP3    H231187   1.094   3.306  14.815 -0.9552  0.2186 -0.1261
 3258TIP3   OH231188   3.834   2.448  12.274  0.1160 -0.4277  0.1069
 3258TIP3    H131189   3.855   2.500  12.352 -1.1076  0.7979 -0.3219
 3258TIP3    H231190   3.803   2.513  12.211 -1.0856 -1.6530 -0.6064
 3259TIP3   OH231191   6.285   3.180  15.677 -0.5517  0.2601  0.8980
 3259TIP3    H131192   6.239   3.253  15.634 -0.3661  0.0866  0.4015
 3259TIP3    H231193   6.219   3.111  15.683 -0.2312 -0.1712 -0.2770
 3260TIP3   OH231194   1.025   4.170   0.455  0.0534 -0.0041  0.1250
 3260TIP3    H131195   1.081   4.239   0.420  1.5419 -1.1683  0.0855
 3260TIP3    H231196   1.008   4.196   0.545  0.7770  0.3293  0.1757
 3261TIP3   OH231197   2.684   1.681  16.675  0.5327  0.1441 -0.6435
 3261TIP3    H131198   2.619   1.746  16.703  0.0289 -0.7702  0.3687
 3261TIP3    H231199   2.754   1.733  16.635  1.5744  1.6545  2.7659
 3262TIP3   OH231200   1.842   1.171  16.499 -0.1254 -0.7105 -0.1576
 3262TIP3    H131201   1.902   1.170  16.424  0.0705  0.0164 -0.0197
 3262TIP3    H231202   1.759   1.203  16.464  0.9575  3.4950  0.5860
 3263TIP3   OH231203   1.040   1.152   0.583 -0.4194 -0.2167 -0.6453
 3263TIP3    H131204   1.135   1.147   0.589 -0.3457 -0.0144 -1.5425
 3263TIP3    H231205   1.013   1.062   0.565 -0.3783 -0.2272 -0.6538
 3264TIP3   OH231206   3.022   6.134   4.884 -0.1573 -0.3092  0.0548
 3264TIP3    H131207   3.021   6.205   4.820  0.8253 -0.5006 -0.1997
 3264TIP3    H231208   3.114   6.128   4.911 -0.4306 -0.7179  0.9360
 3265TIP3   OH231209   2.033   2.217   4.819  0.2486  0.0719  0.1006
 3265TIP3    H131210   2.059   2.127   4.838  1.7912  0.1495 -1.3496
 3265TIP3    H231211   1.959   2.234   4.877  1.9448 -1.0293  2.7831
 3266TIP3   OH231212   2.524   0.165  13.196 -0.0435  0.5273  0.2448
 3266TIP3    H131213   2.595   0.228  13.189  0.1369  0.2536 -0.5547
 3266TIP3    H231214   2.567   0.081  13.213 -0.0787  0.1987 -1.1224
 3267TIP3   OH231215   5.444   1.622   5.682 -0.3703 -0.3242 -0.3049
 3267TIP3    H131216   5.443   1.613   5.777  0.5694 -0.1808 -0.2687
 3267TIP3    H231217   5.469   1.714   5.667 -0.9872 -0.2134 -0.6870
 3268TIP3   OH231218   4.799   6.513  12.740  0.4900  0.5876  0.3649
 3268TIP3    H131219   4.795   6.574  12.813 -1.8592 -0.9871  1.6890
 3268TIP3    H231220   4.789   6.427  12.780 -1.9364 -0.2754 -1.8559
 3269TIP3   OH231221   1.368   2.559  12.222  0.1814  0.5514 -0.8102
 3269TIP3    H131222   1.430   2.632  12.226 -1.1336  1.6684  0.9859
 3269TIP3    H231223   1.397   2.499  12.291  0.7796 -0.2489 -1.7378
 3270TIP3   OH231224   1.236   3.561   0.883  0.1414  0.1612  0.7974
 3270TIP3    H131225   1.170   3.594   0.822 -0.7171  0.4206  1.8470
 3270TIP3    H231226   1.268   3.638   0.929  1.1984  0.0385  0.3169
 3271TIP3   OH231227   2.777   4.446  13.871 -0.1622  0.7069  0.0684
 3271TIP3    H131228   2.693   4.408  13.895  0.9735 -1.6950  0.5538
 3271TIP3    H231229   2.809   4.390  13.800  1.6623  0.6153  0.9135
 3272TIP3   OH231230   4.852   4.071   2.874 -0.1524  0.2112 -0.6869
 3272TIP3    H131231   4.800   4.052   2.952 -1.2295  0.1972 -1.3889
 3272TIP3    H231232   4.801   4.137   2.827  0.8481  0.7684 -1.0203
 3273TIP3   OH231233   5.820   6.345  11.536 -0.0590  0.2698  0.6315
 3273TIP3    H131234   5.838   6.283  11.607  0.0679 -0.4371  0.0094
 3273TIP3    H231235   5.728   6.331  11.515  0.2536 -0.5741 -0.2839
 3274TIP3   OH231236   0.468   6.192  11.042 -0.6417 -0.7407  0.2047
 3274TIP3    H131237   0.490   6.229  11.127 -0.0938 -1.5181  0.4103
 3274TIP3    H231238   0.417   6.113  11.062 -1.3275 -0.4142 -0.2140
 3275TIP3   OH231239   0.138   2.942   5.241 -0.1917 -0.0436  0.1790
 3275TIP3    H131240   0.195   2.912   5.171 -0.8313  0.7998 -0.7384
 3275TIP3    H231241   0.195   2.989   5.301  0.1897  0.2009 -0.3718
 3276TIP3   OH231242   5.028   0.478   2.235 -0.3666 -0.0501 -0.1145
 3276TIP3    H131243   5.004   0.464   2.143 -0.2608  1.5698 -0.4256
 3276TIP3    H231244   5.122   0.493   2.233  0.0738 -2.3357  0.5984
 3277TIP3   OH231245   1.625   0.023  16.425  0.1560 -0.1032  0.1287
 3277TIP3    H131246   1.591   0.077  16.354  1.6910  0.0548 -0.5297
 3277TIP3    H231247   1.587   0.061  16.505  0.7052  1.5778 -0.3700
 3278TIP3   OH231248   5.417   6.353   4.622 -0.1087  0.5756  0.3727
 3278TIP3    H131249   5.331   6.373   4.658 -0.4367 -0.5984  0.2761
 3278TIP3    H231250   5.418   6.394   4.536 -0.2641  1.2647  0.6908
 3279TIP3   OH231251   2.447   3.570  11.358  0.4058 -0.1791 -0.2048
 3279TIP3    H131252   2.539   3.570  11.331  0.7341  1.0697  0.8229
 3279TIP3    H231253   2.449   3.603  11.448 -1.1291  0.8440 -0.5157
 3280TIP3   OH231254   0.512   4.694  11.517  0.1738 -0.0954 -0.2531
 3280TIP3    H131255   0.463   4.757  11.462  0.7215  0.7768  0.2314
 3280TIP3    H231256   0.597   4.735  11.529  0.7434 -1.2104 -0.3773
 3281TIP3   OH231257   3.263   6.070   3.203  0.0183 -0.2213 -0.0243
 3281TIP3    H131258   3.194   6.092   3.265  0.6776  0.7199  0.4041
 3281TIP3    H231259   3.258   6.137   3.135  1.1407  0.4886  0.5505
 3282TIP3   OH231260   0.029   0.716   1.014  0.1297  0.4756  0.1060
 3282TIP3    H131261   0.057   0.796   1.059  1.5244  0.4559 -0.7036
 3282TIP3    H231262   0.095   0.651   1.036  0.6197  0.3572 -1.6248
 3283TIP3   OH231263   5.826   2.226   1.283 -0.0989 -0.2511 -0.3861
 3283TIP3    H131264   5.881   2.303   1.270  0.1115 -0.1585  0.9048
 3283TIP3    H231265   5.787   2.239   1.370 -1.0357 -1.0021 -0.6795
 3284TIP3   OH231266   2.169   4.358   5.729 -0.6371  0.4666  0.0211
 3284TIP3    H131267   2.235   4.426   5.741 -2.7828  2.5043  1.0064
 3284TIP3    H231268   2.134   4.374   5.641  0.5128 -0.9916 -0.7454
 3285TIP3   OH231269   1.422   0.650   5.521 -0.0798 -0.7274 -0.1262
 3285TIP3    H131270   1.338   0.666   5.478  0.8130  0.9861 -1.3455
 3285TIP3    H231271   1.430   0.554   5.522 -0.7754 -0.8930 -2.5815
 3286TIP3   OH231272   4.373   2.391  16.814  0.8486 -0.7670 -0.7440
 3286TIP3    H131273   4.466   2.393  16.791  0.4387 -0.9158 -2.5860
 3286TIP3    H231274   4.331   2.346  16.741 -0.7686 -0.0332 -0.3219
 3287TIP3   OH231275   3.626   2.261  12.425 -0.0922  0.5730  0.1884
 3287TIP3    H131276   3.552   2.307  12.384 -0.3890 -0.5348 -0.5551
 3287TIP3    H231277   3.698   2.270  12.363  0.6663  2.2531  1.2176
 3288TIP3   OH231278   2.476   3.103  15.493  0.0577 -0.4605 -0.1109
 3288TIP3    H131279   2.477   3.196  15.469 -0.5141 -0.3307  0.3593
 3288TIP3    H231280   2.387   3.074  15.475 -0.3438 -0.4091  1.6505
 3289TIP3   OH231281   4.255   0.576  15.282 -0.2535  0.0435 -0.1786
 3289TIP3    H131282   4.336   0.540  15.246 -1.3490 -1.7823 -0.9531
 3289TIP3    H231283   4.214   0.503  15.329 -1.3093  0.9976  0.4467
 3290TIP3   OH231284   4.938   2.802  12.594  0.7152 -0.5642  0.1402
 3290TIP3    H131285   5.024   2.769  12.617  1.4737 -0.3504 -2.1103
 3290TIP3    H231286   4.947   2.898  12.597  0.5867 -0.5394 -0.1995
 3291TIP3   OH231287   2.648   2.281  16.107  0.1533  0.0658  0.0536
 3291TIP3    H131288   2.677   2.229  16.182 -0.4521 -0.1697  0.1335
 3291TIP3    H231289   2.600   2.354  16.146  2.1961  1.5217  0.0178
 3292TIP3   OH231290   4.706   4.996  12.550 -0.0946 -0.2623  0.1498
 3292TIP3    H131291   4.636   4.945  12.589 -1.6522 -1.5761 -3.9006
 3292TIP3    H231292   4.669   5.083  12.537  0.6283  0.3578  1.9088
 3293TIP3   OH231293   6.641   0.926  10.461 -0.3672 -0.3438  0.2009
 3293TIP3    H131294   6.687   0.872  10.526 -0.7525 -0.8730  0.0438
 3293TIP3    H231295   6.550   0.895  10.465 -1.1194  1.7735  1.6827
 3294TIP3   OH231296   4.801   2.315   2.160  0.3465  0.1852  0.3668
 3294TIP3    H131297   4.791   2.332   2.253 -0.0957  2.5578 -0.0217
 3294TIP3    H231298   4.876   2.368   2.134  0.1262 -0.0071 -0.7106
 3295TIP3   OH231299   6.145   6.167  11.513 -0.3955 -0.5988  0.0144
 3295TIP3    H131300   6.126   6.117  11.433 -1.2795 -0.1428 -0.0773
 3295TIP3    H231301   6.067   6.222  11.525  0.8433  1.2830 -0.2871
 3296TIP3   OH231302   4.269   4.886  15.965 -0.7032 -0.1632 -0.3289
 3296TIP3    H131303   4.355   4.851  15.941 -0.0967  1.2039 -0.2583
 3296TIP3    H231304   4.255   4.855  16.054 -0.0063  0.0921 -0.1241
 3297TIP3   OH231305   4.849   5.857   5.707  0.2987 -0.2371  0.1373
 3297TIP3    H131306   4.790   5.812   5.647 -1.5909  1.9082  0.2510
 3297TIP3    H231307   4.932   5.866   5.659 -1.1464  1.4153 -2.2230
 3298TIP3   OH231308   5.853   2.792  12.653 -0.1995 -0.1751  0.1170
 3298TIP3    H131309   5.782   2.796  12.718  1.0376 -0.5164  1.5319
 3298TIP3    H231310   5.810   2.761  12.574 -1.7314  0.0677  0.8074
 3299TIP3   OH231311   1.825   2.732  13.615 -0.4957 -0.3827  0.3119
 3299TIP3    H131312   1.820   2.643  13.580 -0.0106 -0.3541  0.1705
 3299TIP3    H231313   1.856   2.721  13.705  1.1758 -0.2522 -0.2214
 3300TIP3   OH231314   2.943   4.443  12.989  0.5209  0.2482 -0.4058
 3300TIP3    H131315   2.850   4.418  12.988  0.7576 -0.7028 -1.2933
 3300TIP3    H231316   2.959   4.473  13.078 -0.8220  1.1685 -0.4391
 3301TIP3   OH231317   0.729   3.197   2.361  0.2325  0.3768 -0.4216
 3301TIP3    H131318   0.693   3.273   2.406 -1.0913 -0.7017  0.4233
 3301TIP3    H231319   0.682   3.193   2.278  0.2081  0.3895 -0.4082
 3302TIP3   OH231320   5.332   0.889   5.920 -0.5416  0.1956 -0.0898
 3302TIP3    H131321   5.387   0.919   5.848 -1.0599  0.4013 -0.4064
 3302TIP3    H231322   5.282   0.816   5.882  0.3749 -0.7786  0.5385
 3303TIP3   OH231323   6.466   4.714  12.681 -0.1844 -0.0396 -0.5255
 3303TIP3    H131324   6.378   4.707  12.643  1.3116 -0.3199 -4.2955
 3303TIP3    H231325   6.522   4.663  12.622  2.4714 -0.5132  2.1553
 3304TIP3   OH231326   6.038   1.472  12.375 -0.0552  0.1910 -0.3622
 3304TIP3    H131327   6.095   1.444  12.303  0.1067 -2.5239  0.7295
 3304TIP3    H231328   6.097   1.485  12.449 -0.7457 -3.7294  1.0977
 3305TIP3   OH231329   4.786   5.249   3.348  0.5653 -0.4642 -0.2194
 3305TIP3    H131330   4.780   5.160   3.314 -1.1217 -0.1794 -0.7831
 3305TIP3    H231331   4.780   5.239   3.443 -1.5000 -0.8793 -0.3490
 3306TIP3   OH231332   6.005   0.805   1.314  0.2373 -0.3913  0.2332
 3306TIP3    H131333   5.991   0.710   1.312 -0.1681 -0.3347  0.3620
 3306TIP3    H231334   5.928   0.840   1.358  0.0427  0.0637 -0.4628
 3307TIP3   OH231335   3.694   3.611   5.516  0.5757 -0.6254  0.2583
 3307TIP3    H131336   3.636   3.680   5.550  1.5626  0.8621 -0.9443
 3307TIP3    H231337   3.778   3.628   5.558  1.1608 -0.2565 -0.9963
 3308TIP3   OH231338   5.988   6.622  11.091  0.8717  0.0648 -0.0355
 3308TIP3    H131339   5.926   6.667  11.033  0.1336 -0.9939 -0.0989
 3308TIP3    H231340   6.062   6.601  11.035  0.3447 -0.5756 -0.5199
 3309TIP3   OH231341   1.311   4.285   4.361  0.1392 -0.5573  0.4094
 3309TIP3    H131342   1.250   4.298   4.434  1.0902 -1.4292  1.3884
 3309TIP3    H231343   1.397   4.281   4.402  0.7884 -0.1458 -0.8755
 3310TIP3   OH231344   1.512   1.485   0.477 -0.5136 -0.6565 -0.5759
 3310TIP3    H131345   1.552   1.445   0.555  0.4086  1.7721  0.2966
 3310TIP3    H231346   1.546   1.433   0.404  1.4844 -0.8766  0.4171
 3311TIP3   OH231347   0.534   4.743   5.629  0.5545  0.3719  0.1048
 3311TIP3    H131348   0.581   4.723   5.548  2.4729 -1.8055  1.6155
 3311TIP3    H231349   0.575   4.823   5.661 -0.4369  1.4358 -1.1520
 3312TIP3   OH231350   5.036   3.678   5.103 -0.0872 -0.1218  0.0367
 3312TIP3    H131351   5.001   3.588   5.100  0.5237 -0.3332 -1.1099
 3312TIP3    H231352   4.994   3.722   5.029  0.3876  0.2472 -0.0119
 3313TIP3   OH231353   5.120   3.125  12.452  0.4757 -0.5382 -0.0027
 3313TIP3    H131354   5.150   3.197  12.397  1.6196  0.0492  1.3199
 3313TIP3    H231355   5.199   3.075  12.471  0.3194 -0.2040  1.7955
 3314TIP3   OH231356   1.029   1.977   6.111 -0.1281  0.3376  0.1372
 3314TIP3    H131357   1.026   1.901   6.169  0.7512 -1.3359 -1.8772
 3314TIP3    H231358   1.071   2.045   6.163  3.5722 -1.9957  0.6297
 3315TIP3   OH231359   0.930   3.712   0.320 -0.0520 -0.3303 -0.3987
 3315TIP3    H131360   0.851   3.658   0.321 -0.4129  0.1995 -0.3045
 3315TIP3    H231361   0.930   3.757   0.404 -0.0940  0.3147 -0.7421
 3316TIP3   OH231362   0.582   1.492   5.262  0.1727 -0.2157 -0.0475
 3316TIP3    H131363   0.531   1.411   5.269 -0.9407  0.2668 -1.7695
 3316TIP3    H231364   0.645   1.487   5.334 -2.1825 -0.9244  2.1207
 3317TIP3   OH231365   1.125   4.928   4.329  0.1789  0.4847  0.3427
 3317TIP3    H131366   1.135   4.850   4.274 -0.2167  0.0891  0.8272
 3317TIP3    H231367   1.068   4.900   4.401  0.0387  1.2193  0.5256
 3318TIP3   OH231368   4.904   6.135   3.291 -0.5270 -0.1398  0.4778
 3318TIP3    H131369   4.921   6.224   3.258 -3.3922  0.4261  0.1764
 3318TIP3    H231370   4.942   6.077   3.225 -0.3258  0.9130 -0.3714
 3319TIP3   OH231371   4.456   2.500   4.731  0.3193  0.0215  0.2836
 3319TIP3    H131372   4.452   2.406   4.749  4.4300 -0.0264  2.0827
 3319TIP3    H231373   4.517   2.507   4.657  0.0601  1.2675  0.1717
 3320TIP3   OH231374   0.620   3.547   1.233 -0.5219 -0.4119 -0.1733
 3320TIP3    H131375   0.700   3.561   1.184 -0.4979  2.0778  0.4269
 3320TIP3    H231376   0.558   3.510   1.170  1.0173 -2.3037 -0.6534
 3321TIP3   OH231377   4.752   1.326  16.148  0.3491  0.0038  0.0223
 3321TIP3    H131378   4.822   1.312  16.084 -0.7055 -0.0569 -1.1686
 3321TIP3    H231379   4.677   1.278  16.112 -1.6779  3.7082 -1.1864
 3322TIP3   OH231380   6.722   5.434   3.799  0.1968  0.1245 -0.0277
 3322TIP3    H131381   6.752   5.362   3.742  0.0501 -0.9311  1.1812
 3322TIP3    H231382   6.686   5.499   3.739  0.1153 -0.9254 -1.1517
 3323TIP3   OH231383   4.459   2.913  14.095  0.2971  0.1223 -0.3002
 3323TIP3    H131384   4.460   2.964  14.014  0.5327  0.9292  0.2074
 3323TIP3    H231385   4.510   2.965  14.157 -0.6325 -0.0549  0.6345
 3324TIP3   OH231386   3.047   6.421  15.310 -0.4547 -0.1201 -0.0117
 3324TIP3    H131387   3.007   6.478  15.245  1.7816 -0.9605 -2.3060
 3324TIP3    H231388   2.992   6.343  15.311 -0.3639 -0.2240 -1.1977
 3325TIP3   OH231389   0.656   5.723  12.762  0.2853  0.0543 -0.5405
 3325TIP3    H131390   0.632   5.774  12.684 -0.9073 -0.7689 -0.7394
 3325TIP3    H231391   0.616   5.770  12.835  0.3319  0.1379 -0.5687
 3326TIP3   OH231392   2.249   3.456  12.238 -0.9654  0.2356 -0.2377
 3326TIP3    H131393   2.173   3.398  12.240 -1.8218  1.3251  1.3787
 3326TIP3    H231394   2.318   3.406  12.281 -1.1076 -0.3300 -0.6627
 3327TIP3   OH231395   6.813   0.886  14.733 -0.2580 -0.1546 -0.3472
 3327TIP3    H131396   6.829   0.861  14.824 -1.6477  0.8124  0.2163
 3327TIP3    H231397   6.889   0.854  14.685  0.6559 -0.4374  1.2041
 3328TIP3   OH231398   4.093   5.786  10.609 -0.1962  0.2006 -0.4022
 3328TIP3    H131399   4.009   5.821  10.638 -1.8118 -1.4215 -2.7311
 3328TIP3    H231400   4.157   5.854  10.631 -2.2288  1.8664  0.6868
 3329TIP3   OH231401   0.868   1.801   4.971  0.3068  0.8578 -0.3244
 3329TIP3    H131402   0.875   1.882   5.022 -1.6414  1.1308 -0.3953
 3329TIP3    H231403   0.789   1.758   5.006  0.8044 -0.5869 -0.8930
 3330TIP3   OH231404   4.542   1.841   1.747  0.3142  0.1391 -0.8028
 3330TIP3    H131405   4.556   1.755   1.707 -0.6211 -0.6523  0.5211
 3330TIP3    H231406   4.467   1.829   1.805  3.1813  0.4686  3.3766
 3331TIP3   OH231407   5.487   0.241  16.304 -0.1359  0.0486  0.3750
 3331TIP3    H131408   5.544   0.275  16.236  0.2320 -2.7212 -0.8355
 3331TIP3    H231409   5.539   0.246  16.384  0.4233  0.8608 -0.0198
 3332TIP3   OH231410   3.351   5.241   3.462  0.3802  0.0780  0.1688
 3332TIP3    H131411   3.393   5.326   3.475  0.1692  0.3944 -1.1177
 3332TIP3    H231412   3.379   5.213   3.374  0.1037 -0.9828  0.4011
 3333TIP3   OH231413   0.638   4.406  11.992 -0.1690 -0.3394 -0.4780
 3333TIP3    H131414   0.686   4.413  11.910 -1.2285 -2.2877 -1.3404
 3333TIP3    H231415   0.706   4.401  12.059  0.7484 -0.2105 -1.3761
 3334TIP3   OH231416   3.016   3.296   5.904 -0.2524  0.0319  0.3188
 3334TIP3    H131417   2.981   3.384   5.886  0.4630  0.2284 -0.1765
 3334TIP3    H231418   3.088   3.311   5.966  0.7359 -0.0344 -0.7781
 3335TIP3   OH231419   1.789   1.864   4.764 -0.0178 -0.2296  0.5668
 3335TIP3    H131420   1.747   1.941   4.803 -1.5715 -0.7593 -0.0153
 3335TIP3    H231421   1.851   1.834   4.832  0.6853  1.5535  0.7689
 3336TIP3   OH231422   5.795   3.477  17.026 -0.1984  0.2293 -0.5811
 3336TIP3    H131423   5.699   3.480  17.026 -0.3983 -2.7245 -0.8059
 3336TIP3    H231424   5.816   3.401  16.971  2.1512 -0.6084  1.2900
 3337TIP3   OH231425   5.941   1.408   3.779  0.3744 -0.1513 -0.0680
 3337TIP3    H131426   5.960   1.438   3.868 -0.1015 -0.0454 -0.0005
 3337TIP3    H231427   5.854   1.443   3.760  0.0052 -1.1014 -0.1642
 3338TIP3   OH231428   5.911   4.099  13.158 -0.1333  0.1529  0.5346
 3338TIP3    H131429   5.920   4.050  13.076  1.1349  0.4509  0.4785
 3338TIP3    H231430   5.968   4.053  13.219  2.4247  2.4273  0.0537
 3339TIP3   OH231431   2.025   5.975   3.229 -0.2412 -0.3280 -0.2407
 3339TIP3    H131432   2.059   6.054   3.188 -2.6631 -0.1767 -2.1730
 3339TIP3    H231433   2.079   5.904   3.192  0.9006  0.2415  0.2855
 3340TIP3   OH231434   6.624   3.380   6.164  0.1773  0.4065 -0.3141
 3340TIP3    H131435   6.530   3.376   6.180  0.4450 -0.2889  1.3328
 3340TIP3    H231436   6.657   3.295   6.194  1.4084  0.9244 -0.1360
 3341TIP3   OH231437   5.318   2.254   1.597  0.1516 -0.1916 -0.2459
 3341TIP3    H131438   5.310   2.173   1.648  0.7242  0.2088  0.4876
 3341TIP3    H231439   5.232   2.265   1.555  0.1727 -1.3598 -0.6341
 3342TIP3   OH231440   0.521   6.458  15.585  0.5624  0.0864 -0.4057
 3342TIP3    H131441   0.476   6.383  15.623  1.4629 -1.6101 -2.4547
 3342TIP3    H231442   0.484   6.534  15.630 -0.1695 -1.5554  1.9946
 3343TIP3   OH231443   1.649   2.506  16.192  0.0401 -0.4278 -0.0070
 3343TIP3    H131444   1.561   2.516  16.230 -0.3140 -0.8105 -0.7025
 3343TIP3    H231445   1.669   2.592  16.155  0.1214 -0.2330  0.4857
 3344TIP3   OH231446   6.162   2.062   4.716  0.1606 -0.7381 -0.4356
 3344TIP3    H131447   6.089   2.003   4.698 -0.2437 -0.1156 -0.8482
 3344TIP3    H231448   6.124   2.133   4.767  0.8636 -1.3655  1.0590
 3345TIP3   OH231449   6.653   1.226  12.771  0.0831 -0.0186  0.4616
 3345TIP3    H131450   6.687   1.156  12.716  1.5262 -0.6829  2.1212
 3345TIP3    H231451   6.558   1.213  12.772  0.3198 -1.8919  0.6348
 3346TIP3   OH231452   3.535   4.071  11.575 -0.5689  0.2950  0.3054
 3346TIP3    H131453   3.622   4.073  11.616  1.0216 -1.6691 -2.5958
 3346TIP3    H231454   3.525   3.980  11.544 -3.4768  0.5844  0.0818
 3347TIP3   OH231455   2.557   0.094  15.268  0.0593  0.0052 -0.2076
 3347TIP3    H131456   2.575   0.032  15.197  2.2504  0.5345 -0.1957
 3347TIP3    H231457   2.502   0.046  15.329 -1.1497 -0.7561 -1.8209
 3348TIP3   OH231458   4.022   4.456   3.597  0.4914  0.5200  0.0653
 3348TIP3    H131459   3.972   4.414   3.667  0.3723 -0.2120 -0.4442
 3348TIP3    H231460   3.959   4.465   3.526  0.3925  2.0009  0.3213
 3349TIP3   OH231461   2.504   0.134   4.686  0.6342  0.1076 -0.6541
 3349TIP3    H131462   2.526   0.055   4.638 -0.7739  0.4491 -1.9194
 3349TIP3    H231463   2.494   0.202   4.619  1.3623  1.2725  0.3630
 3350TIP3   OH231464   0.722   4.831   3.339  0.4477  0.5077  0.2337
 3350TIP3    H131465   0.649   4.893   3.345  0.7538  1.0569 -1.3874
 3350TIP3    H231466   0.800   4.883   3.354  0.7273  0.5963 -1.4069
 3351TIP3   OH231467   0.743   1.004   3.409  0.3814 -0.4965  0.2152
 3351TIP3    H131468   0.774   0.918   3.380  0.9664  0.1237 -1.0968
 3351TIP3    H231469   0.648   0.996   3.410  0.4454 -1.3212  0.6571
 3352TIP3   OH231470   0.445   6.427   3.867  0.3588  0.2108 -0.3497
 3352TIP3    H131471   0.483   6.506   3.827 -1.4838  1.6603  0.6095
 3352TIP3    H231472   0.500   6.410   3.944  0.5472  0.8140 -0.3465
 3353TIP3   OH231473   3.464   2.505  14.545 -0.0028  0.2488 -0.1463
 3353TIP3    H131474   3.394   2.535  14.487  1.8186  2.4780 -1.3234
 3353TIP3    H231475   3.473   2.575  14.610  1.7464  0.5053 -0.6156
 3354TIP3   OH231476   6.357   3.405   6.212 -0.5692  0.2174 -0.5968
 3354TIP3    H131477   6.305   3.434   6.286 -2.5597  0.5943 -2.0673
 3354TIP3    H231478   6.341   3.311   6.206  1.8288 -0.3997  1.0589
 3355TIP3   OH231479   3.991   1.968  15.811 -0.9683  0.4421  0.5140
 3355TIP3    H131480   4.062   1.965  15.746 -0.3399 -0.5864  1.2239
 3355TIP3    H231481   3.990   2.059  15.840 -0.3007  0.5980  0.0915
 3356TIP3   OH231482   3.787   3.907  12.039 -0.0521  0.2440  0.5481
 3356TIP3    H131483   3.725   3.834  12.033  1.2344 -0.9202  0.8794
 3356TIP3    H231484   3.743   3.971  12.095  0.2432 -1.9340  3.5677
 3357TIP3   OH231485   0.268   5.347  10.679  0.3397  0.2851  0.1163
 3357TIP3    H131486   0.294   5.261  10.714  1.2416  0.6462  0.3555
 3357TIP3    H231487   0.316   5.355  10.597 -0.3032  0.2650 -0.2709
 3358TIP3   OH231488   4.543   3.367  15.613 -0.0111 -0.0656  0.2951
 3358TIP3    H131489   4.510   3.384  15.702  0.2056 -0.0494  0.3743
 3358TIP3    H231490   4.577   3.278  15.618  1.0038  0.3146  0.5387
 3359TIP3   OH231491   0.533   1.016   0.694 -0.4948  0.5488 -0.4178
 3359TIP3    H131492   0.448   0.973   0.706 -0.8273 -0.3284 -4.5411
 3359TIP3    H231493   0.510   1.105   0.666  0.0931  1.2899  1.3153
 3360TIP3   OH231494   6.404   6.348   5.402 -0.0044  0.1100  0.0090
 3360TIP3    H131495   6.463   6.329   5.330 -1.0308  1.2597 -1.1743
 3360TIP3    H231496   6.324   6.380   5.361 -0.9104  0.0607  1.6241
 3361TIP3   OH231497   0.452   2.081   5.528 -0.6192  0.4513 -0.5163
 3361TIP3    H131498   0.502   2.066   5.448  0.7643 -0.4102  0.4676
 3361TIP3    H231499   0.369   2.118   5.498 -0.5227 -0.7451 -2.4112
 3362TIP3   OH231500   3.293   0.991   3.599  0.2070 -0.5731  0.1277
 3362TIP3    H131501   3.275   0.935   3.675 -1.9326  1.8036  1.5522
 3362TIP3    H231502   3.214   0.985   3.545  0.7013 -0.3217 -0.6364
 3363TIP3   OH231503   1.904   2.489  13.074 -0.2334  0.3214 -0.1182
 3363TIP3    H131504   1.919   2.564  13.132 -0.7274 -0.6932  1.3800
 3363TIP3    H231505   1.992   2.462  13.048  0.0436  0.3850  0.7159
 3364TIP3   OH231506   1.238   4.427  16.089 -0.3368  0.9076 -0.7845
 3364TIP3    H131507   1.182   4.400  16.162 -1.6349  0.0844 -2.0410
 3364TIP3    H231508   1.178   4.439  16.015  0.9540  1.6009 -1.7663
 3365TIP3   OH231509   5.664   2.123   4.801 -0.1513  0.0729 -0.0624
 3365TIP3    H131510   5.667   2.109   4.896  0.0950  0.9775  0.0663
 3365TIP3    H231511   5.582   2.168   4.785 -0.2702 -0.2241 -0.3081
 3366TIP3   OH231512   5.481   1.277  16.481 -0.4039 -0.9281 -0.9566
 3366TIP3    H131513   5.444   1.360  16.451  0.2110 -0.4660 -0.4495
 3366TIP3    H231514   5.559   1.265  16.426  0.5136 -0.2674  0.1686
 3367TIP3   OH231515   3.452   4.115   0.544 -0.1186  0.3256 -0.2982
 3367TIP3    H131516   3.479   4.024   0.548 -0.3966  0.2201 -0.7224
 3367TIP3    H231517   3.531   4.163   0.522  0.3879  0.3840  1.5285
 3368TIP3   OH231518   2.524   6.544  14.630  0.2881  0.1120  0.0053
 3368TIP3    H131519   2.599   6.549  14.570  0.5681  1.2036  0.4105
 3368TIP3    H231520   2.468   6.617  14.604 -0.1525 -0.1052  0.3391
 3369TIP3   OH231521   6.718   2.411   5.973  0.0518 -0.1936  0.9390
 3369TIP3    H131522   6.785   2.376   5.914 -0.6703  2.2352 -1.5443
 3369TIP3    H231523   6.740   2.503   5.982 -0.7997 -0.1589  3.2761
 3370TIP3   OH231524   4.620   1.115   1.354 -0.1615 -0.0089  0.1307
 3370TIP3    H131525   4.591   1.057   1.424  0.5602 -1.7438 -0.9363
 3370TIP3    H231526   4.551   1.110   1.288  0.0726  0.0649 -0.1211
 3371TIP3   OH231527   2.607   5.184  12.437 -0.2283  0.0667  0.1073
 3371TIP3    H131528   2.676   5.245  12.410 -0.2614  0.7721  1.5589
 3371TIP3    H231529   2.584   5.211  12.526 -1.5844 -0.8778  0.0701
 3372TIP3   OH231530   5.401   1.245  15.234 -0.2540 -0.0666  0.6135
 3372TIP3    H131531   5.368   1.279  15.151 -0.4679 -2.2766 -0.2701
 3372TIP3    H231532   5.327   1.254  15.294 -1.2122 -1.3893 -0.3165
 3373TIP3   OH231533   2.760   5.451  16.469  0.1430  0.2622  0.2707
 3373TIP3    H131534   2.772   5.419  16.559 -0.7744  1.9945  1.0622
 3373TIP3    H231535   2.834   5.509  16.454 -0.3534  0.9212  0.3616
 3374TIP3   OH231536   2.381   1.563  14.734  0.3504  0.1964 -0.0775
 3374TIP3    H131537   2.302   1.526  14.775 -1.0031  0.5406 -2.2029
 3374TIP3    H231538   2.403   1.501  14.665  0.8583  1.0106 -0.6548
 3375TIP3   OH231539   2.568   5.533  12.585  0.3631 -0.6457 -0.3333
 3375TIP3    H131540   2.625   5.567  12.654  0.3068 -0.9376 -0.1397
 3375TIP3    H231541   2.549   5.443  12.612  0.9310 -1.0076 -1.1098
 3376TIP3   OH231542   6.068   4.141  12.791 -0.0910 -0.0257  0.4269
 3376TIP3    H131543   6.076   4.121  12.884  0.3523 -2.6832 -0.1015
 3376TIP3    H231544   6.107   4.228  12.782  1.3188 -0.3694  2.4754
 3377TIP3   OH231545   4.282   3.315   1.511 -0.3848 -0.1498  0.3536
 3377TIP3    H131546   4.240   3.291   1.429 -1.0845 -0.2350  0.7360
 3377TIP3    H231547   4.372   3.336   1.486 -0.6624  0.0918 -0.4766
 3378TIP3   OH231548   4.314   5.534   5.383 -0.4739 -0.0604  0.1477
 3378TIP3    H131549   4.258   5.459   5.364  0.1963 -0.5887  0.2259
 3378TIP3    H231550   4.260   5.592   5.436 -1.6775  0.4743 -1.5865
 3379TIP3   OH231551   3.111   5.268  16.713  0.2707 -0.1269  1.0096
 3379TIP3    H131552   3.165   5.194  16.742  1.4030 -0.0514 -0.7582
 3379TIP3    H231553   3.163   5.345  16.733  0.4636 -0.0029  0.0803
 3380TIP3   OH231554   6.636   6.530  14.751  1.3347 -0.1483  0.1320
 3380TIP3    H131555   6.611   6.450  14.705  1.7590  0.0902 -0.5223
 3380TIP3    H231556   6.633   6.507  14.844 -1.9793  0.0461  0.1713
 3381TIP3   OH231557   3.987   3.206  10.978  0.1307 -0.1673  0.7955
 3381TIP3    H131558   3.898   3.178  11.001  0.0187  1.2531  2.3132
 3381TIP3    H231559   3.994   3.189  10.885 -1.3388 -1.3512  0.8560
 3382TIP3   OH231560   5.226   4.997  11.689 -0.6951 -0.0199  0.1463
 3382TIP3    H131561   5.243   5.038  11.774 -1.0827  1.1023 -0.3019
 3382TIP3    H231562   5.215   4.904  11.710  2.8311 -0.4275  0.8728
 3383TIP3   OH231563   4.155   6.561  16.211  0.2360  0.0300 -0.0857
 3383TIP3    H131564   4.197   6.646  16.228 -0.1711  0.3983 -0.8669
 3383TIP3    H231565   4.064   6.582  16.193 -0.1534 -0.7016  0.8860
 3384TIP3   OH231566   3.561   2.253   3.306 -0.6963  0.2137  0.7361
 3384TIP3    H131567   3.528   2.293   3.225  2.2344 -1.5286 -1.5043
 3384TIP3    H231568   3.564   2.159   3.287 -0.1252 -0.2819  2.9937
 3385TIP3   OH231569   1.824   5.269  12.232  0.3998 -0.2979 -0.2137
 3385TIP3    H131570   1.816   5.176  12.213  0.4488  0.0113 -1.9089
 3385TIP3    H231571   1.737   5.305  12.215  0.4629  0.0259  0.1244
 3386TIP3   OH231572   6.782   5.261   0.418 -0.2747  0.3161  0.8165
 3386TIP3    H131573   6.866   5.218   0.432 -0.6281 -0.1832  1.5228
 3386TIP3    H231574   6.748   5.276   0.506 -0.5411  1.3010  0.5574
 3387TIP3   OH231575   2.323   4.047   3.201  0.1463 -0.6999 -0.5822
 3387TIP3    H131576   2.392   4.091   3.251 -0.5516  0.3187 -0.4920
 3387TIP3    H231577   2.316   3.961   3.241 -0.0999 -0.0571  0.8153
 3388TIP3   OH231578   2.114   2.742  16.518 -0.3085  0.0367  0.2824
 3388TIP3    H131579   2.091   2.724  16.427  1.1325 -1.0275  0.0820
 3388TIP3    H231580   2.065   2.820  16.541 -0.2853  0.6375 -1.5786
 3389TIP3   OH231581   0.651   6.517   6.280  0.1348  0.0937 -0.0175
 3389TIP3    H131582   0.556   6.515   6.267 -0.0161  2.2691  0.3335
 3389TIP3    H231583   0.686   6.470   6.204 -1.2046 -0.0856 -0.5658
 3390TIP3   OH231584   2.154   5.732   0.485  0.5066  0.0842  0.5698
 3390TIP3    H131585   2.118   5.796   0.425 -0.5539 -0.9051  0.1127
 3390TIP3    H231586   2.105   5.651   0.467  3.1481 -1.4502 -0.3320
 3391TIP3   OH231587   0.065   1.786  13.243 -0.4072  0.0285  0.0135
 3391TIP3    H131588  -0.024   1.767  13.213 -0.0265 -1.5491 -0.1589
 3391TIP3    H231589   0.056   1.803  13.337 -1.1229  1.6946 -0.3115
 3392TIP3   OH231590   4.397   2.408  12.084  0.2396  0.0229 -0.5625
 3392TIP3    H131591   4.482   2.380  12.119  0.3332 -0.6021 -1.2760
 3392TIP3    H231592   4.396   2.375  11.994 -0.5175  0.5344 -0.7446
 3393TIP3   OH231593   2.038   4.380  14.707  0.2746  0.9487 -0.0506
 3393TIP3    H131594   2.038   4.433  14.787  0.3123  0.4338  0.2958
 3393TIP3    H231595   2.123   4.337  14.707 -0.5907 -0.9025  0.8942
 3394TIP3   OH231596   3.865   3.488  16.818 -0.3215  0.1376  0.2506
 3394TIP3    H131597   3.825   3.512  16.902 -0.1240  0.2110  0.3243
 3394TIP3    H231598   3.884   3.394  16.826 -2.1651 -0.3490 -0.4616
 3395TIP3   OH231599   3.486   0.851   3.819 -0.1049  1.2029  0.0884
 3395TIP3    H131600   3.495   0.921   3.754 -2.2449  1.2763 -0.2035
 3395TIP3    H231601   3.569   0.852   3.867  2.1192  0.3359 -3.3866
 3396TIP3   OH231602   1.229   4.741   1.343  0.1998  0.0011 -0.5980
 3396TIP3    H131603   1.270   4.824   1.370  0.2235 -0.0235 -0.5592
 3396TIP3    H231604   1.225   4.747   1.247  1.8808 -0.7394 -0.7463
 3397TIP3   OH231605   4.852   0.897  14.031 -0.1943  0.1715  0.2430
 3397TIP3    H131606   4.800   0.858  14.100 -2.3437  1.9737 -0.2326
 3397TIP3    H231607   4.821   0.856  13.950 -0.0646  0.4459  0.0508
 3398TIP3   OH231608   2.135   2.999   1.136 -0.1369  0.2286 -0.2883
 3398TIP3    H131609   2.207   3.007   1.073 -0.6354 -0.9992 -1.0381
 3398TIP3    H231610   2.161   3.055   1.209  1.0550  0.6757 -1.0333
 3399TIP3   OH231611   1.877   3.918   0.178 -0.3739 -0.3379  0.1802
 3399TIP3    H131612   1.933   3.874   0.114  0.4827  1.0462 -0.0576
 3399TIP3    H231613   1.846   3.997   0.134  0.6676  0.9304  1.6036
 3400TIP3   OH231614   6.615   1.185   3.780 -0.4933 -0.1866  0.7658
 3400TIP3    H131615   6.689   1.243   3.765 -0.2896 -0.0317  2.2471
 3400TIP3    H231616   6.538   1.240   3.763 -0.3098 -0.3069 -0.6208
 3401TIP3   OH231617   4.397   3.281   4.703  0.1379  0.3316 -0.0956
 3401TIP3    H131618   4.336   3.220   4.662  0.6732 -0.6702  0.5551
 3401TIP3    H231619   4.480   3.265   4.658  0.1518  0.9869 -0.3062
 3402TIP3   OH231620   1.122   2.751   4.618  0.9135 -0.5123  0.2355
 3402TIP3    H131621   1.070   2.830   4.609  0.9473 -0.6338 -1.2419
 3402TIP3    H231622   1.071   2.683   4.575  1.6969 -0.9104 -0.0807
 3403TIP3   OH231623   0.210   0.205   0.099 -0.5299  0.1414 -0.1269
 3403TIP3    H131624   0.124   0.163   0.101 -1.1769  1.3918 -1.0837
 3403TIP3    H231625   0.218   0.241   0.011  0.7658  0.4907  0.1113
 3404TIP3   OH231626   2.146   5.992  13.395 -0.3205  0.2817  0.3968
 3404TIP3    H131627   2.090   6.023  13.323 -1.3130 -0.0115  1.0126
 3404TIP3    H231628   2.138   5.897  13.392 -2.1045  0.3094  2.1714
 3405TIP3   OH231629   6.505   2.976   2.586  0.3527  0.6783  0.3921
 3405TIP3    H131630   6.428   3.010   2.633  1.2985  0.9201  1.8309
 3405TIP3    H231631   6.555   3.054   2.564 -0.7387  0.7066 -2.3639
 3406TIP3   OH231632   1.565   4.785   2.798  0.7285  0.5644  0.2960
 3406TIP3    H131633   1.572   4.765   2.891  0.0645  2.0815  0.7111
 3406TIP3    H231634   1.551   4.880   2.795 -0.5151  0.3740 -1.2961
 3407TIP3   OH231635   4.224   3.388   0.141  0.3446  0.2447  0.5032
 3407TIP3    H131636   4.132   3.412   0.149  0.5818  0.8902  1.5949
 3407TIP3    H231637   4.225   3.316   0.078 -0.9249  0.1095  0.6083
 3408TIP3   OH231638   4.768   2.995  16.838  0.6301 -0.2519 -0.5741
 3408TIP3    H131639   4.692   2.951  16.799  1.1694 -0.7880 -1.0297
 3408TIP3    H231640   4.761   2.975  16.932  1.0872 -1.7029 -0.8148
 3409TIP3   OH231641   5.464   3.239  13.287  0.2990 -0.4535 -0.7546
 3409TIP3    H131642   5.491   3.206  13.373 -0.5210  1.5616  0.3354
 3409TIP3    H231643   5.546   3.270  13.247  0.5297 -0.3034 -0.1848
 3410TIP3   OH231644   6.685   3.223  13.346 -0.4589  0.4387 -0.3312
 3410TIP3    H131645   6.776   3.207  13.371  0.0912  0.9155 -1.9078
 3410TIP3    H231646   6.637   3.227  13.429  0.7958 -0.7325  0.4791
 3411TIP3   OH231647   2.203   4.691   0.174  0.2509 -0.4206  0.1849
 3411TIP3    H131648   2.122   4.654   0.140 -1.0895  1.0308  1.5932
 3411TIP3    H231649   2.191   4.786   0.167  1.6357 -0.1629  0.8634
 3412TIP3   OH231650   3.803   6.357  16.817 -0.2165 -0.1683 -0.2541
 3412TIP3    H131651   3.799   6.396  16.904  1.2508  0.3499 -0.3847
 3412TIP3    H231652   3.824   6.265  16.834 -1.1279 -0.3424 -0.0309
 3413TIP3   OH231653   6.024   3.020  11.289  0.1763  0.0635 -0.1973
 3413TIP3    H131654   5.986   3.008  11.202 -2.8943  2.6629  0.5807
 3413TIP3    H231655   6.054   3.111  11.290  2.1124 -0.5242  0.8764
 3414TIP3   OH231656   1.597   4.068   3.904  0.0187 -0.1957  0.1749
 3414TIP3    H131657   1.644   4.145   3.872 -2.8697  0.8022 -2.1568
 3414TIP3    H231658   1.613   4.001   3.838 -1.2290 -0.0195 -0.3484
 3415TIP3   OH231659   4.935   6.555   4.455  0.5500 -0.1319 -0.1497
 3415TIP3    H131660   4.908   6.643   4.426  1.2265  0.0629 -0.1997
 3415TIP3    H231661   5.031   6.559   4.458  0.6330 -1.1310 -1.0016
 3416TIP3   OH231662   3.460   4.081  10.736 -0.0685  0.0852  0.4210
 3416TIP3    H131663   3.371   4.071  10.769 -0.8337  1.8035 -0.9548
 3416TIP3    H231664   3.462   4.027  10.656  1.3138 -2.8421  2.2398
 3417TIP3   OH231665   0.727   4.815   2.630 -0.2774 -0.2512  0.2925
 3417TIP3    H131666   0.791   4.844   2.695  0.1528  1.5888 -0.8708
 3417TIP3    H231667   0.758   4.852   2.548 -1.1972 -1.9163 -0.8608
 3418TIP3   OH231668   6.288   4.193   0.830  0.0488  0.2720 -0.5989
 3418TIP3    H131669   6.367   4.239   0.857  0.7816 -0.3738 -1.5278
 3418TIP3    H231670   6.242   4.173   0.911  0.9702  0.4495 -0.0216
 3419TIP3   OH231671   5.893   3.257  16.900 -0.4390 -0.5943 -0.4463
 3419TIP3    H131672   5.822   3.193  16.907  0.3258 -1.3201  1.5708
 3419TIP3    H231673   5.966   3.209  16.863 -0.8912  0.1105 -2.3647
 3420TIP3   OH231674   2.741   1.669  16.376 -0.6200  0.1251 -0.5109
 3420TIP3    H131675   2.816   1.717  16.412 -1.7838  1.2183  0.5503
 3420TIP3    H231676   2.712   1.613  16.449 -2.0282  1.1798 -0.2295
 3421TIP3   OH231677   2.799   6.335   6.513 -0.0976 -1.0696  0.4383
 3421TIP3    H131678   2.740   6.304   6.444 -0.1042 -0.7769  0.3064
 3421TIP3    H231679   2.742   6.385   6.572  0.0849 -0.4054  0.0675
 3422TIP3   OH231680   1.617   2.393   0.954 -0.6690  0.0904 -0.4647
 3422TIP3    H131681   1.679   2.465   0.965  0.5722 -1.2246  1.7675
 3422TIP3    H231682   1.535   2.436   0.930  0.5833  2.0377 -1.5884
 3423TIP3   OH231683   3.105   2.307  14.998  0.0663  0.1277 -0.4047
 3423TIP3    H131684   3.073   2.251  15.069 -0.7828 -0.1058 -0.9557
 3423TIP3    H231685   3.186   2.265  14.970  1.3352  1.1678  1.5391
 3424TIP3   OH231686   1.673   1.890   2.243  0.3457 -0.3200  0.0219
 3424TIP3    H131687   1.732   1.822   2.211 -1.1455 -0.8464 -1.7945
 3424TIP3    H231688   1.602   1.843   2.285 -0.5849  0.0892 -1.0501
 3425TIP3   OH231689   0.307   4.393  10.487  0.3240 -0.1645 -0.4371
 3425TIP3    H131690   0.384   4.445  10.512 -0.1894  0.3994 -0.0195
 3425TIP3    H231691   0.338   4.302  10.489  1.1801  0.1020 -1.0001
 3426TIP3   OH231692   5.360   4.920  13.634 -0.0565 -0.0837 -0.4170
 3426TIP3    H131693   5.371   5.012  13.659 -0.2492 -0.7071  2.2038
 3426TIP3    H231694   5.266   4.904  13.642  0.2612 -1.1993  2.1053
 3427TIP3   OH231695   3.324   3.096   1.090 -0.3699  0.2168 -0.3727
 3427TIP3    H131696   3.287   3.141   1.014 -3.4826  1.2156  1.5830
 3427TIP3    H231697   3.287   3.008   1.087 -0.1787  0.1275 -0.2052
 3428TIP3   OH231698   6.615   4.715   0.482  0.8541 -0.2287  0.0856
 3428TIP3    H131699   6.640   4.740   0.393  0.2498 -1.8314 -0.5743
 3428TIP3    H231700   6.609   4.620   0.479  0.1918 -0.2634  1.6788
 3429TIP3   OH231701   2.874   5.685  14.230 -0.3003  0.4699 -0.7057
 3429TIP3    H131702   2.963   5.721  14.237 -0.4854  0.7267  0.4110
 3429TIP3    H231703   2.820   5.760  14.204 -0.9356  1.4698  3.0110
 3430TIP3   OH231704   3.938   4.907   1.668 -0.2093  0.1220  0.4155
 3430TIP3    H131705   3.971   4.890   1.756  0.5388 -0.7332 -0.0281
 3430TIP3    H231706   3.999   4.970   1.630  0.9681 -1.4529 -0.4012
 3431TIP3   OH231707   2.012   0.758   3.638  0.0579 -0.0531 -0.7318
 3431TIP3    H131708   2.076   0.697   3.674  0.5317  1.6344  1.4820
 3431TIP3    H231709   1.938   0.703   3.612  0.3572 -1.5689  1.4039
 3432TIP3   OH231710   5.465   5.307  12.838  0.2092 -0.2325 -0.0710
 3432TIP3    H131711   5.510   5.364  12.900 -1.1188 -0.0459  0.7637
 3432TIP3    H231712   5.372   5.319  12.858 -0.2588 -0.1056 -2.1776
 3433TIP3   OH231713   2.010   5.716   4.789 -0.3181  0.6589 -0.4674
 3433TIP3    H131714   1.958   5.762   4.855 -0.6221 -0.7635  0.3352
 3433TIP3    H231715   2.092   5.764   4.784 -0.2284  0.6965  1.0869
 3434TIP3   OH231716   2.670   6.267   0.971  0.0704  0.5153  0.1126
 3434TIP3    H131717   2.628   6.302   0.892  0.2498  2.5471  0.8833
 3434TIP3    H231718   2.681   6.342   1.028  0.7237 -0.7778  1.7575
 3435TIP3   OH231719   3.001   1.335  12.460  0.4110 -0.1557 -0.0250
 3435TIP3    H131720   3.007   1.294  12.546  1.1622  0.0661  0.0360
 3435TIP3    H231721   2.958   1.419  12.476  2.5902  0.9270  0.5305
 3436TIP3   OH231722   0.401   4.601  14.560 -0.5854 -0.0100  0.6509
 3436TIP3    H131723   0.326   4.541  14.564 -1.9951  1.6445  0.1516
 3436TIP3    H231724   0.476   4.544  14.542 -1.8958 -1.6138  0.0003
 3437TIP3   OH231725   5.703   2.652   1.591  0.0858  0.5829 -0.5410
 3437TIP3    H131726   5.698   2.703   1.671 -0.7094 -1.5078  0.8198
 3437TIP3    H231727   5.794   2.622   1.588  0.2014  0.9291 -0.6311
 3438TIP3   OH231728   0.104   5.241  16.372 -0.0245 -0.2350 -0.5901
 3438TIP3    H131729   0.116   5.193  16.454 -1.7623  1.0912  0.5047
 3438TIP3    H231730   0.154   5.321  16.384 -1.6127  0.7410 -0.0528
 3439TIP3   OH231731   1.904   5.434  14.358 -0.0643  0.6317 -0.3120
 3439TIP3    H131732   1.949   5.413  14.276  0.0845  0.6973 -0.2466
 3439TIP3    H231733   1.812   5.415  14.340  0.2255 -1.6185  0.2285
 3440TIP3   OH231734   5.340   4.909  16.314 -0.5885  0.2789  0.7375
 3440TIP3    H131735   5.246   4.913  16.296 -0.7755 -0.2250  1.5308
 3440TIP3    H231736   5.381   4.945  16.235 -1.2466 -3.6446 -1.6897
 3441TIP3   OH231737   5.394   0.349   2.680 -0.4421  0.3072 -0.1745
 3441TIP3    H131738   5.390   0.399   2.761  0.4196 -2.1100  1.4540
 3441TIP3    H231739   5.323   0.286   2.687  2.5784 -3.3022  1.2401
 3442TIP3   OH231740   1.464   0.168  13.456 -0.1757  0.0059 -0.1055
 3442TIP3    H131741   1.404   0.162  13.383  0.0042 -0.2690 -0.2310
 3442TIP3    H231742   1.548   0.139  13.421 -0.3062 -1.0971  0.4649
 3443TIP3   OH231743   1.294   5.905   0.331 -0.1705  0.5049  0.3375
 3443TIP3    H131744   1.265   5.996   0.339 -2.0087 -0.0405  0.1639
 3443TIP3    H231745   1.390   5.910   0.339 -0.2580  2.4092  0.6210
 3444TIP3   OH231746   5.273   5.830  12.294  0.4295  0.3939  0.4898
 3444TIP3    H131747   5.322   5.748  12.305 -0.2064  0.2214  2.3929
 3444TIP3    H231748   5.195   5.804  12.245  1.7079  0.5124 -1.7816
 3445TIP3   OH231749   5.512   4.485  15.374 -0.1386  0.3730  0.4870
 3445TIP3    H131750   5.462   4.502  15.294  0.1241  0.8032  0.4099
 3445TIP3    H231751   5.476   4.403  15.408 -0.9787  0.7415  0.4996
 3446TIP3   OH231752   5.508   4.630  14.529 -0.7540  0.6815  0.4336
 3446TIP3    H131753   5.452   4.706  14.545 -2.1412 -0.8516  3.8320
 3446TIP3    H231754   5.591   4.652  14.571 -0.6248  0.9091  0.0591
 3447TIP3   OH231755   5.595   5.618  15.388 -0.0550  0.1179  0.0595
 3447TIP3    H131756   5.606   5.677  15.462  0.8115  1.3443 -1.0163
 3447TIP3    H231757   5.502   5.593  15.391 -0.1138  0.4416  1.3197
 3448TIP3   OH231758   5.411   4.661  16.215 -0.4247  0.4937 -0.2906
 3448TIP3    H131759   5.495   4.681  16.256  0.3823 -0.2810 -1.4981
 3448TIP3    H231760   5.346   4.704  16.271  0.5792 -0.6794  1.8966
 3449TIP3   OH231761   5.421   3.354  12.293 -0.5021 -0.1250 -0.4078
 3449TIP3    H131762   5.333   3.330  12.322 -0.3855  1.1330  1.0817
 3449TIP3    H231763   5.469   3.374  12.373  0.2648  2.0933 -1.3441
 3450TIP3   OH231764   0.656   5.955   4.724  0.5074  0.6642 -0.1273
 3450TIP3    H131765   0.717   5.882   4.738 -0.3221 -0.0236 -0.0359
 3450TIP3    H231766   0.707   6.019   4.673  1.3820  0.2206  0.1695
 3451TIP3   OH231767   4.875   3.589   0.993  0.3775  0.0823 -0.0598
 3451TIP3    H131768   4.893   3.496   1.003  0.6432 -0.0082 -1.2663
 3451TIP3    H231769   4.926   3.616   0.917  0.5356  1.2863  0.4403
 3452TIP3   OH231770   3.690   1.875  16.773  0.1706  0.4168  0.0846
 3452TIP3    H131771   3.669   1.966  16.750  2.9194  0.6267 -2.2474
 3452TIP3    H231772   3.686   1.873  16.869 -1.3554  2.5958  0.1366
 3453TIP3   OH231773   4.355   4.806  14.098 -0.1352  0.1827  0.6558
 3453TIP3    H131774   4.317   4.753  14.168 -0.9940 -0.6770 -0.4053
 3453TIP3    H231775   4.381   4.888  14.140  2.6723 -1.5844  2.7106
 3454TIP3   OH231776   2.871   5.060   1.935  0.1886 -0.0694  0.1330
 3454TIP3    H131777   2.819   5.128   1.977 -0.4029 -0.3202 -0.1745
 3454TIP3    H231778   2.958   5.098   1.925 -0.0459  0.5136  0.2791
 3455TIP3   OH231779   2.527   3.099   5.041  0.1230  0.4483  0.2180
 3455TIP3    H131780   2.479   3.179   5.018 -0.6157  0.4349  1.5816
 3455TIP3    H231781   2.510   3.087   5.134  0.5794 -1.0743  0.1348
 3456TIP3   OH231782   1.732   4.120   0.687  0.2606 -0.0985  0.0974
 3456TIP3    H131783   1.690   4.186   0.632  0.9773  0.1496 -0.1613
 3456TIP3    H231784   1.773   4.169   0.758  0.8280 -0.2514 -0.1166
 3457TIP3   OH231785   4.406   6.716   2.541  0.0428  0.4328 -0.1266
 3457TIP3    H131786   4.388   6.767   2.620 -0.2411 -2.9568  2.2191
 3457TIP3    H231787   4.348   6.753   2.475 -2.7596  0.8954  2.3929
 3458TIP3   OH231788   6.510   3.472   4.586  0.4446  0.4037 -0.3646
 3458TIP3    H131789   6.552   3.426   4.659 -0.4958 -0.3442 -0.2805
 3458TIP3    H231790   6.571   3.462   4.513  0.2681 -1.0058 -0.3498
 3459TIP3   OH231791   1.136   4.252   5.801 -0.4164 -0.0285  0.0598
 3459TIP3    H131792   1.055   4.303   5.791  0.5515  1.4032 -0.8808
 3459TIP3    H231793   1.163   4.268   5.892 -0.2296  1.0361 -0.1621
 3460TIP3   OH231794   2.695   1.038   3.966  0.9578 -0.1693  0.6995
 3460TIP3    H131795   2.722   1.129   3.969 -0.6533  0.3845 -0.3003
 3460TIP3    H231796   2.744   0.996   4.036 -0.6947  2.1436  3.4346
 3461TIP3   OH231797   2.809   4.985   5.921 -0.0380 -0.1369 -0.1416
 3461TIP3    H131798   2.826   5.051   5.988  1.3617  0.0562 -0.6546
 3461TIP3    H231799   2.748   4.924   5.963  0.7957 -0.0258  1.3076
 3462TIP3   OH231800   0.317   0.918   5.581  0.2723 -0.8332 -0.0648
 3462TIP3    H131801   0.281   0.997   5.621 -0.0176 -0.1621 -1.5873
 3462TIP3    H231802   0.382   0.950   5.518  0.1617 -1.7995 -0.7013
 3463TIP3   OH231803   1.263   1.390  14.153  0.2267 -0.2762  0.1804
 3463TIP3    H131804   1.227   1.410  14.067 -2.4535  1.8323  1.6534
 3463TIP3    H231805   1.210   1.317  14.185 -0.2417  0.3464  0.8586
 3464TIP3   OH231806   1.941   5.125  15.559 -0.0917 -0.3223  0.4030
 3464TIP3    H131807   1.900   5.047  15.522 -0.1302 -0.1693  0.1226
 3464TIP3    H231808   2.028   5.095  15.588  0.6481 -0.0628 -1.4189
 3465TIP3   OH231809   0.364   1.723   1.983  0.0416 -0.1962 -0.1421
 3465TIP3    H131810   0.418   1.800   2.001 -1.3863  1.2182 -1.5171
 3465TIP3    H231811   0.415   1.673   1.919 -0.6989  1.7657 -2.4053
 3466TIP3   OH231812   4.093   0.858   3.774  0.2596  0.1565  0.4365
 3466TIP3    H131813   4.013   0.806   3.785 -2.0957  2.8921 -2.0010
 3466TIP3    H231814   4.148   0.805   3.716 -1.6103 -0.1490 -1.1748
 3467TIP3   OH231815   3.976   3.134  14.132  0.1863 -0.1513  0.3784
 3467TIP3    H131816   4.041   3.152  14.200  0.9317 -1.8472  0.1633
 3467TIP3    H231817   3.893   3.161  14.171  0.7270 -0.1196  1.5604
 3468TIP3   OH231818   6.502   4.020   1.174  0.0820 -0.2333 -0.1825
 3468TIP3    H131819   6.425   3.974   1.207 -0.2152  0.0797 -0.4194
 3468TIP3    H231820   6.506   4.100   1.226  0.5959 -0.5236  0.2300
 3469TIP3   OH231821   5.309   1.231   4.263 -0.3392  0.3463  0.1450
 3469TIP3    H131822   5.266   1.286   4.328 -0.8470  0.5793 -0.3667
 3469TIP3    H231823   5.390   1.277   4.242  1.7565 -1.5974  3.3253
 3470TIP3   OH231824   2.792   4.036  15.294 -0.1110  0.4078  0.8374
 3470TIP3    H131825   2.707   3.992  15.287  0.0246  0.0781  1.1994
 3470TIP3    H231826   2.851   3.968  15.328  0.4271  0.4779  0.0604
 3471TIP3   OH231827   6.046   1.982   3.463  0.3408 -0.3231 -0.5910
 3471TIP3    H131828   6.090   1.910   3.417 -0.8025 -1.3728 -0.0994
 3471TIP3    H231829   6.055   1.960   3.556  1.8056  1.2891 -0.3072
 3472TIP3   OH231830   6.454   4.170   6.053 -0.4144  0.1225 -0.0821
 3472TIP3    H131831   6.490   4.098   6.105 -0.9001 -0.7674 -0.9458
 3472TIP3    H231832   6.456   4.138   5.963 -0.4149  1.2959 -0.5214
 3473TIP3   OH231833   0.093   3.246  10.970  1.4718  0.2785 -0.5487
 3473TIP3    H131834   0.096   3.326  10.917 -1.9001 -0.0018 -1.3268
 3473TIP3    H231835   0.090   3.175  10.906 -2.7372 -0.0605 -0.2181
 3474TIP3   OH231836   6.584   0.704  16.106 -0.5109 -0.0266  0.1130
 3474TIP3    H131837   6.493   0.705  16.075 -0.2922  2.7880 -0.6930
 3474TIP3    H231838   6.576   0.695  16.201 -1.5167 -1.1604 -0.0409
 3475TIP3   OH231839   0.146   0.631  12.840  0.2172  0.7811 -0.2464
 3475TIP3    H131840   0.195   0.710  12.816  2.5009 -0.5868 -0.3285
 3475TIP3    H231841   0.190   0.599  12.919 -0.1427 -0.8674 -0.6929
 3476TIP3   OH231842   3.611   1.547  14.113  0.3996  0.8270  0.1974
 3476TIP3    H131843   3.610   1.481  14.183  0.3182  1.6799  1.0114
 3476TIP3    H231844   3.677   1.514  14.051  0.0841 -0.2196  0.3870
 3477TIP3   OH231845   5.486   5.481   1.996  0.1424 -0.3227  0.2771
 3477TIP3    H131846   5.489   5.428   2.076  2.2987 -1.6447 -0.5800
 3477TIP3    H231847   5.536   5.429   1.932 -0.0779  1.4809 -1.4307
 3478TIP3   OH231848   1.930   2.797  10.931  0.3932  0.1572 -0.3361
 3478TIP3    H131849   1.853   2.757  10.972  1.1861 -0.8876  0.1889
 3478TIP3    H231850   1.953   2.738  10.860 -0.6624  1.6949 -2.0390
 3479TIP3   OH231851   1.852   5.404   1.401  0.2889 -0.3092 -0.3617
 3479TIP3    H131852   1.853   5.315   1.367 -0.5983  0.3132 -2.1469
 3479TIP3    H231853   1.877   5.458   1.326 -2.5438  1.1981 -0.3329
 3480TIP3   OH231854   6.757   6.560  16.805 -0.0476  0.3920 -0.8012
 3480TIP3    H131855   6.665   6.584  16.811  0.3491  1.7032  1.2859
 3480TIP3    H231856   6.757   6.475  16.761 -2.3736 -0.2498  0.2583
 3481TIP3   OH231857   2.319   0.551   6.113 -0.2753 -0.1053  0.5665
 3481TIP3    H131858   2.411   0.543   6.088 -0.3317  0.5414  0.1252
 3481TIP3    H231859   2.319   0.623   6.177 -0.3053 -0.9202  1.4967
 3482TIP3   OH231860   5.534   3.694  11.235 -0.0450 -0.5270  0.0727
 3482TIP3    H131861   5.472   3.692  11.162  0.4655  3.2374 -0.6701
 3482TIP3    H231862   5.619   3.713  11.195  0.8191 -1.3984  1.4163
 3483TIP3   OH231863   1.184   6.079   1.668 -0.1780 -0.3738  0.0562
 3483TIP3    H131864   1.197   6.081   1.763 -0.6084 -0.9836  0.1358
 3483TIP3    H231865   1.156   5.989   1.650 -1.4189  0.0976 -0.4731
 3484TIP3   OH231866   1.026   0.880  11.940 -0.4154  0.1930  0.0394
 3484TIP3    H131867   1.091   0.918  11.881 -0.1852 -0.9307 -0.4564
 3484TIP3    H231868   1.075   0.819  11.995 -0.3733  2.1332  2.3486
 3485TIP3   OH231869   5.743   3.417  11.703  0.3938  0.1787  0.1698
 3485TIP3    H131870   5.806   3.359  11.746  1.7111  0.3047 -1.5166
 3485TIP3    H231871   5.727   3.376  11.618  0.5250  1.7434 -0.6291
 3486TIP3   OH231872   1.623   1.643   2.547  0.0822 -0.3295 -0.2373
 3486TIP3    H131873   1.640   1.554   2.578  1.6373 -0.1572 -0.5150
 3486TIP3    H231874   1.708   1.686   2.550 -0.8926  1.7320  1.6513
 3487TIP3   OH231875   6.071   1.378  15.724 -0.4532  0.7357  0.4585
 3487TIP3    H131876   6.121   1.459  15.728 -0.2519  0.7055 -0.9814
 3487TIP3    H231877   5.990   1.398  15.770 -0.3571  1.7236  0.2209
 3488TIP3   OH231878   3.041   3.458   1.313  0.2710 -0.5168  0.4487
 3488TIP3    H131879   3.021   3.550   1.329 -1.9314 -0.7020 -0.8818
 3488TIP3    H231880   2.989   3.411   1.378 -0.5207 -0.8958 -0.4496
 3489TIP3   OH231881   6.587   4.405   3.118 -0.1503 -0.8624  0.0689
 3489TIP3    H131882   6.498   4.396   3.151 -0.2728 -0.8061 -0.2379
 3489TIP3    H231883   6.639   4.345   3.171 -0.5827 -1.8102 -0.5529
 3490TIP3   OH231884   1.114   6.016  14.480  0.5830 -0.1356  0.2741
 3490TIP3    H131885   1.073   5.930  14.478  2.9603 -1.3821  1.5812
 3490TIP3    H231886   1.095   6.050  14.568 -1.3813  1.2828 -0.6339
 3491TIP3   OH231887   2.723   3.587   2.913 -1.0968  0.1016 -0.0066
 3491TIP3    H131888   2.791   3.641   2.953  0.2115 -2.0330  0.8326
 3491TIP3    H231889   2.747   3.583   2.820 -0.6209  0.1313  0.1108
 3492TIP3   OH231890   3.198   0.220  15.533 -0.3384  0.3091  0.1602
 3492TIP3    H131891   3.252   0.187  15.605 -0.9083  0.1870  0.5344
 3492TIP3    H231892   3.249   0.292  15.496 -0.1198  0.4928  0.8039
 3493TIP3   OH231893   1.334   3.319   0.599 -0.0343 -0.0132 -0.2850
 3493TIP3    H131894   1.358   3.309   0.691 -1.8841 -2.1406  0.0558
 3493TIP3    H231895   1.250   3.364   0.600 -0.2735 -0.4320 -0.8974
 3494TIP3   OH231896   3.602   3.940  14.899  0.2268  0.1048 -0.1690
 3494TIP3    H131897   3.672   3.980  14.951  0.2503 -1.3189  0.9826
 3494TIP3    H231898   3.522   3.984  14.927  0.2196 -0.7387  1.2492
 3495TIP3   OH231899   0.042   2.088  14.123 -0.6607  0.0153 -0.4588
 3495TIP3    H131900  -0.040   2.082  14.076 -0.6244 -0.6358 -0.4442
 3495TIP3    H231901   0.040   2.175  14.164 -1.0910  0.2176 -0.9032
 3496TIP3   OH231902   0.682   1.031  17.081  0.2454  0.4345 -0.1869
 3496TIP3    H131903   0.765   0.994  17.110 -0.2269 -0.3103  0.2462
 3496TIP3    H231904   0.707   1.103  17.023  1.1900  0.3986  0.1552
 3497TIP3   OH231905   4.985   1.794   1.278 -0.4694  0.4273 -0.5830
 3497TIP3    H131906   4.929   1.868   1.299 -0.9863 -0.4710  1.4760
 3497TIP3    H231907   5.024   1.769   1.361 -0.8207 -1.9898 -1.0523
 3498TIP3   OH231908   2.689   4.344  12.928 -0.3735  0.5013 -0.7477
 3498TIP3    H131909   2.703   4.250  12.912  0.4885  0.1667  1.6444
 3498TIP3    H231910   2.594   4.354  12.930 -0.4722 -0.3388 -0.9826
 3499TIP3   OH231911   4.257   5.672  14.361  0.0999 -0.1325  0.4118
 3499TIP3    H131912   4.225   5.740  14.420 -0.9204  0.3696 -0.6872
 3499TIP3    H231913   4.343   5.704  14.333  0.7526 -0.5459  1.8643
 3500TIP3   OH231914   6.162   0.620  15.732 -0.0839 -0.4920  0.0025
 3500TIP3    H131915   6.251   0.643  15.706 -0.4629  0.3910 -0.5696
 3500TIP3    H231916   6.114   0.611  15.650 -1.2205  1.9803  0.2833
 3501TIP3   OH231917   5.022   0.701   5.521 -0.3725 -0.3858  0.4521
 3501TIP3    H131918   5.033   0.688   5.616  0.1241 -1.3412  0.2828
 3501TIP3    H231919   5.110   0.691   5.485 -0.7993 -1.7595 -0.2800
 3502TIP3   OH231920   3.589   5.913  14.425 -0.7788 -0.1202 -0.0434
 3502TIP3    H131921   3.615   5.840  14.369 -1.0748 -1.0600  0.9949
 3502TIP3    H231922   3.563   5.871  14.507  0.2187  1.2445  1.0128
 3503TIP3   OH231923   4.195   6.239   3.110  0.0078 -0.0945  0.2657
 3503TIP3    H131924   4.256   6.295   3.158  0.4257  0.5748 -0.9825
 3503TIP3    H231925   4.232   6.151   3.118  0.5413  0.1426  0.4523
 3504TIP3   OH231926   0.747   3.013  14.283 -0.5565  0.3499 -0.1954
 3504TIP3    H131927   0.816   3.040  14.222 -0.4595  1.1527  0.2484
 3504TIP3    H231928   0.702   2.941  14.238 -0.8039  1.2421 -1.4438
 3505TIP3   OH231929   0.474   0.055   6.382  0.5066 -0.6338  0.5469
 3505TIP3    H131930   0.477   0.053   6.287  1.1510  1.3971  0.4802
 3505TIP3    H231931   0.565   0.044   6.410  0.5109  0.1256  0.8599
 3506TIP3   OH231932   0.705   4.121   0.008  0.7366 -0.6140  0.2172
 3506TIP3    H131933   0.630   4.129   0.067  0.7529 -2.1691  0.5055
 3506TIP3    H231934   0.760   4.054   0.049  0.8712 -1.5648 -1.4364
 3507TIP3   OH231935   0.954   5.059   5.197 -0.3676  0.5126  0.0492
 3507TIP3    H131936   1.024   5.019   5.145  0.2516  0.9292  0.5523
 3507TIP3    H231937   0.877   5.005   5.179  0.2136 -0.2812 -0.0838
 3508TIP3   OH231938   2.420   2.152   4.475 -0.4012 -0.2877  0.2555
 3508TIP3    H131939   2.387   2.238   4.499 -1.2234 -0.4854 -0.1453
 3508TIP3    H231940   2.514   2.166   4.459 -0.5144  0.5114  0.2657
 3509TIP3   OH231941   0.041   0.884   3.918 -0.2593  0.5364  0.1858
 3509TIP3    H131942   0.008   0.955   3.973 -1.8340  0.0650 -0.1209
 3509TIP3    H231943   0.092   0.929   3.850 -2.1910  1.5015 -0.6931
 3510TIP3   OH231944   3.282   4.924  17.028  0.1669 -0.2270  0.4614
 3510TIP3    H131945   3.331   4.881  16.958 -1.2309  0.3414 -0.9012
 3510TIP3    H231946   3.216   4.860  17.054 -0.9056  0.4726 -0.4786
 3511TIP3   OH231947   4.118   2.311  11.320 -0.4042 -0.2415  0.0819
 3511TIP3    H131948   4.206   2.295  11.352  0.1678  0.9032 -0.8325
 3511TIP3    H231949   4.068   2.338  11.397  0.7299  1.6701  0.2157
 3512TIP3   OH231950   1.766   2.253  16.888  0.0552  0.0805 -0.2469
 3512TIP3    H131951   1.737   2.331  16.934 -0.2304  0.1769 -0.5805
 3512TIP3    H231952   1.820   2.286  16.816 -2.9569  0.2851 -2.6291
 3513TIP3   OH231953   3.831   6.635   4.552  0.1245 -0.4478  0.1178
 3513TIP3    H131954   3.760   6.694   4.526  0.0410 -0.4447  0.3490
 3513TIP3    H231955   3.836   6.644   4.648 -0.2367 -1.1984  0.2139
 3514TIP3   OH231956   0.754   4.346   1.807  0.7210 -0.5283  0.1599
 3514TIP3    H131957   0.674   4.377   1.764  1.0479 -1.2387 -1.0245
 3514TIP3    H231958   0.790   4.423   1.849 -0.0404  0.0289 -0.1864
 3515TIP3   OH231959   3.566   1.236   5.978 -0.0462 -0.1197 -0.1341
 3515TIP3    H131960   3.500   1.271   6.038  1.1673  0.2743  1.0205
 3515TIP3    H231961   3.628   1.308   5.966  1.3242 -1.1493  0.5392
 3516TIP3   OH231962   3.409   3.880   0.079 -0.0851 -0.0562  0.5791
 3516TIP3    H131963   3.429   3.911  -0.009  1.0208 -0.8349  0.5395
 3516TIP3    H231964   3.314   3.893   0.088  0.1086  2.0862  0.1123
 3517TIP3   OH231965   6.588   5.689  11.964 -0.2620  0.2724 -0.1487
 3517TIP3    H131966   6.563   5.596  11.963 -0.2934  0.0751  3.4632
 3517TIP3    H231967   6.603   5.711  11.873  0.2424 -3.4300 -1.1314
 3518TIP3   OH231968   0.528   3.877   5.072  0.1682 -0.2369  0.3702
 3518TIP3    H131969   0.558   3.819   5.002 -0.4135 -0.2886  0.1559
 3518TIP3    H231970   0.542   3.826   5.152  1.2125 -0.0200  0.3371
 3519TIP3   OH231971   0.076   4.587   1.344  0.7966 -0.8242  0.6295
 3519TIP3    H131972   0.093   4.563   1.436  2.4857 -0.3282  0.4747
 3519TIP3    H231973   0.089   4.682   1.342 -2.2449 -0.3216  0.4738
 3520TIP3   OH231974   2.198   4.503  12.906  0.8461 -0.3236  0.0345
 3520TIP3    H131975   2.181   4.524  12.998 -0.7187 -1.8599  0.1367
 3520TIP3    H231976   2.139   4.561  12.857  0.4851 -0.6398  0.0875
 3521TIP3   OH231977   3.471   4.364  16.955  0.8306  0.1938 -0.0239
 3521TIP3    H131978   3.524   4.317  16.891 -0.8962 -0.8457 -0.7392
 3521TIP3    H231979   3.499   4.455  16.946  1.1611 -0.0346 -1.7497
 3522TIP3   OH231980   2.690   3.632  12.593  0.4240  0.0051  0.3609
 3522TIP3    H131981   2.644   3.551  12.571  0.5999 -0.2733  0.9859
 3522TIP3    H231982   2.767   3.603  12.643  0.9966  0.4952 -0.2176
 3523TIP3   OH231983   0.311   0.902   5.236  0.3330 -0.8063  0.3398
 3523TIP3    H131984   0.347   0.827   5.188  1.8433  0.1243 -0.0600
 3523TIP3    H231985   0.385   0.934   5.288 -0.3523  0.2571  0.6843
 3524TIP3   OH231986   3.972   3.445   5.805 -0.7118  0.1981  0.2608
 3524TIP3    H131987   3.968   3.521   5.747 -0.3837  1.4153  1.7742
 3524TIP3    H231988   3.885   3.441   5.845 -0.1798  0.8796  1.5158
 3525TIP3   OH231989   6.160   1.489   2.859  0.0575  0.1502  0.1692
 3525TIP3    H131990   6.168   1.585   2.861  0.2975  0.1193  0.6690
 3525TIP3    H231991   6.251   1.458   2.862  0.1578 -0.0672 -2.4397
 3526TIP3   OH231992   5.699   2.122   1.645  0.0529 -0.2269  0.5444
 3526TIP3    H131993   5.637   2.056   1.614 -0.6100  0.0407  1.2740
 3526TIP3    H231994   5.763   2.073   1.697  0.3580 -0.4738 -0.0473
 3527TIP3   OH231995   3.150   6.711   2.194  0.3709  0.6486 -0.4290
 3527TIP3    H131996   3.187   6.727   2.107  0.2115 -1.7322 -1.0084
 3527TIP3    H231997   3.071   6.660   2.178 -0.3772  1.2626  1.0774
 3528TIP3   OH231998   1.237   2.739  10.250  0.2379  0.6715  0.5798
 3528TIP3    H131999   1.331   2.726  10.264 -0.2239 -0.7852  2.9057
 3528TIP3    H232000   1.209   2.792  10.325 -0.8645  0.8220  0.0755
 3529TIP3   OH232001   0.892   3.399   0.430 -0.0127 -0.1421 -0.1597
 3529TIP3    H132002   0.837   3.477   0.426  0.1105 -0.0006  0.7405
 3529TIP3    H232003   0.831   3.327   0.445 -0.0473 -0.1130 -0.1607
 3530TIP3   OH232004   2.276   6.032   1.302 -0.0444 -0.0909  0.7315
 3530TIP3    H132005   2.189   6.071   1.308 -0.9823 -1.8740 -0.2478
 3530TIP3    H232006   2.316   6.075   1.226 -0.8868 -0.6812 -0.0671
 3531TIP3   OH232007   0.688   6.320  16.598  0.1250  0.2037  0.2910
 3531TIP3    H132008   0.649   6.386  16.540  0.7592  0.6798  0.3865
 3531TIP3    H232009   0.628   6.246  16.594 -1.1536  1.1584  0.9828
 3532TIP3   OH232010   0.583   5.474   0.080 -0.0343 -0.0743 -0.1971
 3532TIP3    H132011   0.627   5.391   0.061 -0.4146 -0.6097  1.2221
 3532TIP3    H232012   0.512   5.452   0.140  0.0551  1.3127  0.4610
 3533TIP3   OH232013   0.535   6.019   0.112 -0.4687 -0.4670 -0.1875
 3533TIP3    H132014   0.604   6.023   0.047  0.7894 -0.1571  1.1136
 3533TIP3    H232015   0.540   5.930   0.147  0.4016  0.0309  1.0398
 3534TIP3   OH232016   5.071   3.896   2.983 -0.2546 -0.6780 -0.0784
 3534TIP3    H132017   5.159   3.894   2.945  1.3539  2.3603  2.9137
 3534TIP3    H232018   5.024   3.961   2.930  0.6320  0.5171  0.5379
 3535TIP3   OH232019   5.419   4.627  15.667  0.3354 -0.2600  0.1876
 3535TIP3    H132020   5.337   4.647  15.623 -0.1196  0.6111  1.3814
 3535TIP3    H232021   5.417   4.533  15.680 -0.9943 -0.1230  1.1662
 3536TIP3   OH232022   4.488   1.975   5.323 -0.2950  0.2552 -0.0597
 3536TIP3    H132023   4.439   2.033   5.266 -1.3976 -0.1326  0.4525
 3536TIP3    H232024   4.562   1.945   5.271 -1.7790 -0.8390 -1.6444
 3537TIP3   OH232025   3.752   2.030  11.934  0.1221  0.4380 -0.1410
 3537TIP3    H132026   3.795   2.095  11.990  1.4869  0.1626 -0.8291
 3537TIP3    H232027   3.804   1.950  11.945 -1.7321 -0.6814  0.9532
 3538TIP3   OH232028   3.171   6.240   4.640  0.1312  0.1207  0.0636
 3538TIP3    H132029   3.195   6.328   4.671 -0.0279  0.2479 -0.1695
 3538TIP3    H232030   3.166   6.249   4.545 -1.5996  0.2993  0.1389
 3539TIP3   OH232031   3.298   5.486   5.111  0.2904 -0.3379  0.2839
 3539TIP3    H132032   3.284   5.534   5.192  0.1219  0.4904 -0.2316
 3539TIP3    H232033   3.228   5.515   5.052 -0.5788 -2.1140  0.3503
 3540TIP3   OH232034   2.343   0.896   4.009  0.2501  0.4091 -0.8757
 3540TIP3    H132035   2.262   0.846   4.015  0.6849 -0.1125  2.1809
 3540TIP3    H232036   2.315   0.984   3.984 -1.3595  0.3507  0.5361
 3541TIP3   OH232037   1.518   1.342  14.621  0.9495  0.2633  0.1906
 3541TIP3    H132038   1.558   1.421  14.658  1.3726  1.1842 -2.1015
 3541TIP3    H232039   1.588   1.276  14.627  1.8558  1.0596 -1.0845
 3542TIP3   OH232040   3.059   1.608   3.116 -0.5088 -0.0918 -0.0247
 3542TIP3    H132041   3.065   1.541   3.184 -1.8752  0.2944  0.5030
 3542TIP3    H232042   3.051   1.558   3.034 -1.6789 -0.6011  0.3745
 3543TIP3   OH232043   4.066   3.149  12.477 -0.0785  0.0469 -0.3353
 3543TIP3    H132044   4.129   3.196  12.422 -0.2211  2.1075  1.1700
 3543TIP3    H232045   4.047   3.069  12.428  1.1790  0.9291 -2.3872
 3544TIP3   OH232046   5.274   2.085  11.555  0.0064 -0.5074 -0.1634
 3544TIP3    H132047   5.320   2.155  11.600 -0.1217  0.6276 -1.7510
 3544TIP3    H232048   5.184   2.091  11.588 -0.0851  0.3088 -0.5471
 3545TIP3   OH232049   1.570   2.573  11.702  0.1399 -0.2243  0.0428
 3545TIP3    H132050   1.597   2.664  11.690  0.2197 -0.2130  0.2944
 3545TIP3    H232051   1.562   2.563  11.797  0.8834 -0.6943  0.0722
 3546TIP3   OH232052   0.641   1.189  14.641 -0.2112 -0.0695  0.3304
 3546TIP3    H132053   0.701   1.153  14.707  0.3242  0.3618  0.0919
 3546TIP3    H232054   0.699   1.217  14.570 -0.5326  1.8469  0.7655
 3547TIP3   OH232055   6.117   1.511   2.083  0.4300  0.5071 -0.8893
 3547TIP3    H132056   6.143   1.566   2.156  0.8645 -0.9552  0.1116
 3547TIP3    H232057   6.053   1.563   2.035  1.4469  2.1824 -0.4811
 3548TIP3   OH232058   2.257   2.808   3.240 -0.2433  0.4176 -0.2884
 3548TIP3    H132059   2.294   2.722   3.258 -1.2011 -0.1845 -1.0912
 3548TIP3    H232060   2.238   2.807   3.146 -1.3788  1.0456 -0.0901
 3549TIP3   OH232061   6.141   1.507   1.263  0.2568  0.4487  1.1230
 3549TIP3    H132062   6.217   1.539   1.215  0.5122  0.4858  1.5497
 3549TIP3    H232063   6.114   1.428   1.216  0.4051  0.5779  0.8229
 3550TIP3   OH232064   0.186   6.267   2.319  0.7090  0.2151  0.5755
 3550TIP3    H132065   0.114   6.326   2.338  0.4950  0.8126 -1.7756
 3550TIP3    H232066   0.169   6.237   2.230  1.6825 -2.1535  1.1204
 3551TIP3   OH232067   6.820   4.105  12.401  0.4871  0.4205  0.0947
 3551TIP3    H132068   6.845   4.197  12.396  0.8009  0.3471  0.3451
 3551TIP3    H232069   6.724   4.106  12.398  0.4431  0.8274  1.2853
 3552TIP3   OH232070   3.234   2.020   3.495  0.9491 -0.2367  0.1121
 3552TIP3    H132071   3.298   2.057   3.556  1.8479  1.9750 -2.0021
 3552TIP3    H232072   3.157   2.003   3.549  0.9408  3.5926  1.6052
 3553TIP3   OH232073   2.959   4.960  14.240  0.2643 -0.4839  0.3501
 3553TIP3    H132074   2.944   5.003  14.324  0.4767  1.8989 -0.7557
 3553TIP3    H232075   3.054   4.945  14.238  0.4401  0.5568  0.0857
 3554TIP3   OH232076   2.343   2.778   0.056  0.0743 -0.1700 -0.0770
 3554TIP3    H132077   2.426   2.804   0.096  0.5307  1.1742 -1.7465
 3554TIP3    H232078   2.337   2.833  -0.022 -1.9875 -0.8650 -0.4517
 3555TIP3   OH232079   1.969   4.549  10.764  0.0879 -0.1798 -0.1342
 3555TIP3    H132080   2.034   4.610  10.729 -1.8790  2.1347 -0.0227
 3555TIP3    H232081   1.889   4.566  10.713 -1.1543 -1.0770  1.4061
 3556TIP3   OH232082   5.581   0.373  12.613 -0.7825 -0.7000 -0.0787
 3556TIP3    H132083   5.549   0.288  12.580  0.4468 -1.3957  0.4618
 3556TIP3    H232084   5.613   0.354  12.701 -1.0113  0.4587  0.2709
 3557TIP3   OH232085   0.451   4.525   2.014 -0.0593  0.2737  0.1057
 3557TIP3    H132086   0.544   4.541   2.032 -0.3643  1.4598  0.7617
 3557TIP3    H232087   0.406   4.560   2.091 -0.9657 -1.8891  0.6343
 3558TIP3   OH232088   3.662   0.488   1.645  0.0609  0.1078  0.7047
 3558TIP3    H132089   3.690   0.456   1.559 -3.3842  0.0598 -0.5388
 3558TIP3    H232090   3.703   0.574   1.653  0.6544  0.0107 -0.8905
 3559TIP3   OH232091   6.612   3.708   6.366  0.0885  0.1053  0.3520
 3559TIP3    H132092   6.567   3.703   6.450  2.0526 -0.6904  1.4243
 3559TIP3    H232093   6.553   3.664   6.304 -0.3852 -1.3765  1.7856
 3560TIP3   OH232094   5.832   5.526  12.567 -0.3609 -0.3784  0.5589
 3560TIP3    H132095   5.788   5.453  12.611  0.2707 -0.2194  1.4960
 3560TIP3    H232096   5.913   5.538  12.617 -1.2725  2.1282  1.5563
 3561TIP3   OH232097   0.733   5.405  16.549 -0.2570 -0.0457  0.4279
 3561TIP3    H132098   0.712   5.321  16.590 -2.4641 -0.2296 -0.9152
 3561TIP3    H232099   0.752   5.383  16.457  0.6966  0.7871  0.4028
 3562TIP3   OH232100   5.770   1.051  11.293  0.3273 -0.0999  0.7325
 3562TIP3    H132101   5.841   1.099  11.336  2.4277 -1.1383 -1.3075
 3562TIP3    H232102   5.794   1.053  11.200 -0.7608 -2.9829  0.2987
 3563TIP3   OH232103   2.164   3.831   4.495  0.0140 -0.4349  0.0986
 3563TIP3    H132104   2.182   3.868   4.408  1.5427  0.7755  0.8760
 3563TIP3    H232105   2.218   3.883   4.554 -1.4845 -0.7966  1.8786
 3564TIP3   OH232106   4.563   6.090   3.880  0.7309 -0.3587  0.5208
 3564TIP3    H132107   4.497   6.156   3.860 -0.7976 -1.1813  2.5596
 3564TIP3    H232108   4.624   6.135   3.939  2.6377  0.6571 -1.9838
 3565TIP3   OH232109   1.336   4.907   3.105  0.1231  0.4954  0.6408
 3565TIP3    H132110   1.282   4.899   3.184 -2.2388  1.4225 -0.7427
 3565TIP3    H232111   1.330   4.820   3.064  1.9781 -0.2196  1.7846
 3566TIP3   OH232112   2.659   5.417   3.283  0.3638 -0.1598  0.5270
 3566TIP3    H132113   2.600   5.382   3.350 -1.8070 -0.4057 -1.3930
 3566TIP3    H232114   2.713   5.342   3.257  0.3932 -0.3540  1.1307
 3567TIP3   OH232115   0.975   3.785   1.402 -0.2033 -0.3281  0.4222
 3567TIP3    H132116   0.938   3.697   1.414  0.9236 -0.7956  0.6147
 3567TIP3    H232117   0.924   3.822   1.330 -0.5225 -1.2525  0.1500
 3568TIP3   OH232118   4.307   1.632   2.938 -0.2353  0.5906 -0.1883
 3568TIP3    H132119   4.246   1.596   3.002  0.1953  1.3153  0.6538
 3568TIP3    H232120   4.251   1.669   2.870 -0.6875 -1.1153 -0.7962
 3569TIP3   OH232121   0.501   4.261  14.962  0.1860  0.1278 -0.4611
 3569TIP3    H132122   0.464   4.174  14.971  2.3347 -0.7523  0.6924
 3569TIP3    H232123   0.442   4.318  15.011  1.0769 -1.4472  2.6769
 3570TIP3   OH232124   2.990   1.047  14.502 -0.3797  0.4888 -0.5571
 3570TIP3    H132125   2.999   0.977  14.566 -2.4591  0.7308  0.0733
 3570TIP3    H232126   2.928   1.013  14.438 -2.1271  1.9889  0.2230
 3571TIP3   OH232127   3.327   0.711  12.904  0.3792  0.0376  0.3210
 3571TIP3    H132128   3.353   0.683  12.816  2.3898 -2.2885  1.5530
 3571TIP3    H232129   3.292   0.632  12.945  1.0115  0.6517  2.1500
 3572TIP3   OH232130   6.810   3.654   3.140  0.0522 -0.4849 -0.0059
 3572TIP3    H132131   6.791   3.738   3.182  4.7154 -0.0224  1.8104
 3572TIP3    H232132   6.802   3.671   3.046  0.5585  1.9237  0.3318
 3573TIP3   OH232133   3.949   5.281   0.462  0.0959 -0.4678  0.0675
 3573TIP3    H132134   3.951   5.336   0.541 -1.0218 -1.3818  0.7528
 3573TIP3    H232135   3.971   5.342   0.391  1.1826  0.3636  1.0735
 3574TIP3   OH232136   0.806   2.214  10.315 -0.1656  0.7837 -0.0629
 3574TIP3    H132137   0.712   2.222  10.297 -0.3231 -0.2683  0.2168
 3574TIP3    H232138   0.847   2.230  10.230 -0.7491 -1.0591 -0.7700
 3575TIP3   OH232139   2.623   0.406  16.846 -0.3646  0.3722  0.4797
 3575TIP3    H132140   2.719   0.402  16.849 -0.3672  0.4172  3.2631
 3575TIP3    H232141   2.603   0.500  16.849 -0.4804  0.3476  0.4640
 3576TIP3   OH232142   0.862   5.348  14.558  0.6350 -0.7756 -0.0053
 3576TIP3    H132143   0.923   5.417  14.530  1.0443 -1.6147 -1.2570
 3576TIP3    H232144   0.915   5.269  14.561  0.2610 -0.9898  1.8572
 3577TIP3   OH232145   2.587   0.192  13.768 -0.0378 -0.3358 -0.0943
 3577TIP3    H132146   2.677   0.178  13.740 -0.0861  1.7228 -1.4300
 3577TIP3    H232147   2.589   0.276  13.814 -1.1504 -0.6068  0.4761
 3578TIP3   OH232148   1.673   4.486   0.832  0.0304 -0.2584  0.3351
 3578TIP3    H132149   1.578   4.488   0.847 -0.5376 -2.1708 -2.4046
 3578TIP3    H232150   1.708   4.442   0.909 -1.2566  0.5164  1.4156
 3579TIP3   OH232151   6.252   1.020   2.319 -0.5728  0.3348 -0.0809
 3579TIP3    H132152   6.269   1.111   2.294 -0.4215  0.0461 -1.1064
 3579TIP3    H232153   6.229   0.977   2.236  1.9156 -1.1488 -0.1177
 3580TIP3   OH232154   0.631   0.848   0.346  0.1095  0.2353  0.0624
 3580TIP3    H132155   0.651   0.839   0.439 -0.5408 -2.7678  0.0266
 3580TIP3    H232156   0.704   0.806   0.301 -1.3968 -1.9729 -0.5032
 3581TIP3   OH232157   2.418   0.664   0.037  0.0190  0.0673  0.6534
 3581TIP3    H132158   2.354   0.729   0.066  0.0843 -0.3400  1.7558
 3581TIP3    H232159   2.369   0.582   0.035  0.4183 -0.1805  1.1341
 3582TIP3   OH232160   2.876   3.434   1.080  0.1326  0.2730 -0.2764
 3582TIP3    H132161   2.942   3.372   1.048 -0.2938 -1.6336  2.1870
 3582TIP3    H232162   2.908   3.460   1.167 -1.6731  0.3146  0.4242
 3583TIP3   OH232163   0.835   6.507   2.482 -0.0315  0.0270 -0.0111
 3583TIP3    H132164   0.756   6.559   2.468 -0.3276 -0.8105 -1.7263
 3583TIP3    H232165   0.803   6.425   2.520 -0.1921 -0.8335 -1.9103
 3584TIP3   OH232166   5.987   4.136   5.841  0.6513 -0.1507  0.2598
 3584TIP3    H132167   5.966   4.220   5.882 -1.1326 -0.5973  0.3592
 3584TIP3    H232168   5.911   4.080   5.861  2.6036 -2.4530  1.9223
 3585TIP3   OH232169   4.990   1.288  15.657 -0.5335 -0.6074 -0.0749
 3585TIP3    H132170   5.054   1.217  15.651 -0.5515 -0.6325  0.0254
 3585TIP3    H232171   4.972   1.296  15.751 -0.1428 -0.1207 -0.0409
 3586TIP3   OH232172   0.665   1.334  14.150 -0.6898  0.3531  0.2946
 3586TIP3    H132173   0.614   1.254  14.141 -0.4377  0.3500 -1.3816
 3586TIP3    H232174   0.682   1.341  14.244 -1.4163 -1.1079  0.5621
 3587TIP3   OH232175   0.742   2.286   2.735 -0.2350 -0.4833 -0.0367
 3587TIP3    H132176   0.714   2.301   2.825  0.4345 -1.3518  0.3304
 3587TIP3    H232177   0.837   2.296   2.738 -0.1897 -0.7142 -0.6159
 3588TIP3   OH232178   6.088   5.774   0.461 -0.3786 -0.9452 -0.0331
 3588TIP3    H132179   6.152   5.841   0.486 -0.4754 -0.3857 -1.2168
 3588TIP3    H232180   6.010   5.796   0.512 -0.1569 -0.6138  0.1674
 3589TIP3   OH232181   3.680   3.442  11.329 -0.2664  0.0436 -0.5802
 3589TIP3    H132182   3.675   3.450  11.234 -1.4620  2.8790 -0.3741
 3589TIP3    H232183   3.772   3.458  11.350 -0.1838  0.3951 -1.1906
 3590TIP3   OH232184   4.413   0.994  10.515  0.8257  0.2262  0.2175
 3590TIP3    H132185   4.380   1.051  10.445 -1.1979  0.2304  1.1236
 3590TIP3    H232186   4.446   0.917  10.469  0.9321  0.8714 -0.8268
 3591TIP3   OH232187   4.029   4.804  15.458  0.2199  0.1755 -0.0793
 3591TIP3    H132188   3.965   4.856  15.411 -0.2652  1.1594  1.5953
 3591TIP3    H232189   4.061   4.861  15.528  0.6274 -1.3318  1.0307
 3592TIP3   OH232190   5.355   1.879   1.191 -0.6895 -0.3879  0.4957
 3592TIP3    H132191   5.359   1.808   1.255  1.7073  2.7085  4.2375
 3592TIP3    H232192   5.296   1.943   1.231 -1.1541  0.6214 -1.7015
 3593TIP3   OH232193   5.714   0.283  14.329 -0.3669  0.4139 -0.0765
 3593TIP3    H132194   5.739   0.196  14.358 -1.5039 -0.1361 -0.6471
 3593TIP3    H232195   5.796   0.328  14.311  0.3049  0.0415  1.7958
 3594TIP3   OH232196   1.491   1.720   5.450  1.1175 -0.4825  0.9318
 3594TIP3    H132197   1.547   1.727   5.527 -0.8743 -0.1545  2.4576
 3594TIP3    H232198   1.496   1.805   5.408  0.0408  0.3648  2.3934
 3595TIP3   OH232199   1.979   1.317   5.177  0.0754 -0.1524 -0.3127
 3595TIP3    H132200   1.917   1.274   5.235  1.1237 -2.6543 -0.8943
 3595TIP3    H232201   1.931   1.329   5.095  0.1278 -1.5589 -0.5777
 3596TIP3   OH232202   1.048   5.128  13.446  0.1823  0.5682 -0.0118
 3596TIP3    H132203   0.995   5.055  13.417  3.0431 -2.1193  0.9014
 3596TIP3    H232204   1.101   5.151  13.370 -0.1143  1.1365 -0.0503
 3597TIP3   OH232205   4.014   4.764   2.104 -0.4071  0.0396  1.2065
 3597TIP3    H132206   4.087   4.780   2.164 -0.7577  0.0812  1.6256
 3597TIP3    H232207   3.950   4.716   2.156 -0.5222 -0.3228  0.7346
 3598TIP3   OH232208   2.860   3.502   5.318  0.2097  0.0939  0.1217
 3598TIP3    H132209   2.769   3.473   5.319  0.5118 -0.9139 -0.4088
 3598TIP3    H232210   2.864   3.571   5.385 -0.7944 -0.2789  0.5795
 3599TIP3   OH232211   1.911   2.841  12.979  0.3343  0.2915  0.4203
 3599TIP3    H132212   1.921   2.779  12.907 -0.4303  0.8431 -0.1732
 3599TIP3    H232213   1.858   2.912  12.943 -1.5128 -0.1945  1.9822
 3600TIP3   OH232214   2.918   2.786   5.765 -0.5526  0.1706  0.3540
 3600TIP3    H132215   2.980   2.827   5.826  1.8221 -0.9656 -1.1056
 3600TIP3    H232216   2.888   2.708   5.811  1.1059 -0.6050  0.2095
 3601TIP3   OH232217   5.448   6.195  11.600  0.0074 -0.3034 -0.7545
 3601TIP3    H132218   5.475   6.106  11.575 -1.3494 -0.7641 -0.6702
 3601TIP3    H232219   5.525   6.232  11.643  2.0723  0.0939 -4.3980
 3602TIP3   OH232220   1.744   5.719  12.166 -0.3096 -0.2680 -0.0181
 3602TIP3    H132221   1.812   5.725  12.232 -1.1624  1.3184  0.7870
 3602TIP3    H232222   1.785   5.674  12.092  2.4574  2.7716 -0.5479
 3603TIP3   OH232223   1.075   1.087  16.204  0.1186  0.1194 -0.5408
 3603TIP3    H132224   1.153   1.080  16.151 -0.6169 -1.5087 -1.4831
 3603TIP3    H232225   1.005   1.106  16.142 -0.2565  1.5761  0.2900
 3604TIP3   OH232226   5.425   2.759  10.807  0.5797 -0.8629 -0.6794
 3604TIP3    H132227   5.373   2.813  10.867  1.6962 -1.6477  1.0874
 3604TIP3    H232228   5.464   2.821  10.746  1.6616  0.3483  1.1636
 3605TIP3   OH232229   6.401   0.011   4.233 -0.3019 -0.2197 -0.4727
 3605TIP3    H132230   6.457  -0.060   4.201  1.9350  1.0940  0.3133
 3605TIP3    H232231   6.460   0.085   4.243 -1.6994  0.6320  2.6580
 3606TIP3   OH232232   5.716   4.634  15.614  0.0022  0.3010  0.2115
 3606TIP3    H132233   5.626   4.621  15.643  0.1916 -2.1208 -0.1049
 3606TIP3    H232234   5.715   4.613  15.520  0.9364  0.0570  0.2462
 3607TIP3   OH232235   2.071   3.440   1.619  0.4995 -0.2444  0.0773
 3607TIP3    H132236   1.988   3.446   1.570  0.4086 -2.0511 -0.0699
 3607TIP3    H232237   2.044   3.421   1.709  0.7346 -0.2721  0.1413
 3608TIP3   OH232238   1.518   6.769   2.146  0.1525 -0.0068 -0.2307
 3608TIP3    H132239   1.554   6.738   2.063  0.6717 -1.3056  0.4589
 3608TIP3    H232240   1.443   6.712   2.164 -0.3547  0.6714 -0.1000
 3609TIP3   OH232241   4.830   1.698  10.465 -0.2040 -0.3912  0.2576
 3609TIP3    H132242   4.903   1.744  10.507  0.9546 -1.1295 -0.8965
 3609TIP3    H232243   4.823   1.616  10.513  0.4869 -0.8144 -0.3508
 3610TIP3   OH232244   6.003   5.617  14.293  0.0518  0.0181 -0.1432
 3610TIP3    H132245   6.068   5.553  14.323  3.3004  2.7604 -0.7513
 3610TIP3    H232246   5.995   5.601  14.199  0.3335  0.0474 -0.1743
 3611TIP3   OH232247   2.840   0.965   3.202 -0.1304 -0.0412  0.3583
 3611TIP3    H132248   2.821   1.003   3.288 -2.1572 -0.7924  0.3088
 3611TIP3    H232249   2.819   0.872   3.212 -1.1020 -0.0223 -1.1074
 3612TIP3   OH232250   6.184   0.095  15.242 -0.4405  0.0530  0.0882
 3612TIP3    H132251   6.213   0.140  15.162 -0.3573  1.7208  1.0129
 3612TIP3    H232252   6.259   0.039  15.265 -0.4586 -0.4467 -0.9614
 3613TIP3   OH232253   1.735   1.510  10.466 -0.5537 -0.0964  0.5657
 3613TIP3    H132254   1.654   1.470  10.436 -0.4171  0.4450 -0.5657
 3613TIP3    H232255   1.800   1.440  10.457 -0.0145  0.6390 -2.7674
 3614TIP3   OH232256   6.611   0.061  16.031 -0.2555 -0.3894 -0.1557
 3614TIP3    H132257   6.645  -0.017  16.075  0.5602 -0.0315 -0.1467
 3614TIP3    H232258   6.653   0.134  16.075 -1.6552  0.1179  0.4088
 3615TIP3   OH232259   1.346   5.615  12.612 -0.2402  0.4506 -0.0818
 3615TIP3    H132260   1.363   5.537  12.665  0.7256  1.1218  0.6324
 3615TIP3    H232261   1.264   5.651  12.647 -0.7810 -0.3283 -0.5325
 3616TIP3   OH232262   0.803   6.422  12.376 -0.1300 -0.2167  0.1269
 3616TIP3    H132263   0.721   6.414  12.327  0.4917 -1.7059 -0.7068
 3616TIP3    H232264   0.861   6.357  12.338  1.0194 -0.1002  1.5886
 3617TIP3   OH232265   6.486   6.072  15.947 -0.2912  0.1464 -0.4271
 3617TIP3    H132266   6.500   6.100  16.037 -1.0783  0.4727 -0.3989
 3617TIP3    H232267   6.405   6.020  15.950 -0.8205  0.9197 -1.0918
 3618TIP3   OH232268   3.883   5.639   5.756  0.2984  0.3302  0.5542
 3618TIP3    H132269   3.967   5.632   5.710  0.4790  0.6966  0.8226
 3618TIP3    H232270   3.899   5.603   5.843 -0.4677 -1.9114 -0.1483
 3619TIP3   OH232271   3.986   5.665  10.953  0.1047  0.4197  0.1825
 3619TIP3    H132272   3.994   5.665  11.048  0.1965 -0.8956  0.1993
 3619TIP3    H232273   4.071   5.694  10.921 -0.5278  2.7872  0.4914
 3620TIP3   OH232274   1.726   0.198   3.025  0.0585 -0.3800 -0.1719
 3620TIP3    H132275   1.731   0.198   3.121  1.6959 -1.3523 -0.2142
 3620TIP3    H232276   1.745   0.288   3.000  0.4229 -0.2893  0.3994
 3621TIP3   OH232277   5.155   6.335  17.042 -0.3697  0.8474  0.6232
 3621TIP3    H132278   5.108   6.359  16.962 -0.0742  0.5039  0.3396
 3621TIP3    H232279   5.218   6.269  17.013  2.8066  3.7457  0.2037
 3622TIP3   OH232280   1.163   1.520  15.626  0.4409 -0.0541  0.2036
 3622TIP3    H132281   1.191   1.466  15.552 -0.7903 -0.1198 -0.2378
 3622TIP3    H232282   1.201   1.478  15.703 -1.1734 -2.1098 -0.0197
 3623TIP3   OH232283   1.616   1.181  16.207 -0.0647  0.0495 -0.7921
 3623TIP3    H132284   1.607   1.253  16.269  0.2364 -0.0659 -0.6139
 3623TIP3    H232285   1.709   1.178  16.187  0.3876 -1.8841  1.1365
 3624TIP3   OH232286   1.031   1.645  16.240 -0.5482 -0.4017  0.1271
 3624TIP3    H132287   0.983   1.714  16.194 -1.0728 -1.0703 -0.3490
 3624TIP3    H232288   1.098   1.617  16.179  1.4105  1.4536  1.2724
 3625TIP3   OH232289   0.323   4.412   0.421 -0.3380  0.0083 -0.7948
 3625TIP3    H132290   0.409   4.394   0.459 -0.4182 -0.3632 -0.7885
 3625TIP3    H232291   0.311   4.506   0.433  0.9971  0.4950 -2.6844
 3626TIP3   OH232292   0.475   3.444  13.931  0.7229  0.4018  0.6830
 3626TIP3    H132293   0.558   3.491  13.929  0.7365  0.3891  0.9295
 3626TIP3    H232294   0.409   3.513  13.944  0.7379  0.3606  0.9850
 3627TIP3   OH232295   0.053   4.576   3.861  0.0810 -0.2686 -0.1953
 3627TIP3    H132296   0.075   4.498   3.810 -0.9072  0.0052 -1.0784
 3627TIP3    H232297   0.074   4.649   3.804  3.5212  0.3249  1.5643
 3628TIP3   OH232298   6.225   2.726   3.529 -0.1371 -0.4936  0.0035
 3628TIP3    H132299   6.256   2.650   3.480 -0.0444  0.1940 -1.0329
 3628TIP3    H232300   6.135   2.737   3.501  0.0802  0.2282 -0.4266
 3629TIP3   OH232301   3.932   3.986  10.509 -0.6257  0.2472  0.8219
 3629TIP3    H132302   4.012   4.015  10.552 -0.3382  0.6964  0.0048
 3629TIP3    H232303   3.950   3.994  10.416 -1.0955 -1.0818  0.5887
 3630TIP3   OH232304   3.105   0.337  11.076 -0.3474 -0.1144  0.2819
 3630TIP3    H132305   3.030   0.388  11.107 -0.4109 -0.1636  0.2078
 3630TIP3    H232306   3.140   0.296  11.155 -1.5880 -1.6985  0.0609
 3631TIP3   OH232307   2.779   4.997  14.999 -0.3179 -0.2870  0.0699
 3631TIP3    H132308   2.763   4.943  14.922 -1.7458 -0.7118  0.6417
 3631TIP3    H232309   2.726   4.958  15.068  0.8035  0.1864  1.2494
 3632TIP3   OH232310   5.353   5.992  14.873 -0.2015  0.2606  0.1430
 3632TIP3    H132311   5.297   6.052  14.823 -1.0520  0.8331  1.6931
 3632TIP3    H232312   5.426   6.047  14.903 -0.3776  0.2529  0.5952
 3633TIP3   OH232313   1.760   0.629   5.513  0.1481  0.3321 -0.1663
 3633TIP3    H132314   1.667   0.605   5.516  0.2570 -0.1686 -0.6783
 3633TIP3    H232315   1.787   0.627   5.605 -0.1916 -0.1675 -0.0687
 3634TIP3   OH232316   0.214   2.328  16.037 -0.2236  0.2716 -0.6487
 3634TIP3    H132317   0.121   2.304  16.046 -0.3145  1.0610  0.8131
 3634TIP3    H232318   0.261   2.250  16.065 -0.5134  1.0237  2.3136
 3635TIP3   OH232319   5.073   6.819  12.163  0.1242 -0.8005 -0.2388
 3635TIP3    H132320   4.978   6.810  12.152  0.2406 -0.2017 -2.2054
 3635TIP3    H232321   5.101   6.736  12.202 -1.1088 -1.3183 -0.4033
 3636TIP3   OH232322   5.123   6.786  12.652  0.5001  0.0200 -0.3241
 3636TIP3    H132323   5.114   6.762  12.744 -1.8831  2.2891  0.1626
 3636TIP3    H232324   5.213   6.763  12.630  1.8832  1.2738  3.2076
 3637TIP3   OH232325   2.530   2.249   6.189 -0.5906 -0.5415  0.0250
 3637TIP3    H132326   2.529   2.154   6.177  0.1487 -0.4450 -0.9056
 3637TIP3    H232327   2.461   2.281   6.132 -0.3594 -0.4694 -0.2172
 3638TIP3   OH232328   4.912   3.717  13.687  0.3237 -0.1664 -0.1659
 3638TIP3    H132329   4.892   3.633  13.646 -0.3520 -0.2201  0.2665
 3638TIP3    H232330   4.901   3.701  13.781 -2.0321  0.9784 -0.1862
 3639TIP3   OH232331   4.167   6.785   3.735 -0.3298 -0.2266  0.0105
 3639TIP3    H132332   4.137   6.710   3.785 -0.6578 -2.1628 -2.8791
 3639TIP3    H232333   4.263   6.780   3.739 -0.3571 -0.0923  0.8070
 3640TIP3   OH232334   4.751   4.624  13.308  0.4617 -0.4976  0.2893
 3640TIP3    H132335   4.789   4.570  13.238 -0.3135 -1.1834  0.3849
 3640TIP3    H232336   4.818   4.690  13.326  1.3979 -1.3697  0.1016
 3641TIP3   OH232337   0.751   0.810  15.668  0.0965  0.6005  0.1130
 3641TIP3    H132338   0.843   0.785  15.679  0.2771  1.2704  0.2065
 3641TIP3    H232339   0.720   0.757  15.594  0.2706 -0.3552  0.7078
 3642TIP3   OH232340   1.837   0.138  13.828  0.3160  0.0777  0.1898
 3642TIP3    H132341   1.774   0.119  13.898  0.6160 -1.5132  0.0487
 3642TIP3    H232342   1.920   0.150  13.873  0.2120  0.6935  0.2344
 3643TIP3   OH232343   0.735   0.254   3.470 -0.2699  0.3566  0.6253
 3643TIP3    H132344   0.661   0.302   3.507 -1.6952 -0.9657 -0.3770
 3643TIP3    H232345   0.809   0.313   3.480 -1.3807  1.6030  1.9611
 3644TIP3   OH232346   2.475   2.689   0.713  0.8420 -0.0188  0.3302
 3644TIP3    H132347   2.403   2.643   0.758  0.6963 -0.3292 -0.2162
 3644TIP3    H232348   2.551   2.633   0.727  1.0767  0.5158  1.2628
 3645TIP3   OH232349   2.917   3.589   3.865 -0.2300 -0.0374 -0.3643
 3645TIP3    H132350   2.937   3.590   3.771  1.0753  1.3096 -0.1173
 3645TIP3    H232351   2.952   3.672   3.897 -2.0071  0.2130  1.0665
 3646TIP3   OH232352   1.520   0.074   5.240 -0.2566 -0.7277  0.3160
 3646TIP3    H132353   1.607   0.046   5.268 -0.1365 -0.0761  0.6170
 3646TIP3    H232354   1.473   0.094   5.322 -0.4532 -0.4121  0.1304
 3647TIP3   OH232355   2.631   2.901  13.980 -0.0582 -0.0268  0.0255
 3647TIP3    H132356   2.589   2.975  13.937  0.9148  1.4277  1.4533
 3647TIP3    H232357   2.724   2.922  13.980  0.4043 -1.8830 -0.6574
 3648TIP3   OH232358   0.428   5.520  16.840  0.0618 -0.5281  0.0728
 3648TIP3    H132359   0.410   5.535  16.933 -1.2963 -2.1769  0.1313
 3648TIP3    H232360   0.341   5.513  16.800  0.6275 -0.1704 -1.2828
 3649TIP3   OH232361   4.264   1.458  14.015  0.0694 -0.0801 -0.6087
 3649TIP3    H132362   4.234   1.549  14.014  1.8979  0.7464  2.8949
 3649TIP3    H232363   4.221   1.420  14.091  1.8495 -1.1137 -0.0573
 3650TIP3   OH232364   0.633   0.789  13.867 -0.6380 -0.4832 -0.3698
 3650TIP3    H132365   0.548   0.789  13.823 -0.5152  1.8071 -0.7644
 3650TIP3    H232366   0.615   0.826  13.953  0.0405  0.9472 -0.8005
 3651TIP3   OH232367   1.085   2.568   1.780 -0.1380 -0.3225 -0.3426
 3651TIP3    H132368   1.047   2.656   1.780 -1.1715 -0.7372  0.9698
 3651TIP3    H232369   1.135   2.564   1.699 -1.9040  0.7157 -1.5667
 3652TIP3   OH232370   4.348   6.715   0.084  0.0065  0.5440 -0.0737
 3652TIP3    H132371   4.415   6.674   0.139 -0.4633 -0.0811  0.0428
 3652TIP3    H232372   4.266   6.676   0.113 -0.4183  1.3316 -0.1921
 3653TIP3   OH232373   6.575   3.913   3.900  0.1571 -0.2010 -0.3133
 3653TIP3    H132374   6.621   3.950   3.976 -0.7175  0.2493  0.0094
 3653TIP3    H232375   6.532   3.988   3.859 -0.4522 -0.6429 -0.4921
 3654TIP3   OH232376   2.615   6.199   2.653 -0.3603 -0.0932 -0.0269
 3654TIP3    H132377   2.591   6.172   2.742  1.0070 -0.8810  0.1344
 3654TIP3    H232378   2.537   6.182   2.601  0.2819 -4.3386  0.0791
 3655TIP3   OH232379   3.243   1.081  14.929 -0.0145  0.8053 -0.6349
 3655TIP3    H132380   3.290   1.100  15.010  0.7303  2.7727 -1.4557
 3655TIP3    H232381   3.284   1.002  14.895  3.2926  2.7584 -1.6300
 3656TIP3   OH232382   0.718   2.533  16.875 -0.0027  0.3819 -0.1860
 3656TIP3    H132383   0.769   2.455  16.851 -1.9674 -0.6740 -1.1339
 3656TIP3    H232384   0.674   2.559  16.794 -0.2410  1.8495  0.3868
 3657TIP3   OH232385   4.071   0.529  16.728  0.2371 -0.0989 -0.4896
 3657TIP3    H132386   4.135   0.471  16.687  0.2235  1.4000 -2.7941
 3657TIP3    H232387   4.006   0.470  16.766  1.9088 -1.6096  0.1685
 3658TIP3   OH232388   4.577   5.984   2.348 -0.4008  0.5440 -0.1294
 3658TIP3    H132389   4.650   6.045   2.351 -1.7338  2.2170 -0.0758
 3658TIP3    H232390   4.597   5.926   2.274 -0.3092  2.7172 -1.8983
 3659TIP3   OH232391   1.486   6.434   1.239  0.2570  0.5313 -0.2651
 3659TIP3    H132392   1.539   6.433   1.158  0.7571 -1.9740  0.0311
 3659TIP3    H232393   1.551   6.431   1.309 -0.2398 -0.3263  0.1594
 3660TIP3   OH232394   1.078   3.859   3.097  0.8984  0.0622  0.1813
 3660TIP3    H132395   1.139   3.788   3.116 -1.1295 -1.2852  2.2741
 3660TIP3    H232396   1.127   3.939   3.116  2.4622 -0.8699  0.2254
 3661TIP3   OH232397   2.152   2.628   5.720  0.6401  0.6621 -0.5452
 3661TIP3    H132398   2.138   2.599   5.630 -3.6097  0.6967 -0.1047
 3661TIP3    H232399   2.146   2.549   5.773  1.3016  0.8788 -0.1262
 3662TIP3   OH232400   3.192   0.756  13.635  0.3924 -0.0390  0.0391
 3662TIP3    H132401   3.113   0.752  13.688  1.3998 -0.9635  1.5501
 3662TIP3    H232402   3.201   0.848  13.611 -1.6192 -0.0592 -0.9683
 3663TIP3   OH232403   6.745   1.403   2.878 -0.0784 -0.3891 -0.0260
 3663TIP3    H132404   6.722   1.469   2.813 -0.9689  0.4222  1.0768
 3663TIP3    H232405   6.770   1.326   2.827  0.1880  0.5267 -1.3263
 3664TIP3   OH232406   1.804   2.058   3.037 -0.2232 -0.0710  0.0460
 3664TIP3    H132407   1.779   2.052   2.945  0.1201 -0.1906 -0.0420
 3664TIP3    H232408   1.900   2.054   3.036 -0.2350 -0.7322  0.4498
 3665TIP3   OH232409   3.948   1.153  13.623 -0.2726 -0.4966 -0.0258
 3665TIP3    H132410   4.021   1.210  13.599 -0.3192 -0.7542 -0.8186
 3665TIP3    H232411   3.906   1.132  13.540 -1.8090  0.3714  0.4938
 3666TIP3   OH232412   0.242   0.778  15.815  0.5741 -0.0860  0.2651
 3666TIP3    H132413   0.258   0.872  15.801  0.3294 -0.0584  0.1553
 3666TIP3    H232414   0.147   0.769  15.802  0.6370 -0.3932  0.0234
 3667TIP3   OH232415   1.431   0.024  14.799 -0.1072  0.3500  0.5425
 3667TIP3    H132416   1.381  -0.024  14.865 -0.6124 -0.0881 -0.1398
 3667TIP3    H232417   1.364   0.072  14.749  0.2323  0.4130  0.1398
 3668TIP3   OH232418   5.414   4.705  16.598 -0.2864 -0.1611 -0.2234
 3668TIP3    H132419   5.450   4.794  16.594  0.8582 -0.6444 -0.8463
 3668TIP3    H232420   5.468   4.654  16.538 -0.5243 -1.4323  0.6206
 3669TIP3   OH232421   3.238   5.209  14.243  0.0447  0.0049  0.4408
 3669TIP3    H132422   3.192   5.201  14.159  1.6565 -4.2683 -0.2868
 3669TIP3    H232423   3.325   5.242  14.219 -0.2974  1.2462  0.8458
 3670TIP3   OH232424   5.069   0.593  14.778 -0.4619 -0.1229  0.2624
 3670TIP3    H132425   4.998   0.612  14.841 -0.7724  1.4340 -0.5119
 3670TIP3    H232426   5.052   0.652  14.705  0.9071 -0.6740 -0.5268
 3671TIP3   OH232427   0.464   4.074   5.327 -0.3956 -0.5548  0.2551
 3671TIP3    H132428   0.487   4.122   5.247  1.5326  0.4471  1.3219
 3671TIP3    H232429   0.392   4.017   5.301 -1.0107  1.0008 -1.7503
 3672TIP3   OH232430   0.107   3.050  15.976  0.6323 -0.4155  0.3859
 3672TIP3    H132431   0.106   3.005  16.061 -0.9444 -0.1740  0.5302
 3672TIP3    H232432   0.036   3.115  15.983  0.0458 -0.8318 -1.3276
 3673TIP3   OH232433   6.190   3.482   2.637  0.7601  0.6803  0.0921
 3673TIP3    H132434   6.096   3.470   2.647  0.6222  1.1394 -0.5485
 3673TIP3    H232435   6.228   3.397   2.659  0.0097 -0.2452 -1.9135
 3674TIP3   OH232436   2.555   5.943   3.961  0.1900 -0.1804 -0.1873
 3674TIP3    H132437   2.549   6.009   3.892  1.1365  0.9719  0.8012
 3674TIP3    H232438   2.648   5.925   3.970 -0.0362 -1.5533 -0.3173
 3675TIP3   OH232439   2.563   0.325  11.771 -0.3643  0.2514 -0.1575
 3675TIP3    H132440   2.507   0.374  11.831 -0.5951  2.4184 -2.0255
 3675TIP3    H232441   2.614   0.392  11.725  1.7375 -1.4858 -0.5440
 3676TIP3   OH232442   0.383   4.676  11.793 -0.1933  0.1096  0.1256
 3676TIP3    H132443   0.437   4.616  11.742 -0.7047 -0.0872 -0.2032
 3676TIP3    H232444   0.428   4.760  11.789  0.6669 -0.3122  0.8079
 3677TIP3   OH232445   0.172   1.802   5.279  0.5422  0.2481 -0.0172
 3677TIP3    H132446   0.236   1.754   5.332  0.4643 -1.0592 -1.0426
 3677TIP3    H232447   0.119   1.850   5.342 -0.2769 -2.1205  1.2231
 3678TIP3   OH232448   5.441   2.488   3.529  0.0075  0.3151 -0.1298
 3678TIP3    H132449   5.473   2.397   3.527  0.0656  0.3321 -2.1656
 3678TIP3    H232450   5.375   2.488   3.598 -1.1486 -1.7098 -1.1284
 3679TIP3   OH232451   0.400   4.587  13.594 -0.6963 -0.0575  0.3148
 3679TIP3    H132452   0.318   4.559  13.635 -0.9087  0.5633  0.3378
 3679TIP3    H232453   0.468   4.564  13.657 -0.7793 -1.1242  0.0366
 3680TIP3   OH232454   0.680   2.488   1.610  0.1899  0.2389  0.7286
 3680TIP3    H132455   0.651   2.461   1.523 -0.2835 -0.5691  1.1250
 3680TIP3    H232456   0.651   2.417   1.668  1.5410  0.1928  1.3784
 3681TIP3   OH232457   2.493   0.197  12.877  0.2943  0.4187 -0.0428
 3681TIP3    H132458   2.477   0.214  12.970  0.4551  0.2127  0.0214
 3681TIP3    H232459   2.555   0.125  12.876 -0.5182 -0.2896 -0.3204
 3682TIP3   OH232460   6.159   4.213  12.123 -0.0936  0.5614  0.1911
 3682TIP3    H132461   6.238   4.222  12.069 -0.3452 -1.9145 -0.7004
 3682TIP3    H232462   6.180   4.257  12.205  2.8970 -1.4622  0.6435
 3683TIP3   OH232463   6.151   1.590  11.673 -0.1283  0.2355  1.0832
 3683TIP3    H132464   6.239   1.557  11.660 -0.1376  0.0822  1.3847
 3683TIP3    H232465   6.152   1.678  11.637  0.1617  0.2507  1.1303
 3684TIP3   OH232466   5.732   0.531   5.077  0.1701 -0.3894 -0.0701
 3684TIP3    H132467   5.777   0.515   4.995 -1.4002  0.0743 -1.0749
 3684TIP3    H232468   5.660   0.590   5.054  1.1018  1.7549  2.0622
 3685TIP3   OH232469   4.059   2.234   1.363  0.1466  0.9796  0.0080
 3685TIP3    H132470   4.092   2.309   1.413  0.3462  0.9905 -0.1390
 3685TIP3    H232471   4.103   2.241   1.278  0.0889  0.7517 -0.0401
 3686TIP3   OH232472   0.928   2.999   5.637  0.2422 -0.0903  0.3989
 3686TIP3    H132473   0.895   2.921   5.683  1.1934 -0.1921  0.9261
 3686TIP3    H232474   1.019   2.978   5.617  0.2081  0.4861 -0.3766
 3687TIP3   OH232475   5.638   5.340  13.145 -0.2380  0.3149 -0.3325
 3687TIP3    H132476   5.658   5.281  13.217 -0.3396 -1.2584 -1.5205
 3687TIP3    H232477   5.722   5.380  13.122 -0.4633  2.0631  1.6155
 3688TIP3   OH232478   0.170   6.709   3.552 -0.2177  0.1194 -0.5444
 3688TIP3    H132479   0.212   6.755   3.625 -0.2841 -1.0624  0.2565
 3688TIP3    H232480   0.081   6.746   3.549 -0.2781  0.0395  0.0990
 3689TIP3   OH232481   2.122   3.369   0.450  0.5926  0.2821  0.2585
 3689TIP3    H132482   2.026   3.367   0.453  0.5901 -1.5262  0.0488
 3689TIP3    H232483   2.145   3.308   0.379  1.8965  0.9363  0.0892
 3690TIP3   OH232484   1.331   6.533  16.087 -0.0759  0.6924  0.8591
 3690TIP3    H132485   1.408   6.495  16.130  0.4691  1.3141  0.4549
 3690TIP3    H232486   1.287   6.459  16.046  1.4737  0.5670 -0.7210
 3691TIP3   OH232487   5.804   2.364   4.885 -0.3325  0.0938  0.8607
 3691TIP3    H132488   5.800   2.287   4.941 -0.9732 -0.0892  0.5738
 3691TIP3    H232489   5.805   2.438   4.946 -1.8249 -0.0739  1.1196
 3692TIP3   OH232490   5.015   0.097   2.857  0.4753 -0.3105 -0.2044
 3692TIP3    H132491   4.967   0.158   2.800 -0.8730 -0.7835  0.3850
 3692TIP3    H232492   5.054   0.153   2.924  0.7094  0.0838 -0.6614
 3693TIP3   OH232493   2.690   5.002   2.341 -0.3678 -0.3612  0.9137
 3693TIP3    H132494   2.709   5.093   2.366  1.4441 -0.2332 -0.7480
 3693TIP3    H232495   2.605   5.007   2.297 -0.4660  0.4715  1.1827
 3694TIP3   OH232496   0.784   1.776   2.086  0.0058 -0.5187 -0.1065
 3694TIP3    H132497   0.782   1.703   2.148  1.7240 -0.1712  0.4225
 3694TIP3    H232498   0.799   1.735   2.001 -1.9023 -0.9641 -0.2621
 3695TIP3   OH232499   2.609   2.069   5.590 -0.6394 -0.3740 -0.1338
 3695TIP3    H132500   2.690   2.051   5.638 -1.1361 -0.3543  0.7507
 3695TIP3    H232501   2.540   2.061   5.657 -1.1557  1.9734 -0.2845
 3696TIP3   OH232502   4.098   3.516  14.029  0.1525 -0.3209  0.7084
 3696TIP3    H132503   4.035   3.518  14.101 -0.5836  2.7052  0.1135
 3696TIP3    H232504   4.141   3.601  14.032  2.2416 -1.2325 -0.6623
 3697TIP3   OH232505   6.534   2.062   5.686 -0.3172 -0.4203 -0.1830
 3697TIP3    H132506   6.555   2.042   5.777 -0.8195  0.9268  0.2521
 3697TIP3    H232507   6.472   1.994   5.660  0.6775 -1.4661  0.1124
 3698TIP3   OH232508   0.839   6.601  10.753 -0.4231  0.2277 -0.4341
 3698TIP3    H132509   0.801   6.661  10.689 -1.8403 -1.6293 -1.4402
 3698TIP3    H232510   0.764   6.548  10.782  0.4993 -0.0706  1.5385
 3699TIP3   OH232511   5.660   2.869  11.941  0.1711  0.2379  0.0108
 3699TIP3    H132512   5.741   2.915  11.918  0.4980  0.7673  2.0373
 3699TIP3    H232513   5.621   2.845  11.856  1.2936  1.9587 -1.0481
 3700TIP3   OH232514   6.589   2.020   3.183  0.1735  0.0084  0.1180
 3700TIP3    H132515   6.537   1.942   3.166  1.4236 -0.9724  0.5968
 3700TIP3    H232516   6.590   2.029   3.278  1.4761 -0.4549  0.1756
 3701TIP3   OH232517   2.656   1.807  14.245  0.1969 -0.7503 -0.1534
 3701TIP3    H132518   2.723   1.746  14.275 -0.1206 -1.4874 -0.9313
 3701TIP3    H232519   2.585   1.798  14.309  1.0364  0.4422  0.9960
 3702TIP3   OH232520   1.275   4.182   2.503 -0.5578  0.4363  0.2737
 3702TIP3    H132521   1.226   4.175   2.585 -0.8714 -0.0570  0.0522
 3702TIP3    H232522   1.212   4.156   2.435 -0.6585  1.9211 -0.2483
 3703TIP3   OH232523   3.991   3.487  11.515  0.3989  0.1093  0.3946
 3703TIP3    H132524   4.051   3.491  11.441 -2.8826  0.7508 -2.5304
 3703TIP3    H232525   3.956   3.398  11.513  1.0337 -0.2052  1.9224
 3704TIP3   OH232526   6.747   5.783  17.059  0.2130 -0.1087 -0.3483
 3704TIP3    H132527   6.733   5.694  17.089  3.2066 -0.5071  0.1681
 3704TIP3    H232528   6.704   5.838  17.125  0.2620 -1.1381  0.5580
 3705TIP3   OH232529   3.095   4.864  13.814 -0.0942 -0.0025  0.2093
 3705TIP3    H132530   3.018   4.808  13.830  0.8276 -1.0888  0.9985
 3705TIP3    H232531   3.110   4.858  13.720 -1.6642  1.1853 -0.1611
 3706TIP3   OH232532   3.481   5.306  14.843  0.4928 -0.1376  0.0185
 3706TIP3    H132533   3.562   5.295  14.893  0.4659  0.4985  0.2093
 3706TIP3    H232534   3.468   5.401  14.840 -1.5109 -0.2900  2.0282
 3707TIP3   OH232535   5.899   3.465  14.378  0.9104  0.0652 -0.3993
 3707TIP3    H132536   5.878   3.381  14.337  0.1077  0.2976 -0.4691
 3707TIP3    H232537   5.959   3.442  14.449 -1.2785 -0.9271  1.2652
 3708TIP3   OH232538   3.314   6.474  15.758 -0.1702 -0.0601  0.7199
 3708TIP3    H132539   3.260   6.458  15.681  0.8860 -0.0612 -0.0411
 3708TIP3    H232540   3.301   6.567  15.778  0.5916  0.2779 -0.2964
 3709TIP3   OH232541   0.725   4.678  14.643 -0.5201 -0.1949 -0.1296
 3709TIP3    H132542   0.789   4.622  14.599  0.3011 -0.3555  1.1969
 3709TIP3    H232543   0.706   4.747  14.579 -0.1378 -0.9631 -1.0937
 3710TIP3   OH232544   4.136   2.088  16.774  0.1192 -0.1346 -0.4595
 3710TIP3    H132545   4.144   2.114  16.682 -1.2941  2.0015 -0.0597
 3710TIP3    H232546   4.217   2.119  16.814  0.0527  0.3533 -0.6950
 3711TIP3   OH232547   1.302   6.679   4.459  0.5670  0.7519  0.1980
 3711TIP3    H132548   1.265   6.686   4.372 -0.6299  0.5574  0.6747
 3711TIP3    H232549   1.226   6.667   4.517  1.3336  0.8714  1.2589
 3712TIP3   OH232550   4.907   1.268  12.166  0.1564  0.1670 -0.8279
 3712TIP3    H132551   4.837   1.333  12.160 -0.4044 -0.4604 -1.2783
 3712TIP3    H232552   4.862   1.188  12.192  0.6103 -0.3863 -1.7094
 3713TIP3   OH232553   4.012   6.247   0.023  0.3602 -0.0655  0.1719
 3713TIP3    H132554   4.022   6.297  -0.059 -1.6585  1.0110  0.5183
 3713TIP3    H232555   4.046   6.305   0.091 -0.0295 -0.0321  0.3407
 3714TIP3   OH232556   0.216   5.469   1.657  0.2213 -0.1704  0.7466
 3714TIP3    H132557   0.258   5.436   1.736  2.9609 -0.3705 -0.6639
 3714TIP3    H232558   0.223   5.564   1.663  0.8000 -0.1969  0.6001
 3715TIP3   OH232559   5.238   3.020   3.203 -0.3449  0.4176  0.0030
 3715TIP3    H132560   5.173   2.995   3.137  0.0248 -0.0454 -0.1907
 3715TIP3    H232561   5.213   2.972   3.282 -1.7447  2.2059  0.7076
 3716TIP3   OH232562   1.656   4.832   4.819  0.0822  0.3444  0.1059
 3716TIP3    H132563   1.580   4.832   4.877 -1.0519  1.7543 -1.2931
 3716TIP3    H232564   1.694   4.919   4.829  1.1790 -0.1410  0.3372
 3717TIP3   OH232565   6.564   3.348  14.027 -0.6404  0.2333  0.0737
 3717TIP3    H132566   6.521   3.265  14.047  1.0472 -0.8832 -0.7600
 3717TIP3    H232567   6.656   3.334  14.048  0.1756  0.9792 -2.5747
 3718TIP3   OH232568   5.302   2.090  15.086  0.2869 -0.1462  0.2973
 3718TIP3    H132569   5.384   2.138  15.091 -0.4632  1.1974  0.0452
 3718TIP3    H232570   5.278   2.092  14.993 -0.4112  0.1459  0.4729
 3719TIP3   OH232571   4.601   3.375  16.214  0.7436  0.0004  0.3049
 3719TIP3    H132572   4.551   3.346  16.138  1.8470 -1.8356  0.2227
 3719TIP3    H232573   4.565   3.461  16.235 -1.6553 -0.7430 -0.4265
 3720TIP3   OH232574   2.234   0.878   5.229  0.1910  0.0914 -0.2818
 3720TIP3    H132575   2.275   0.919   5.305  0.5645 -0.6140 -0.0924
 3720TIP3    H232576   2.291   0.804   5.207  1.0285  1.2517 -2.2916
 3721TIP3   OH232577   2.045   0.523   3.250 -0.2937  0.2767 -0.0892
 3721TIP3    H132578   2.123   0.500   3.301 -1.7356 -2.7526  0.9649
 3721TIP3    H232579   1.974   0.522   3.314 -1.8681 -1.6369 -1.7557
 3722TIP3   OH232580   2.171   3.723   0.049 -0.1231  0.1395 -0.0307
 3722TIP3    H132581   2.250   3.681   0.084 -0.3234 -0.6611 -0.5216
 3722TIP3    H232582   2.203   3.804   0.009  0.4125 -0.0406  0.0187
 3723TIP3   OH232583   5.133   1.439  13.917  0.6611  0.7265 -0.2647
 3723TIP3    H132584   5.189   1.398  13.851 -0.9261  1.1134 -1.9407
 3723TIP3    H232585   5.047   1.402  13.901  0.2722  0.6376  1.8248
 3724TIP3   OH232586   6.669   5.291   0.148  0.1827 -0.2437 -0.1587
 3724TIP3    H132587   6.694   5.368   0.199  0.9096 -0.7449  0.2639
 3724TIP3    H232588   6.582   5.268   0.180  0.5152 -0.3861  0.6740
 3725TIP3   OH232589   6.204   5.119  13.645 -0.0400  0.1875  0.1724
 3725TIP3    H132590   6.244   5.103  13.560 -0.2680  1.8793 -0.2826
 3725TIP3    H232591   6.147   5.194  13.631  0.2941  0.8126  1.9342
 3726TIP3   OH232592   1.504   1.035   0.261  1.0621 -0.0366 -0.2105
 3726TIP3    H132593   1.470   1.123   0.278 -1.0025 -0.5575 -1.3091
 3726TIP3    H232594   1.472   1.014   0.173  1.8756 -1.7289 -0.1341
 3727TIP3   OH232595   3.251   4.096  14.235 -0.7225  0.0976  0.2596
 3727TIP3    H132596   3.191   4.086  14.162 -1.2548 -0.0379  0.7129
 3727TIP3    H232597   3.203   4.150  14.299  0.2294  1.3698 -0.0495
 3728TIP3   OH232598   6.525   0.034   4.873 -0.0774  0.5948  0.1274
 3728TIP3    H132599   6.596   0.001   4.818  0.1640 -0.7943  1.2440
 3728TIP3    H232600   6.567   0.093   4.935 -0.1664  1.1072 -0.2845
 3729TIP3   OH232601   4.577   0.486  11.287 -0.3843 -0.3462  0.6575
 3729TIP3    H132602   4.625   0.527  11.359 -3.3761 -0.7866  3.1314
 3729TIP3    H232603   4.590   0.392  11.299  0.7751 -0.3949 -0.7238
 3730TIP3   OH232604   0.921   3.225   5.800 -0.1144  0.4288 -0.2594
 3730TIP3    H132605   0.914   3.138   5.761  0.4071  0.5817 -0.6979
 3730TIP3    H232606   0.973   3.211   5.880 -2.5004 -0.1598  1.2956
 3731TIP3   OH232607   5.174   2.445  11.307  0.6260  0.5929  0.1682
 3731TIP3    H132608   5.154   2.515  11.370  0.1063  0.6358 -0.0424
 3731TIP3    H232609   5.249   2.400  11.345 -1.8653 -1.7536  2.7307
 3732TIP3   OH232610   2.765   5.819   2.938 -0.1853 -0.0897 -0.4674
 3732TIP3    H132611   2.684   5.869   2.948  0.8417  1.4372  0.7055
 3732TIP3    H232612   2.777   5.776   3.022  0.7730  0.6191 -0.2189
 3733TIP3   OH232613   4.568   0.467  13.827 -1.0464 -0.8348 -0.3473
 3733TIP3    H132614   4.581   0.385  13.779 -2.2304 -1.5025  0.4159
 3733TIP3    H232615   4.474   0.484  13.820 -1.7831 -2.2668  3.6886
 3734TIP3   OH232616   2.931   6.085   3.232  0.0221  0.2680  0.0652
 3734TIP3    H132617   2.923   5.990   3.243  2.5963 -0.0194  0.2154
 3734TIP3    H232618   2.893   6.103   3.146 -1.3093 -0.7464  0.4227
 3735TIP3   OH232619   1.228   0.469   6.690  0.3213  0.6315  0.2348
 3735TIP3    H132620   1.261   0.410   6.623 -0.1217  0.8568 -0.1849
 3735TIP3    H232621   1.272   0.552   6.674 -1.3552  1.3153 -1.1364
 3736TIP3   OH232622   5.438   6.444  14.931 -0.9168 -0.0562 -0.4657
 3736TIP3    H132623   5.403   6.497  14.859 -1.7112  0.8525  0.5673
 3736TIP3    H232624   5.501   6.501  14.974  0.8708 -1.1966 -1.4508
 3737TIP3   OH232625   2.651   1.299  12.567 -0.8176 -0.0815 -0.0260
 3737TIP3    H132626   2.662   1.256  12.652  1.4739  1.2616  0.4464
 3737TIP3    H232627   2.683   1.235  12.503  0.9124  0.2023  0.5054
 3738TIP3   OH232628   0.578   1.145  12.067 -0.3947  0.0382  0.3911
 3738TIP3    H132629   0.671   1.136  12.045 -0.6478  1.6717 -1.6286
 3738TIP3    H232630   0.575   1.212  12.135 -0.1550  0.9909 -0.5137
 3739TIP3   OH232631   4.502   2.924  16.273  0.4007 -0.1249 -0.3963
 3739TIP3    H132632   4.557   3.002  16.285  0.0026  0.2941 -1.2380
 3739TIP3    H232633   4.471   2.929  16.183 -0.1254 -0.9461 -0.2801
 3740TIP3   OH232634   5.122   4.477  12.714  0.3861  0.1500  0.5130
 3740TIP3    H132635   5.180   4.478  12.638  0.7745  1.3442  0.7920
 3740TIP3    H232636   5.041   4.437  12.683  0.4988  0.7233 -0.5695
 3741TIP3   OH232637   5.581   5.854   4.890 -0.0883  0.0809 -0.0142
 3741TIP3    H132638   5.526   5.779   4.911  1.5814 -1.5725 -1.1831
 3741TIP3    H232639   5.543   5.891   4.810  0.1565 -0.7085 -0.5059
 3742TIP3   OH232640   6.589   4.441   0.407  0.3163  0.4347  0.5742
 3742TIP3    H132641   6.653   4.372   0.427  1.6897  1.3009 -0.6550
 3742TIP3    H232642   6.583   4.441   0.312 -1.5009  0.4342  0.6586
 3743TIP3   OH232643   2.762   6.581  11.033  0.3022 -0.3506  0.8784
 3743TIP3    H132644   2.760   6.624  11.118  1.6099 -0.6895  1.0928
 3743TIP3    H232645   2.721   6.645  10.973  2.6919  1.5011  1.0700
 3744TIP3   OH232646   2.411   6.065  13.357 -0.6237  0.3321 -0.2296
 3744TIP3    H132647   2.327   6.059  13.403 -0.6042  0.9157 -0.1110
 3744TIP3    H232648   2.428   5.976  13.328 -2.5748  0.5999 -2.5463
 3745TIP3   OH232649   2.231   1.701   1.086 -0.0056 -0.1861  0.0921
 3745TIP3    H132650   2.208   1.626   1.032 -0.3148 -0.0555  0.0389
 3745TIP3    H232651   2.245   1.664   1.174  2.7843 -0.7550 -0.5111
 3746TIP3   OH232652   3.706   1.951  15.866  0.4473  0.1866 -0.5965
 3746TIP3    H132653   3.636   1.977  15.807  0.9389  0.5902 -1.0058
 3746TIP3    H232654   3.784   1.993  15.832  0.8500 -0.0506  0.0043
 3747TIP3   OH232655   4.353   6.324   2.663 -0.1468 -0.7533  0.1771
 3747TIP3    H132656   4.388   6.279   2.585 -2.0658 -0.3655 -0.9832
 3747TIP3    H232657   4.372   6.264   2.735  0.6714 -1.6730 -0.7558
 3748TIP3   OH232658   6.488   3.658   3.590  0.0583  0.3182  0.2374
 3748TIP3    H132659   6.398   3.690   3.589 -0.0845 -0.0287 -1.6291
 3748TIP3    H232660   6.482   3.566   3.567  0.9025  0.3328 -0.0838
 3749TIP3   OH232661   1.656   4.321   4.797  0.2120  0.1700  0.1207
 3749TIP3    H132662   1.644   4.416   4.794  0.6239  0.2223 -0.0743
 3749TIP3    H232663   1.736   4.306   4.746 -0.6758 -0.4336 -1.1618
 3750TIP3   OH232664   6.166   4.804  13.043 -0.3110 -0.1907  0.2316
 3750TIP3    H132665   6.148   4.879  12.987 -1.9866 -0.9344 -0.2678
 3750TIP3    H232666   6.260   4.811  13.063 -0.4057  1.9718  0.1495
 3751TIP3   OH232667   3.584   5.352   1.910  0.0338 -0.3862  0.0973
 3751TIP3    H132668   3.627   5.437   1.915 -3.1372  1.3240  0.6517
 3751TIP3    H232669   3.586   5.329   1.817  0.4252  0.5480 -0.1320
 3752TIP3   OH232670   0.791   3.889   1.211 -0.4657  0.2705  0.5617
 3752TIP3    H132671   0.802   3.911   1.119  1.3057 -1.2969  0.3314
 3752TIP3    H232672   0.701   3.913   1.232 -0.5006  1.8651 -1.2091
 3753TIP3   OH232673   6.336   6.067   5.441  0.5249  0.4275  0.5482
 3753TIP3    H132674   6.389   6.067   5.362 -1.1138 -0.0138 -0.5987
 3753TIP3    H232675   6.337   6.158   5.471 -0.4158  1.0197 -1.1083
 3754TIP3   OH232676   5.022   1.807  12.498  0.4095 -0.6015 -0.2454
 3754TIP3    H132677   5.109   1.834  12.528 -0.1518  3.1125 -1.4477
 3754TIP3    H232678   4.962   1.848  12.560 -0.5665 -0.9285 -0.9532
 3755TIP3   OH232679   3.246   4.245   4.175  0.3751  0.3319  0.7763
 3755TIP3    H132680   3.218   4.222   4.263  1.1906 -2.5131  0.3828
 3755TIP3    H232681   3.339   4.223   4.172  0.6348  1.4385 -0.4930
 3756TIP3   OH232682   4.920   0.349  14.165  0.0780 -0.0353  0.1723
 3756TIP3    H132683   4.843   0.395  14.132  0.4271  1.3570  1.1989
 3756TIP3    H232684   4.935   0.279  14.102 -0.6718  1.0781 -1.3028
 3757TIP3   OH232685   2.875   4.271  14.140 -0.5524 -0.2686  0.2148
 3757TIP3    H132686   2.888   4.335  14.070 -3.1235 -0.2810 -0.3918
 3757TIP3    H232687   2.844   4.323  14.214 -0.2488 -0.5397  0.5349
 3758TIP3   OH232688   3.197   5.637   3.393  0.6426 -0.5055 -0.2089
 3758TIP3    H132689   3.111   5.616   3.356  0.0597  0.9988  0.2340
 3758TIP3    H232690   3.178   5.666   3.482  1.5781  0.2141 -0.2292
 3759TIP3   OH232691   2.017   2.532   2.701 -0.0140  0.4282 -0.5368
 3759TIP3    H132692   1.959   2.570   2.634 -0.8813  0.3781  0.1633
 3759TIP3    H232693   1.969   2.457   2.734  1.1092 -0.4956 -0.9599
 3760TIP3   OH232694   1.904   4.379  16.785  0.4737  0.1083  0.6458
 3760TIP3    H132695   1.956   4.304  16.756  0.8903  0.0180  1.5672
 3760TIP3    H232696   1.932   4.451  16.729  1.3545 -0.0284  0.8837
 3761TIP3   OH232697   6.553   5.922  12.873 -0.0311  0.5909  0.2569
 3761TIP3    H132698   6.524   5.964  12.953  0.0705 -1.1739  1.2671
 3761TIP3    H232699   6.472   5.894  12.830 -0.0294 -0.8548  1.1272
 3762TIP3   OH232700   6.616   2.666   0.878  0.7199  0.9930  0.3359
 3762TIP3    H132701   6.529   2.631   0.895  0.1550  1.5621 -1.2881
 3762TIP3    H232702   6.661   2.596   0.831  1.2539  0.6127  1.3627
 3763TIP3   OH232703   5.446   3.968   2.166  0.4161 -0.4343 -0.5201
 3763TIP3    H132704   5.477   4.052   2.201  0.7189 -0.2170 -1.3044
 3763TIP3    H232705   5.507   3.946   2.096 -1.3215  0.1507 -2.3264
 3764TIP3   OH232706   0.200   4.718  16.595  0.5203  0.2199  0.1211
 3764TIP3    H132707   0.126   4.745  16.541 -0.5168  0.7126  1.7196
 3764TIP3    H232708   0.242   4.648  16.545 -1.6974 -0.8567 -0.3405
 3765TIP3   OH232709   3.063   4.272  11.977 -0.2758 -0.1280 -0.1328
 3765TIP3    H132710   2.984   4.273  11.924  0.3664 -2.2819 -1.2551
 3765TIP3    H232711   3.088   4.364  11.985 -1.7127  0.4219 -1.5353
 3766TIP3   OH232712   2.590   1.745   1.788  0.3585 -0.2573 -0.4429
 3766TIP3    H132713   2.521   1.700   1.740  1.4310  0.4334 -2.7916
 3766TIP3    H232714   2.597   1.697   1.871 -1.5805 -1.5257 -0.9422
 3767TIP3   OH232715   2.113   0.585   0.491  0.7132  0.3611  0.3477
 3767TIP3    H132716   2.084   0.652   0.553 -2.1750 -0.7841  0.4070
 3767TIP3    H232717   2.200   0.561   0.521  0.5462  1.8514  2.2232
 3768TIP3   OH232718   2.147   3.084  14.022 -0.2845 -0.4231 -0.1447
 3768TIP3    H132719   2.173   3.093  13.930 -0.6931 -0.8410 -0.3041
 3768TIP3    H232720   2.181   2.999  14.048 -1.6910 -1.1023 -0.4305
 3769TIP3   OH232721   4.734   3.016  11.302  0.1242  0.1111 -0.0104
 3769TIP3    H132722   4.671   2.957  11.261 -0.4718  1.4301 -1.0655
 3769TIP3    H232723   4.743   3.089  11.240  1.4814  0.7259  0.8540
 3770TIP3   OH232724   1.297   3.122  16.448 -0.1272  0.2851 -0.2150
 3770TIP3    H132725   1.357   3.189  16.480  0.4232 -0.7822  1.0900
 3770TIP3    H232726   1.290   3.139  16.354 -1.4885  3.3085  0.3238
 3771TIP3   OH232727   5.126   3.447  14.480  0.1863  0.4670  0.2458
 3771TIP3    H132728   5.051   3.434  14.422 -1.3045  1.5820  1.8191
 3771TIP3    H232729   5.092   3.429  14.568  2.2219 -0.5986  0.8736
 3772TIP3   OH232730   2.089   3.961   6.306  0.2530  0.4626 -0.6733
 3772TIP3    H132731   2.109   4.053   6.322  0.3147  0.4180 -0.4973
 3772TIP3    H232732   2.050   3.930   6.388  2.8167 -0.4167  0.3258
 3773TIP3   OH232733   5.397   5.154   0.055  0.1122  0.1500  0.2058
 3773TIP3    H132734   5.341   5.225   0.087 -0.4043 -0.9350  1.8719
 3773TIP3    H232735   5.395   5.089   0.125  0.9837 -1.2928 -1.0449
 3774TIP3   OH232736   5.365   5.053  14.237 -0.1682 -0.3279  0.5094
 3774TIP3    H132737   5.379   4.959  14.238  1.4422 -0.1165  0.3618
 3774TIP3    H232738   5.408   5.084  14.317 -0.1779  0.3454  0.2563
 3775TIP3   OH232739   3.075   4.506   3.880  0.1443 -0.4423  0.2349
 3775TIP3    H132740   2.986   4.542   3.883  1.0496  1.8784  1.4982
 3775TIP3    H232741   3.091   4.474   3.969  0.4359 -1.3332 -0.1191
 3776TIP3   OH232742   2.471   4.084  13.169  0.1927 -0.0495 -0.4642
 3776TIP3    H132743   2.403   4.089  13.101 -2.6081  3.3900  2.1821
 3776TIP3    H232744   2.442   4.013  13.226 -0.9154  0.9361  0.2601
 3777TIP3   OH232745   5.848   6.597  11.670  0.3947 -0.3839 -0.1951
 3777TIP3    H132746   5.845   6.520  11.613  0.8272 -0.8040  0.3271
 3777TIP3    H232747   5.863   6.561  11.757  0.1215  0.2701  0.1295
 3778TIP3   OH232748   4.849   5.068   0.551  0.6693 -0.0403  0.2197
 3778TIP3    H132749   4.892   4.982   0.550  2.2276  0.7068  1.2514
 3778TIP3    H232750   4.919   5.131   0.566 -0.8887  1.1374  3.4364
 3779TIP3   OH232751   0.245   1.672   5.747 -0.7046 -0.4365 -0.6222
 3779TIP3    H132752   0.305   1.646   5.818 -2.6605 -4.4774 -0.1248
 3779TIP3    H232753   0.206   1.754   5.777  1.1117 -0.1835  1.2702
 3780TIP3   OH232754   4.970   4.759  13.401  0.2869 -0.4577  0.1238
 3780TIP3    H132755   5.023   4.825  13.357  0.3238 -1.1389 -0.8698
 3780TIP3    H232756   4.975   4.783  13.494  0.2907  0.9233 -0.2179
 3781TIP3   OH232757   1.035   0.052   2.380  0.1826  0.4308  0.1932
 3781TIP3    H132758   1.069  -0.035   2.401 -0.1518  0.0954 -0.6002
 3781TIP3    H232759   0.970   0.069   2.447 -1.1430 -0.7764 -0.7175
 3782TIP3   OH232760   6.816   6.523   3.307  0.2779 -0.4656 -0.3941
 3782TIP3    H132761   6.752   6.552   3.372 -2.5597  0.7986 -3.4583
 3782TIP3    H232762   6.773   6.450   3.263  1.1785  0.0626 -2.2101
 3783TIP3   OH232763   6.689   0.770  13.212  0.2275  0.6715  0.7283
 3783TIP3    H132764   6.744   0.775  13.133 -0.4893  0.6587  0.2232
 3783TIP3    H232765   6.622   0.705  13.191  0.6836 -0.1512  1.7696
 3784TIP3   OH232766   3.767   5.551  12.925  0.0583 -0.0733 -0.2000
 3784TIP3    H132767   3.810   5.530  12.842  0.5926 -1.2560  0.3420
 3784TIP3    H232768   3.675   5.530  12.911 -0.1150  1.0613 -0.9087
 3785TIP3   OH232769   2.626   5.133   0.498  0.0979 -0.1713  0.5686
 3785TIP3    H132770   2.657   5.081   0.572  0.1974  1.3406  1.6369
 3785TIP3    H232771   2.558   5.189   0.535 -1.2369 -0.7431 -0.9274
 3786TIP3   OH232772   1.889   2.269   1.860 -0.5401  0.2140 -0.3672
 3786TIP3    H132773   1.954   2.307   1.800 -0.4970 -2.4854 -2.2422
 3786TIP3    H232774   1.809   2.317   1.843 -0.6673 -0.7733 -3.1289
 3787TIP3   OH232775   5.611   0.942   3.192  0.1728  0.2068  0.4920
 3787TIP3    H132776   5.631   1.014   3.133 -0.8786  1.0252  1.1006
 3787TIP3    H232777   5.640   0.972   3.278 -2.0740  0.7956  1.1215
 3788TIP3   OH232778   5.473   0.612  14.156 -0.6850  0.1975 -0.5782
 3788TIP3    H132779   5.384   0.580  14.139 -0.2942 -0.2156 -1.9638
 3788TIP3    H232780   5.494   0.667  14.079 -0.2823  1.5098  0.4256
 3789TIP3   OH232781   0.123   3.061  15.022 -0.0677  0.0841  0.7249
 3789TIP3    H132782   0.202   3.115  15.015 -0.1414  0.0542 -0.5877
 3789TIP3    H232783   0.118   3.038  15.115  1.0429  0.7154  0.9616
 3790TIP3   OH232784   3.639   1.965  11.267  0.0002  0.2749 -0.2889
 3790TIP3    H132785   3.577   2.021  11.220 -0.0924 -1.6298 -2.6517
 3790TIP3    H232786   3.723   1.983  11.226  0.4716  0.6862  0.8482
 3791TIP3   OH232787   6.234   1.277  11.322 -0.1861 -0.3683 -0.6773
 3791TIP3    H132788   6.300   1.245  11.383 -0.3084 -1.2444 -0.9902
 3791TIP3    H232789   6.272   1.357  11.285  0.5380 -0.6612 -0.5861
 3792TIP3   OH232790   5.875   4.205  16.801 -0.7165  0.5475 -0.5966
 3792TIP3    H132791   5.890   4.228  16.710 -0.5092  0.9598 -0.4611
 3792TIP3    H232792   5.803   4.142  16.799  1.4536 -2.0773 -1.3417
 3793TIP3   OH232793   1.561   5.934   0.331 -0.0244  0.1639  0.5581
 3793TIP3    H132794   1.629   5.959   0.269 -0.4936  1.7157  0.6189
 3793TIP3    H232795   1.606   5.880   0.396  0.2020 -2.7950 -1.8210
 3794TIP3   OH232796   0.961   6.365   3.870  0.0089  0.0537  0.1631
 3794TIP3    H132797   1.018   6.436   3.900 -1.3442  1.4573 -0.4479
 3794TIP3    H232798   1.003   6.332   3.790  0.1048  0.9166 -0.1554
 3795TIP3   OH232799   3.872   1.298   0.844 -0.1270 -0.0736 -0.1103
 3795TIP3    H132800   3.798   1.325   0.790  0.1548 -0.0432 -0.4833
 3795TIP3    H232801   3.878   1.365   0.912  0.7131  0.9663 -1.1661
 3796TIP3   OH232802   2.769   6.787   1.814 -0.3654  0.0601  0.3686
 3796TIP3    H132803   2.712   6.836   1.873  0.7103  0.3430  1.2039
 3796TIP3    H232804   2.774   6.841   1.735  1.7095  1.9675  1.6824
 3797TIP3   OH232805   4.741   1.852   4.639  0.1107 -0.1488 -0.5229
 3797TIP3    H132806   4.755   1.763   4.607 -1.8241 -0.9921  0.8623
 3797TIP3    H232807   4.763   1.908   4.564 -1.0765 -1.8948 -2.2452
 3798TIP3   OH232808   3.398   1.894   1.821 -0.1121  0.2756  0.2850
 3798TIP3    H132809   3.380   1.901   1.915  1.7018  1.2667  0.6123
 3798TIP3    H232810   3.491   1.916   1.813  0.1286 -1.1811 -1.5960
 3799TIP3   OH232811   4.395   5.356  16.595  0.3717 -0.6746  0.4687
 3799TIP3    H132812   4.407   5.334  16.687  0.3218  0.6179  0.8047
 3799TIP3    H232813   4.306   5.392  16.591  0.8605  0.5398  0.1833
 3800TIP3   OH232814   5.247   0.805   3.609  0.4764  0.6149 -0.2214
 3800TIP3    H132815   5.302   0.727   3.618  1.4158  1.3662  0.7720
 3800TIP3    H232816   5.187   0.800   3.684  0.9486  1.1591  0.1971
 3801TIP3   OH232817   4.516   4.401   4.140 -0.2082  0.1508  0.4036
 3801TIP3    H132818   4.462   4.322   4.148 -0.4613  0.3505  0.7306
 3801TIP3    H232819   4.548   4.416   4.229  1.2410 -0.5517  0.0304
 3802TIP3   OH232820   5.203   4.990   0.631  0.0683  0.4862 -0.0977
 3802TIP3    H132821   5.227   4.900   0.609  1.9047  0.1547  2.7841
 3802TIP3    H232822   5.147   4.982   0.708 -2.7190  1.7409 -1.8309
 3803TIP3   OH232823   6.382   5.257   0.107 -0.3504  0.3256 -0.4036
 3803TIP3    H132824   6.386   5.344   0.068  1.1712  0.4845  0.0245
 3803TIP3    H232825   6.392   5.197   0.034  4.7509  0.6291 -0.3018
 3804TIP3   OH232826   0.701   5.449  10.984 -0.4754 -0.1562  0.7331
 3804TIP3    H132827   0.749   5.482  11.059 -1.4043 -0.9369  1.7086
 3804TIP3    H232828   0.759   5.384  10.945 -0.1878 -0.1031  1.0691
 3805TIP3   OH232829   1.271   6.522  11.514 -0.2532  0.1464 -0.5541
 3805TIP3    H132830   1.262   6.552  11.605  0.1333  1.3959 -0.9145
 3805TIP3    H232831   1.358   6.550  11.488 -0.4161 -0.0805 -1.3547
 3806TIP3   OH232832   0.129   1.541   3.005  0.3407  0.3723 -0.0515
 3806TIP3    H132833   0.185   1.463   3.004  0.4463  0.4522 -1.2085
 3806TIP3    H232834   0.080   1.537   2.923  1.6660  2.4334 -1.0470
 3807TIP3   OH232835   1.383   5.015  12.949  0.0777  0.1271 -0.1410
 3807TIP3    H132836   1.326   4.995  13.023 -1.8865  0.8274 -1.3606
 3807TIP3    H232837   1.419   5.101  12.969 -0.1293  0.1363  0.2021
 3808TIP3   OH232838   4.984   1.081   0.735 -0.4984  0.3381  0.0211
 3808TIP3    H132839   4.913   1.058   0.794  0.1720  2.4807  1.8209
 3808TIP3    H232840   4.942   1.107   0.653 -1.5511 -1.3142  0.0207
 3809TIP3   OH232841   3.011   3.238   4.242  0.3188 -0.3167  0.0418
 3809TIP3    H132842   2.952   3.237   4.317 -0.3715  1.1772 -0.4214
 3809TIP3    H232843   2.952   3.236   4.166  0.8728  0.4678 -0.4286
 3810TIP3   OH232844   4.533   0.543   3.877  0.3503  0.2591  0.1452
 3810TIP3    H132845   4.516   0.516   3.786  0.1887 -1.2911  0.6153
 3810TIP3    H232846   4.446   0.563   3.912  0.3330  0.1256  0.1793
 3811TIP3   OH232847   3.164   4.772   0.541 -0.2436  0.1191 -0.5770
 3811TIP3    H132848   3.082   4.725   0.556 -0.0529 -0.6256 -1.7526
 3811TIP3    H232849   3.155   4.853   0.592 -0.4132 -1.3165  1.8123
 3812TIP3   OH232850   5.908   1.591   4.352  0.2917  0.2607  0.5977
 3812TIP3    H132851   5.832   1.564   4.403  0.4019  0.7318  1.0163
 3812TIP3    H232852   5.915   1.685   4.368 -0.3264  0.6377 -1.1410
 3813TIP3   OH232853   6.522   0.781   4.312  0.1418  0.5164 -0.4077
 3813TIP3    H132854   6.498   0.787   4.220 -2.1941  2.8131  0.2208
 3813TIP3    H232855   6.600   0.835   4.321  1.1150 -0.6995 -1.1750
 3814TIP3   OH232856   1.775   6.621   0.249  0.0580  0.0487  0.6920
 3814TIP3    H132857   1.866   6.596   0.237 -0.4920 -1.9730  0.4541
 3814TIP3    H232858   1.751   6.667   0.168  1.2598  2.0234  1.3876
 3815TIP3   OH232859   4.148   2.111   3.120  0.9201  0.2340 -0.6754
 3815TIP3    H132860   4.054   2.098   3.108  0.5582  1.7179  0.1915
 3815TIP3    H232861   4.186   2.093   3.035 -0.3130  0.7426 -1.3636
 3816TIP3   OH232862   0.610   3.453   1.506  0.0250 -0.4501  0.0042
 3816TIP3    H132863   0.596   3.514   1.433  2.5582  0.2742  0.0175
 3816TIP3    H232864   0.551   3.484   1.575 -0.6871  0.3159 -0.9133
 3817TIP3   OH232865   5.569   2.609  15.821 -0.1081  0.0743  0.4069
 3817TIP3    H132866   5.586   2.539  15.757 -0.8580 -0.5807  0.8996
 3817TIP3    H232867   5.510   2.669  15.776  0.2956  0.2317  0.0843
 3818TIP3   OH232868   2.499   5.537  12.985 -0.2981 -0.1994  0.2937
 3818TIP3    H132869   2.419   5.568  12.943 -1.8833 -0.1765  3.0463
 3818TIP3    H232870   2.478   5.448  13.014  0.5903 -0.1359  1.2054
 3819TIP3   OH232871   4.720   5.415   4.440 -0.1526 -0.6100  0.5179
 3819TIP3    H132872   4.648   5.351   4.440  0.0846 -0.9025 -0.5929
 3819TIP3    H232873   4.796   5.365   4.468 -0.6537  0.0984  3.4578
 3820TIP3   OH232874   6.735   4.377  12.139  0.1195 -0.4197 -0.3231
 3820TIP3    H132875   6.789   4.374  12.218  1.2476  0.1513 -1.0447
 3820TIP3    H232876   6.777   4.315  12.079  1.1375  1.3949 -1.5734
 3821TIP3   OH232877   6.724   1.442   0.214  0.0458  0.6611 -0.8155
 3821TIP3    H132878   6.681   1.462   0.297 -0.8800 -3.2913 -0.1382
 3821TIP3    H232879   6.818   1.444   0.234 -0.1538  0.2276  0.2048
 3822TIP3   OH232880   5.462   2.951  11.697 -0.2008 -0.3245 -0.6731
 3822TIP3    H132881   5.476   3.021  11.760 -0.0171 -0.0686 -0.9942
 3822TIP3    H232882   5.428   2.995  11.619 -1.0276 -0.7083 -0.5444
 3823TIP3   OH232883   5.354   2.017   1.720  0.2671 -0.0362 -0.1944
 3823TIP3    H132884   5.304   1.938   1.743 -1.7795  0.6535 -1.9655
 3823TIP3    H232885   5.417   1.986   1.655  0.3464 -0.4300  0.0629
 3824TIP3   OH232886   3.863   6.408  15.413  0.2327 -0.6988  0.1172
 3824TIP3    H132887   3.891   6.492  15.377 -0.4211 -0.7641 -0.5767
 3824TIP3    H232888   3.884   6.414  15.506 -0.1036  0.3715  0.1407
 3825TIP3   OH232889   5.610   1.604   5.413 -0.1317  0.2016 -0.8459
 3825TIP3    H132890   5.568   1.642   5.490  0.5421  0.3903 -0.5618
 3825TIP3    H232891   5.642   1.519   5.443 -0.5350 -0.0522 -1.1326
 3826TIP3   OH232892   0.066   2.706   6.293  0.1825 -0.4679 -0.2909
 3826TIP3    H132893  -0.019   2.726   6.253  0.0257 -0.8871 -0.1815
 3826TIP3    H232894   0.113   2.789   6.294 -0.8835  0.1663  1.2176
 3827TIP3   OH232895   0.239   2.859   5.552 -0.1545  0.4918  0.9593
 3827TIP3    H132896   0.306   2.803   5.593  0.8041  0.9183  0.0178
 3827TIP3    H232897   0.289   2.917   5.494 -1.4596 -0.0054 -0.7079
 3828TIP3   OH232898   5.576   5.466   4.566  0.3441  0.1543 -0.0403
 3828TIP3    H132899   5.642   5.452   4.497  0.2147  1.7379 -0.5086
 3828TIP3    H232900   5.514   5.394   4.553  0.0847  0.6461 -1.8880
 3829TIP3   OH232901   2.687   1.284  11.899 -0.2072 -0.2537 -0.2248
 3829TIP3    H132902   2.713   1.253  11.986 -0.2573 -0.3929 -0.2596
 3829TIP3    H232903   2.596   1.255  11.890 -1.0793  1.9310  0.7192
 3830TIP3   OH232904   1.525   5.985   4.607 -0.3129  0.0827 -0.5899
 3830TIP3    H132905   1.453   6.047   4.595 -0.0660  0.2278 -1.3345
 3830TIP3    H232906   1.604   6.034   4.585  0.0203 -0.0796  0.2221
 3831TIP3   OH232907   4.389   4.966   4.176 -0.4361 -0.6910 -0.0331
 3831TIP3    H132908   4.447   5.037   4.148 -0.6231 -0.5660 -0.1062
 3831TIP3    H232909   4.444   4.888   4.174 -0.1624 -0.5113  0.2832
 3832TIP3   OH232910   6.333   5.068  16.203  0.9454 -0.6915 -0.5137
 3832TIP3    H132911   6.373   4.981  16.208  1.2143 -0.5149  0.9775
 3832TIP3    H232912   6.407   5.128  16.205  0.7062 -0.3857  1.3036
 3833TIP3   OH232913   2.300   3.580   2.073 -0.0365  0.4660 -0.0777
 3833TIP3    H132914   2.290   3.630   1.992  0.9991  0.0320 -0.4982
 3833TIP3    H232915   2.322   3.491   2.043  0.9601  0.4417  0.6765
 3834TIP3   OH232916   4.074   0.933  11.606  0.3396  0.4538 -0.1627
 3834TIP3    H132917   4.010   0.995  11.642  1.8016  0.6147  2.4357
 3834TIP3    H232918   4.159   0.974  11.621  1.2615 -1.3968  0.0565
 3835TIP3   OH232919   3.440   2.120  17.086 -0.4504  0.4735 -0.2500
 3835TIP3    H132920   3.464   2.149  17.174  1.4111 -0.3717 -0.4450
 3835TIP3    H232921   3.476   2.187  17.028 -0.4355  0.2939 -0.4491
 3836TIP3   OH232922   4.879   2.501  12.512 -0.6470  0.7097 -0.5562
 3836TIP3    H132923   4.879   2.575  12.452 -3.1023  1.8112  0.6467
 3836TIP3    H232924   4.888   2.540  12.599  1.7976 -0.7633 -0.0578
 3837TIP3   OH232925   0.212   4.200   0.292 -0.0085 -0.0306  0.3552
 3837TIP3    H132926   0.116   4.207   0.293 -0.1032 -0.4345 -1.5333
 3837TIP3    H232927   0.242   4.289   0.303 -0.6026  0.0750  1.1879
 3838TIP3   OH232928   0.242   0.918  10.699 -0.0650 -0.2305 -0.2736
 3838TIP3    H132929   0.296   0.843  10.674 -0.3129 -0.0421 -1.4699
 3838TIP3    H232930   0.300   0.993  10.692  0.0837 -0.2645  0.5576
 3839TIP3   OH232931   4.755   0.225   4.634 -0.1457 -0.4632 -0.1837
 3839TIP3    H132932   4.690   0.166   4.596  0.8012 -0.0832 -2.5678
 3839TIP3    H232933   4.798   0.173   4.702 -0.1812 -2.1074 -1.3725
 3840TIP3   OH232934   0.681   3.567   2.215 -0.2441 -0.0656 -0.8153
 3840TIP3    H132935   0.721   3.612   2.141  0.2894 -1.8185 -1.6561
 3840TIP3    H232936   0.743   3.579   2.287 -0.9835  2.0384 -0.4677
 3841TIP3   OH232937   3.869   0.287  15.729 -0.5179  0.1762  0.2441
 3841TIP3    H132938   3.960   0.276  15.704 -1.2817  1.7558 -4.1075
 3841TIP3    H232939   3.868   0.368  15.781  0.7216 -1.2114  2.6066
 3842TIP3   OH232940   5.209   5.608  15.692  0.1198 -0.0073 -0.5473
 3842TIP3    H132941   5.243   5.694  15.667  0.1173  0.1901  0.1176
 3842TIP3    H232942   5.242   5.593  15.781  1.3767 -1.3645 -1.1964
 3843TIP3   OH232943   0.934   6.081   2.636 -0.1849  0.0655  0.1112
 3843TIP3    H132944   0.918   6.054   2.726  2.7135 -1.0913  0.3716
 3843TIP3    H232945   0.982   6.164   2.643 -0.2299  0.1415 -0.3938
 3844TIP3   OH232946   6.603   5.287   1.985 -0.4384 -0.3743  0.5250
 3844TIP3    H132947   6.593   5.306   2.078  1.0454  0.7935  0.4939
 3844TIP3    H232948   6.615   5.192   1.980 -1.0188 -0.4998  1.4703
 3845TIP3   OH232949   5.490   5.924  15.447 -0.4772  0.6501 -0.5039
 3845TIP3    H132950   5.489   5.891  15.357 -0.1152  2.9716 -1.4299
 3845TIP3    H232951   5.582   5.914  15.474 -0.6460 -0.3311 -0.2480
 3846TIP3   OH232952   1.477   4.162   6.188 -0.0619  0.1383  0.1212
 3846TIP3    H132953   1.541   4.145   6.120 -1.2668  1.0697 -1.3037
 3846TIP3    H232954   1.502   4.247   6.225 -0.4059  0.4548 -0.3671
 3847TIP3   OH232955   6.199   0.140   1.948  0.4066 -0.1034 -0.1228
 3847TIP3    H132956   6.293   0.155   1.933  0.5512 -0.7755  0.0937
 3847TIP3    H232957   6.164   0.120   1.861  0.0231  2.3035 -0.6113
 3848TIP3   OH232958   4.784   4.085   4.975  0.0124  0.5165  0.0352
 3848TIP3    H132959   4.805   4.139   4.899  1.9855 -1.0808 -0.6465
 3848TIP3    H232960   4.819   4.135   5.049  0.2312  0.9958 -0.3834
 3849TIP3   OH232961   1.447   1.558  12.508  0.2768  0.4210 -0.1510
 3849TIP3    H132962   1.471   1.502  12.582 -0.3691  0.0451 -0.2184
 3849TIP3    H232963   1.383   1.506  12.459  0.6969  0.6613 -0.9745
 3850TIP3   OH232964   1.852   1.081   1.268 -0.2790  0.3410  0.1180
 3850TIP3    H132965   1.814   1.003   1.228  0.4116  0.6793 -1.2847
 3850TIP3    H232966   1.787   1.110   1.332 -2.5385  1.0510 -2.3346
 3851TIP3   OH232967   0.640   3.917   2.107  0.6784 -0.2891  0.2956
 3851TIP3    H132968   0.708   3.894   2.044  1.9363  1.4962  0.9234
 3851TIP3    H232969   0.614   4.006   2.081 -1.3011 -0.8531  0.1911
 3852TIP3   OH232970   0.292   6.029   0.778 -0.3737 -0.0596 -0.1779
 3852TIP3    H132971   0.250   6.000   0.859 -0.6764 -0.7547 -0.5767
 3852TIP3    H232972   0.282   6.124   0.779 -1.9454 -0.1967 -0.2421
 3853TIP3   OH232973   4.606   3.630   0.990  0.2461  0.7131  0.3196
 3853TIP3    H132974   4.701   3.619   0.992 -0.0116 -2.7971  0.1568
 3853TIP3    H232975   4.573   3.542   0.971 -3.0561  1.7859  0.5724
 3854TIP3   OH232976   4.206   5.076  12.426  0.6132  0.1264 -0.6444
 3854TIP3    H132977   4.273   5.041  12.367  0.1358 -0.5248 -0.8215
 3854TIP3    H232978   4.158   4.998  12.455  0.1198  0.5568 -0.2978
 3855TIP3   OH232979   0.290   4.363  11.219  0.2120 -0.6627  0.0035
 3855TIP3    H132980   0.235   4.435  11.189  1.2531  0.3284  0.4061
 3855TIP3    H232981   0.238   4.285  11.201 -0.6942  0.1311 -1.0026
 3856TIP3   OH232982   1.168   6.500  16.653  0.0652  0.2270 -0.6681
 3856TIP3    H132983   1.092   6.548  16.621 -0.4180 -0.3607 -0.4065
 3856TIP3    H232984   1.231   6.504  16.580 -0.2003  0.7339 -0.8751
 3857TIP3   OH232985   5.866   6.639   3.073  0.1199 -0.0513  0.4905
 3857TIP3    H132986   5.802   6.709   3.064 -0.1755 -0.0045  2.3927
 3857TIP3    H232987   5.915   6.662   3.152  1.9793 -0.4935 -0.4938
 3858TIP3   OH232988   4.456   5.713  15.328 -0.2643  0.1268 -0.2355
 3858TIP3    H132989   4.497   5.719  15.242  0.4215  1.2143  0.1424
 3858TIP3    H232990   4.527   5.733  15.390 -0.3351 -2.1880  0.7031
 3859TIP3   OH232991   5.275   5.605  12.735  0.6117 -0.0194 -0.4125
 3859TIP3    H132992   5.183   5.594  12.710  0.5134 -0.6855  0.2109
 3859TIP3    H232993   5.293   5.531  12.793  1.4639  0.2618 -0.3057
 3860TIP3   OH232994   6.753   2.459   3.094  0.0332  0.1704  0.0173
 3860TIP3    H132995   6.815   2.529   3.077 -0.7811  1.0809  0.7120
 3860TIP3    H232996   6.760   2.443   3.188  1.4394 -1.8867 -0.3683
 3861TIP3   OH232997   1.287   1.322   4.623  0.7041 -0.0715  0.0662
 3861TIP3    H132998   1.350   1.293   4.689 -0.8048 -1.6440  0.8901
 3861TIP3    H232999   1.279   1.247   4.564 -1.0262 -0.2705  0.4932
 3862TIP3   OH233000   6.082   5.115  12.230 -0.3261 -0.4543  0.4948
 3862TIP3    H133001   6.076   5.194  12.285 -2.7493 -1.0156  1.1612
 3862TIP3    H233002   6.089   5.043  12.293 -1.7557 -1.0037  0.0596
 3863TIP3   OH233003   1.615   2.205   2.662 -0.2320  0.6030 -0.2223
 3863TIP3    H133004   1.571   2.260   2.598  1.5838  1.5397 -0.7320
 3863TIP3    H233005   1.546   2.148   2.697 -1.5007  0.9213 -2.0903
 3864TIP3   OH233006   0.768   0.738  11.582  0.0588  0.6113  0.1777
 3864TIP3    H133007   0.769   0.762  11.674  1.0398  0.7183  0.1459
 3864TIP3    H233008   0.726   0.652  11.580  0.3011  0.4808  0.7495
 3865TIP3   OH233009   5.411   5.127  15.104  0.2930 -0.8756  0.1835
 3865TIP3    H133010   5.353   5.200  15.083  0.9003 -0.5618 -0.4508
 3865TIP3    H233011   5.418   5.077  15.022  0.1976 -1.4250  0.5025
 3866TIP3   OH233012   1.974   5.051  10.455 -0.2591  0.1279  0.0594
 3866TIP3    H133013   1.975   4.956  10.452  0.0655  0.1319  0.0171
 3866TIP3    H233014   2.035   5.075  10.524  0.4196  0.3269 -0.5948
 3867TIP3   OH233015   1.564   6.252  12.876 -0.1936 -0.2035 -0.0854
 3867TIP3    H133016   1.657   6.237  12.896  0.6061  0.8777 -2.6112
 3867TIP3    H233017   1.534   6.310  12.946  0.5062 -1.9145  1.7417
 3868TIP3   OH233018   6.426   6.709   2.097 -0.3770  0.2472 -0.5298
 3868TIP3    H133019   6.420   6.802   2.077 -0.6762  0.1989 -0.6587
 3868TIP3    H233020   6.500   6.678   2.044  0.5355  0.6660  0.4594
 3869TIP3   OH233021   1.113   0.203   0.367 -0.9126 -0.0678  0.3042
 3869TIP3    H133022   1.066   0.128   0.330  1.5671 -0.9484 -1.3912
 3869TIP3    H233023   1.196   0.166   0.398  0.1344  1.8532 -0.0099
 3870TIP3   OH233024   1.317   0.469   3.999 -0.4618 -0.1244  0.2281
 3870TIP3    H133025   1.264   0.543   3.971 -0.1028 -0.3670 -1.1784
 3870TIP3    H233026   1.335   0.485   4.092 -2.1940  0.4261  0.4997
 3871TIP3   OH233027   4.467   4.177   3.571  0.4818  0.1334  0.0946
 3871TIP3    H133028   4.455   4.162   3.665 -0.0566  1.2895  0.2317
 3871TIP3    H233029   4.508   4.097   3.539  0.5672 -0.3269  1.2931
 3872TIP3   OH233030   6.119   4.905   2.556 -0.3154 -0.4916 -0.6202
 3872TIP3    H133031   6.130   4.821   2.600  1.8277 -0.9709 -1.9317
 3872TIP3    H233032   6.197   4.955   2.580 -1.7963  1.4017  0.5654
 3873TIP3   OH233033   3.622   4.839  10.976 -0.0086 -0.1879 -0.2162
 3873TIP3    H133034   3.596   4.919  10.930 -0.7126 -0.0767  0.3549
 3873TIP3    H233035   3.698   4.807  10.927 -0.0635  0.5212 -0.7880
 3874TIP3   OH233036   0.405   2.421  11.877 -0.1344  0.1765  0.2410
 3874TIP3    H133037   0.398   2.386  11.788  2.6506 -0.8269  0.3252
 3874TIP3    H233038   0.380   2.347  11.933 -1.4746  0.6819  0.3565
 3875TIP3   OH233039   6.532   1.072  16.284  0.3016  0.4081 -0.4973
 3875TIP3    H133040   6.463   1.007  16.294 -1.1786  2.1087  0.9061
 3875TIP3    H233041   6.508   1.121  16.205  0.2863  0.5610 -0.3984
 3876TIP3   OH233042   3.454   5.374   5.634  0.4044 -0.1851  0.1275
 3876TIP3    H133043   3.461   5.310   5.705 -1.2478 -0.1636  0.3565
 3876TIP3    H233044   3.513   5.445   5.660  0.5559 -0.6126  1.0027
 3877TIP3   OH233045   5.359   3.496  11.715  0.2602  0.2779 -0.6080
 3877TIP3    H133046   5.447   3.488  11.753 -0.3777  3.2065  1.8895
 3877TIP3    H233047   5.375   3.518  11.623  2.1086  0.4721 -0.2832
 3878TIP3   OH233048   5.896   6.412  12.197 -0.5385 -0.1669 -0.2589
 3878TIP3    H133049   5.925   6.321  12.197 -1.1571 -0.3662 -0.5330
 3878TIP3    H233050   5.945   6.452  12.269 -1.9418 -1.2452  1.3726
 3879TIP3   OH233051   4.103   3.462   3.278 -0.4980  0.0751 -0.3846
 3879TIP3    H133052   4.158   3.384   3.283  0.3705  0.6485 -0.7427
 3879TIP3    H233053   4.068   3.462   3.189 -1.1280 -0.3174 -0.1405
 3880TIP3   OH233054   2.124   4.941  13.334  0.2747 -0.5470  0.2219
 3880TIP3    H133055   2.137   4.848  13.316  0.3188 -0.6856  0.9369
 3880TIP3    H233056   2.077   4.943  13.418 -0.9808  0.0369 -0.4683
 3881TIP3   OH233057   1.008   0.631  15.234  0.5179 -0.4114  0.4495
 3881TIP3    H133058   1.001   0.715  15.279  0.9772 -0.4022  0.5075
 3881TIP3    H233059   1.091   0.636  15.186  0.0188 -0.4065 -0.4284
 3882TIP3   OH233060   3.148   2.256  13.466 -0.3226 -0.0835 -0.4974
 3882TIP3    H133061   3.133   2.350  13.470 -1.6705 -0.1699 -2.1198
 3882TIP3    H233062   3.065   2.217  13.493  0.4161 -0.8467  0.7653
 3883TIP3   OH233063   6.442   4.007  10.998  0.3409  0.3567  0.1434
 3883TIP3    H133064   6.519   3.976  10.952  0.2491  0.9067 -0.3804
 3883TIP3    H233065   6.409   4.080  10.946  1.8737  2.9377  2.5092
 3884TIP3   OH233066   6.028   5.289   3.418 -0.2227 -0.1849 -0.6781
 3884TIP3    H133067   5.957   5.255   3.362 -1.8910  0.5083  0.9046
 3884TIP3    H233068   5.982   5.328   3.493  1.5765  4.0239 -1.4806
 3885TIP3   OH233069   0.714   4.699   5.125  0.2282 -0.4554 -0.0802
 3885TIP3    H133070   0.748   4.781   5.089  0.8527 -0.8574 -0.4268
 3885TIP3    H233071   0.694   4.719   5.216  1.8028 -0.3024  0.2596
 3886TIP3   OH233072   6.209   6.219   4.317  0.2149 -0.1822  0.1383
 3886TIP3    H133073   6.257   6.138   4.335 -0.1366 -0.2224  0.9055
 3886TIP3    H233074   6.118   6.199   4.337  0.1941  0.5506  0.8282
 3887TIP3   OH233075   5.181   5.219   4.809 -0.6464 -0.1559  0.0844
 3887TIP3    H133076   5.126   5.261   4.876  0.2610 -0.2922  0.9452
 3887TIP3    H233077   5.270   5.245   4.833 -0.3313  0.1826 -1.3680
 3888TIP3   OH233078   1.801   3.277   0.798  0.6910 -0.2346  0.0806
 3888TIP3    H133079   1.833   3.233   0.876  2.4382  0.2569 -0.3288
 3888TIP3    H233080   1.860   3.250   0.728  1.1434  1.8152 -0.4051
 3889TIP3   OH233081   5.810   4.317   1.784 -0.4686 -0.0049  0.5011
 3889TIP3    H133082   5.857   4.388   1.740 -1.7339  0.8622  0.5051
 3889TIP3    H233083   5.743   4.290   1.721  1.9901 -3.5355 -0.9489
 3890TIP3   OH233084   4.706   4.647   2.527 -0.6604 -0.2786 -0.0437
 3890TIP3    H133085   4.781   4.701   2.502  0.2575 -1.4313  0.0915
 3890TIP3    H233086   4.647   4.707   2.572  0.0207  0.7337 -0.4608
 3891TIP3   OH233087   2.717   4.947   0.691 -0.3872 -0.0602  0.3547
 3891TIP3    H133088   2.785   4.897   0.736 -0.1270 -1.0342 -1.0321
 3891TIP3    H233089   2.647   4.958   0.756  1.5262  2.0704  2.2396
 3892TIP3   OH233090   5.704   2.018  13.812 -0.3424  0.1395 -0.3016
 3892TIP3    H133091   5.653   1.944  13.778 -0.0073  0.4340 -1.4750
 3892TIP3    H233092   5.768   2.037  13.743 -0.2195  1.3149  0.1231
 3893TIP3   OH233093   0.383   1.134   4.629 -0.1819  0.2444  0.1829
 3893TIP3    H133094   0.402   1.050   4.672  0.0993  0.3932  0.3548
 3893TIP3    H233095   0.469   1.170   4.608 -0.2126  1.2917  1.6762
 3894TIP3   OH233096   5.192   2.725   0.868  0.4890 -0.2013  0.2886
 3894TIP3    H133097   5.164   2.736   0.777  1.0172 -0.4907  0.0926
 3894TIP3    H233098   5.173   2.634   0.889  2.7576 -0.8882 -0.3703
 3895TIP3   OH233099   1.973   0.814  14.452  0.1402  0.2667 -0.1410
 3895TIP3    H133100   1.925   0.864  14.518  2.0267  1.5806  0.3216
 3895TIP3    H233101   1.945   0.851  14.368  0.2175  0.9089  0.1120
 3896TIP3   OH233102   5.903   6.577  16.151 -0.1947  0.3920 -0.2350
 3896TIP3    H133103   5.824   6.629  16.165  0.0385  0.1112  2.8585
 3896TIP3    H233104   5.975   6.636  16.177  0.2312 -0.7283  1.2529
 3897TIP3   OH233105   2.644   4.489   4.289 -0.3224  0.3048  0.0603
 3897TIP3    H133106   2.584   4.560   4.268 -0.9680  0.0340  0.9350
 3897TIP3    H233107   2.688   4.517   4.369  0.5889  0.4186 -0.4727
 3898TIP3   OH233108   2.415   1.936  14.656 -0.4740 -0.0398  0.3535
 3898TIP3    H133109   2.484   2.002  14.653 -0.4635 -0.0881 -0.8838
 3898TIP3    H233110   2.461   1.853  14.656 -0.5154 -0.0699  0.8888
 3899TIP3   OH233111   2.598   3.293  10.406  0.4574  0.1383 -0.7674
 3899TIP3    H133112   2.578   3.386  10.399  2.6406  0.8558  1.2050
 3899TIP3    H233113   2.669   3.279  10.343  0.5221 -0.0608 -0.6528
 3900TIP3   OH233114   2.439   5.027   1.405  0.1659  0.0123  0.4973
 3900TIP3    H133115   2.396   5.109   1.430 -0.3614 -0.2422  0.4215
 3900TIP3    H233116   2.526   5.033   1.446 -0.4888 -0.1724  1.9823
 3901TIP3   OH233117   6.671   0.369   5.626 -0.8100 -0.0546  0.1899
 3901TIP3    H133118   6.607   0.316   5.674  0.2618 -1.3420  0.2511
 3901TIP3    H233119   6.697   0.314   5.552  0.5468  0.2451  0.4166
 3902TIP3   OH233120   5.632   3.000   5.543 -0.5005 -0.8812  0.4354
 3902TIP3    H133121   5.717   3.013   5.585  1.2346 -2.4553 -2.2702
 3902TIP3    H233122   5.597   3.088   5.531  0.7837 -0.1874  1.5003
 3903TIP3   OH233123   2.127   2.886  14.426  0.0229 -0.1172 -0.0449
 3903TIP3    H133124   2.179   2.930  14.494 -2.2769  0.5804  1.3619
 3903TIP3    H233125   2.163   2.797  14.422  1.5651  0.4444  0.5565
 3904TIP3   OH233126   2.799   5.670   3.961 -0.0316 -0.1166 -0.3170
 3904TIP3    H133127   2.845   5.631   3.887  0.1430  0.7627 -0.6902
 3904TIP3    H233128   2.715   5.625   3.964 -0.0877 -0.0779 -1.1276
 3905TIP3   OH233129   3.649   3.636  16.464  0.1062  0.2470  0.7061
 3905TIP3    H133130   3.744   3.630  16.453  0.0627 -1.3415  0.9655
 3905TIP3    H233131   3.621   3.546  16.481 -1.4282  0.7194  0.8346
 3906TIP3   OH233132   0.455   4.845   0.879 -0.2548 -0.0764  0.3345
 3906TIP3    H133133   0.407   4.773   0.838 -0.2820 -0.3660  0.8626
 3906TIP3    H233134   0.414   4.855   0.965  1.7124 -1.4814  1.5057
 3907TIP3   OH233135   5.335   1.918   3.560 -0.4328 -0.4157  0.3623
 3907TIP3    H133136   5.268   1.986   3.548  0.5456  0.3686 -0.9366
 3907TIP3    H233137   5.366   1.931   3.650  0.1503  1.3022 -0.0369
 3908TIP3   OH233138   0.787   1.024  14.103 -0.0703 -0.2241 -0.4344
 3908TIP3    H133139   0.869   0.997  14.064  0.0004  0.6649 -0.9219
 3908TIP3    H233140   0.794   1.119  14.111 -0.4141 -0.2892  0.9754
 3909TIP3   OH233141   0.170   5.138   5.090 -0.1054  0.4061 -0.2013
 3909TIP3    H133142   0.162   5.057   5.140  2.0409  0.1780 -0.1481
 3909TIP3    H233143   0.110   5.199   5.134 -2.2280 -1.2664 -0.6138
 3910TIP3   OH233144   1.363   5.688   3.020 -0.6884 -0.3719  0.2094
 3910TIP3    H133145   1.414   5.607   3.012 -0.3925 -0.2541  0.8532
 3910TIP3    H233146   1.278   5.666   2.981 -0.9741 -1.3324  1.2987
 3911TIP3   OH233147   3.539   6.543   1.506  0.2813 -0.5316  0.0261
 3911TIP3    H133148   3.551   6.629   1.546  1.3915 -0.2592 -0.8501
 3911TIP3    H233149   3.627   6.504   1.505  0.2550 -0.6512 -1.8017
 3912TIP3   OH233150   0.126   2.317  15.227 -0.0761  0.1642  0.2498
 3912TIP3    H133151   0.115   2.353  15.315 -1.7424 -1.0760  0.5939
 3912TIP3    H233152   0.213   2.278  15.228  0.8418  2.0846  0.5906
 3913TIP3   OH233153   4.506   2.855   4.073 -0.2405  0.5600  0.1327
 3913TIP3    H133154   4.546   2.942   4.081 -0.4626  0.9104 -1.9857
 3913TIP3    H233155   4.471   2.836   4.159  2.7368  1.0980  1.5965
 3914TIP3   OH233156   0.199   5.295   3.874 -0.1786 -0.6331  0.3637
 3914TIP3    H133157   0.260   5.328   3.808 -0.0558 -1.7385 -0.0997
 3914TIP3    H233158   0.249   5.296   3.956  0.0833 -0.4645  0.2044
 3915TIP3   OH233159   6.122   4.389  11.829 -0.0677  0.7892  0.5640
 3915TIP3    H133160   6.075   4.433  11.899  2.3481  0.5945  2.4416
 3915TIP3    H233161   6.213   4.385  11.859  0.6129 -1.6815 -1.4011
 3916TIP3   OH233162   4.883   1.856   2.288  0.1932 -0.2777  0.4776
 3916TIP3    H133163   4.807   1.886   2.238  0.8176  0.0324 -0.2915
 3916TIP3    H233164   4.924   1.937   2.320 -0.2420 -0.4695  1.5848
 3917TIP3   OH233165   1.958   4.817   2.905  0.3936  0.1677  0.0249
 3917TIP3    H133166   1.931   4.773   2.824  2.2019  0.7412 -0.9502
 3917TIP3    H233167   1.938   4.754   2.974 -1.1156 -0.3695 -0.8529
 3918TIP3   OH233168   4.407   5.364  11.703  0.1653 -0.2761  0.1628
 3918TIP3    H133169   4.420   5.430  11.770 -1.3806  0.4793 -0.2342
 3918TIP3    H233170   4.491   5.359  11.657  1.0930 -0.4392  1.7698
 3919TIP3   OH233171   3.874   3.548  15.023  0.1480 -0.1998 -0.3117
 3919TIP3    H133172   3.781   3.566  15.010  0.0401 -0.5234 -0.0209
 3919TIP3    H233173   3.909   3.536  14.935  0.1632  1.0890 -0.4955
 3920TIP3   OH233174   2.019   5.976  12.463 -0.1407  0.3714 -0.3076
 3920TIP3    H133175   2.052   5.941  12.546 -0.0608  0.4017 -0.3274
 3920TIP3    H233176   2.034   6.070  12.469 -0.7836  0.4633 -0.0560
 3921TIP3   OH233177   1.279   0.360  15.849  0.3168  0.5755 -0.4512
 3921TIP3    H133178   1.235   0.320  15.775 -0.9219  1.4448 -0.2094
 3921TIP3    H233179   1.314   0.443  15.815  1.5330  0.0447 -0.5609
 3922TIP3   OH233180   5.091   6.080  15.450  0.2029  0.0866 -0.7162
 3922TIP3    H133181   5.158   6.146  15.466  0.3496  0.5620 -2.9683
 3922TIP3    H233182   5.134   5.997  15.468  1.0999  0.4422 -1.1748
 3923TIP3   OH233183   3.956   0.508   5.335  0.2846 -0.2408  0.9742
 3923TIP3    H133184   3.977   0.589   5.288 -0.8151 -0.4440  0.0803
 3923TIP3    H233185   3.955   0.532   5.427  1.5920  0.3811  0.8502
 3924TIP3   OH233186   2.677   4.637  12.406 -0.3757 -0.0117  0.3880
 3924TIP3    H133187   2.613   4.675  12.346 -0.0500  1.3017  0.8346
 3924TIP3    H233188   2.762   4.654  12.365 -0.1975  0.1585  0.8185
 3925TIP3   OH233189   0.851   1.075  11.983  0.4690  0.3808 -0.5018
 3925TIP3    H133190   0.840   1.114  11.896 -0.5718 -0.7513 -0.9126
 3925TIP3    H233191   0.914   1.004  11.969  1.3569  1.0493 -0.0263
 3926TIP3   OH233192   0.194   1.133   5.678 -0.0172 -0.6809 -0.3722
 3926TIP3    H133193   0.158   1.132   5.589 -2.5391 -0.2243  0.5381
 3926TIP3    H233194   0.195   1.226   5.701  4.3306 -0.3365 -1.1725
 3927TIP3   OH233195   5.261   0.898  12.273 -0.3941 -0.0299 -0.3104
 3927TIP3    H133196   5.248   0.934  12.360 -0.3879 -1.2161  0.1957
 3927TIP3    H233197   5.204   0.951  12.216  0.8392  1.8227  0.1128
 3928TIP3   OH233198   0.759   3.436   6.070  0.5046  0.5126  0.1524
 3928TIP3    H133199   0.725   3.517   6.032  0.7185 -0.0137 -1.2305
 3928TIP3    H233200   0.847   3.457   6.098  0.2491  0.9853  0.6182
 3929TIP3   OH233201   5.364   1.038  11.720  0.4621 -0.1014 -0.4089
 3929TIP3    H133202   5.328   0.989  11.794  0.8141  0.7462  0.3550
 3929TIP3    H233203   5.411   0.973  11.668  0.3304 -0.6920  0.1979
 3930TIP3   OH233204   0.070   6.135  15.126 -0.1227  0.2603 -0.0848
 3930TIP3    H133205   0.052   6.220  15.085  0.3124 -0.3987 -1.7612
 3930TIP3    H233206   0.008   6.075  15.083 -0.8961 -0.1778  1.5593
 3931TIP3   OH233207   2.931   5.866   4.842 -0.0620  0.0428 -0.4087
 3931TIP3    H133208   2.887   5.826   4.917 -0.2746  1.2095  0.0979
 3931TIP3    H233209   2.891   5.952   4.833  0.0303 -0.0413 -1.8153
 3932TIP3   OH233210   3.423   1.117  15.479 -0.2035  0.5073 -0.7781
 3932TIP3    H133211   3.433   1.074  15.393  0.6484  1.4948 -1.1944
 3932TIP3    H233212   3.499   1.086  15.529 -3.2497 -4.3100  1.6201
 3933TIP3   OH233213   6.221   4.143  16.131 -0.5359  0.3797 -0.3073
 3933TIP3    H133214   6.160   4.194  16.078 -0.5653 -0.4696 -1.1095
 3933TIP3    H233215   6.166   4.102  16.198 -0.2711  2.8962  1.6056
 3934TIP3   OH233216   4.453   0.550  10.999  0.0936 -0.0632 -0.5836
 3934TIP3    H133217   4.392   0.605  11.048  0.2053  0.1048 -0.6328
 3934TIP3    H233218   4.410   0.536  10.915 -1.0905 -2.0964  0.2650
 3935TIP3   OH233219   4.370   1.016  13.038 -0.0095  0.5028 -0.2798
 3935TIP3    H133220   4.292   0.986  13.084 -0.1403  1.5296  0.1897
 3935TIP3    H233221   4.343   1.023  12.946 -1.0416  2.6361  0.1439
 3936TIP3   OH233222   6.068   0.436  16.648  0.1964  0.2625 -0.3759
 3936TIP3    H133223   6.014   0.358  16.640 -1.9084  1.7575 -1.6265
 3936TIP3    H233224   6.158   0.405  16.635 -0.4829 -2.0479  0.1145
 3937TIP3   OH233225   4.413   5.232   5.746  0.0598  0.3349  0.7359
 3937TIP3    H133226   4.488   5.283   5.776  1.2276 -1.3197  0.7665
 3937TIP3    H233227   4.444   5.185   5.669 -0.9202 -0.4511  0.7888
 3938TIP3   OH233228   4.890   4.773  11.155  0.5430 -0.2761  0.3489
 3938TIP3    H133229   4.927   4.790  11.069  1.2426  2.2175  1.0604
 3938TIP3    H233230   4.953   4.715  11.198  1.0651 -0.1064 -0.1890
 3939TIP3   OH233231   4.317   0.474  12.858  0.2352 -0.0308  0.4568
 3939TIP3    H133232   4.311   0.569  12.848  0.3016  0.1492  1.9245
 3939TIP3    H233233   4.369   0.446  12.783  0.9059  1.2023  0.4191
 3940TIP3   OH233234   1.093   2.047   5.296  0.4847 -0.0261 -0.3282
 3940TIP3    H133235   1.065   2.020   5.383  1.8494  2.4372  1.0007
 3940TIP3    H233236   1.014   2.081   5.254  0.0150 -0.2567  0.3696
 3941TIP3   OH233237   4.396   1.181  10.743  0.0096 -0.3345  0.3839
 3941TIP3    H133238   4.380   1.143  10.656 -0.8680  1.3246 -0.2277
 3941TIP3    H233239   4.425   1.108  10.796 -0.1919 -1.5522 -1.1087
 3942TIP3   OH233240   0.158   6.381  14.940  0.5210 -0.1186 -0.8738
 3942TIP3    H133241   0.251   6.394  14.962  0.6740  0.4293 -1.8101
 3942TIP3    H233242   0.115   6.460  14.973  0.3385 -0.4774 -0.2303
 3943TIP3   OH233243   5.894   4.653   4.951 -0.3577  0.1650 -0.2935
 3943TIP3    H133244   5.878   4.748   4.957  0.1050  0.2159  0.1778
 3943TIP3    H233245   5.931   4.630   5.036  0.7005 -0.2198 -0.8490
 3944TIP3   OH233246   2.206   0.153   1.946  0.2996 -0.4967 -0.3939
 3944TIP3    H133247   2.146   0.219   1.913  1.3254  0.4944 -0.3723
 3944TIP3    H233248   2.281   0.204   1.979  1.2262 -1.6820 -0.5941
 3945TIP3   OH233249   2.420   0.186   1.672  0.2308  0.1127 -0.1907
 3945TIP3    H133250   2.408   0.114   1.610  0.8237  0.9503 -1.3163
 3945TIP3    H233251   2.429   0.264   1.617  0.7242  0.8923  0.9542
 3946TIP3   OH233252   4.487   1.032   5.200  0.0005  0.2002  0.2629
 3946TIP3    H133253   4.501   1.116   5.155  0.8116  0.1974  0.4879
 3946TIP3    H233254   4.429   0.983   5.142  1.5282 -0.0522 -1.1492
 3947TIP3   OH233255   2.627   0.396   5.779 -0.2350  0.1203  0.5356
 3947TIP3    H133256   2.658   0.460   5.716 -2.5405 -0.0590 -0.8984
 3947TIP3    H233257   2.669   0.314   5.753  1.1506  0.6116  1.1366
 3948TIP3   OH233258   2.285   0.979  11.707 -0.8224 -0.1048  0.7292
 3948TIP3    H133259   2.319   0.972  11.797 -0.1909 -1.3386  0.4196
 3948TIP3    H233260   2.327   1.058  11.672 -0.0899 -0.3000  1.1284
 3949TIP3   OH233261   3.626   1.167  17.103 -0.1748 -0.3803 -0.1403
 3949TIP3    H133262   3.619   1.121  17.019  0.6046  0.7932 -0.8814
 3949TIP3    H233263   3.592   1.254  17.086 -0.4684 -0.2711  0.9107
 3950TIP3   OH233264   5.562   1.099   1.408  0.0427  0.0470 -0.6918
 3950TIP3    H133265   5.583   1.184   1.369  1.1584 -0.0433 -0.3152
 3950TIP3    H233266   5.608   1.035   1.353 -0.4196 -0.2767 -0.7052
 3951TIP3   OH233267   3.978   5.516  14.874  0.3132 -0.1114  0.4494
 3951TIP3    H133268   4.055   5.462  14.858 -0.2880 -1.0380  0.6279
 3951TIP3    H233269   3.938   5.528  14.788  0.5564  0.2305  0.3804
 3952TIP3   OH233270   1.598   3.808   5.053  0.2839  0.8365 -0.8832
 3952TIP3    H133271   1.562   3.727   5.015  0.7973  0.5309 -0.7346
 3952TIP3    H233272   1.693   3.794   5.051  0.4327  1.8441 -1.7699
 3953TIP3   OH233273   5.027   2.072   2.366  0.2213  0.5114 -0.1110
 3953TIP3    H133274   5.041   2.081   2.461 -1.2904 -0.4248  0.2362
 3953TIP3    H233275   5.076   2.145   2.328 -1.3073  2.5730  1.5980
 3954TIP3   OH233276   3.354   3.050  14.171 -0.5469 -0.0568  0.0037
 3954TIP3    H133277   3.284   3.021  14.112 -1.6874  4.4488 -1.2771
 3954TIP3    H233278   3.435   3.033  14.123 -1.1670 -0.2434 -1.0058
 3955TIP3   OH233279   4.953   3.178   0.443  0.5070  0.7532  0.4601
 3955TIP3    H133280   5.009   3.204   0.516  0.5554  2.2057 -0.0573
 3955TIP3    H233281   4.891   3.250   0.433  0.0472  0.2534 -0.4848
 3956TIP3   OH233282   0.026   6.393   6.835 -0.2639  0.2499  0.0196
 3956TIP3    H133283  -0.014   6.453   6.772  1.1844  0.9054 -0.3217
 3956TIP3    H233284   0.012   6.435   6.920  0.6516  1.0383 -0.2091
 3957TIP3   OH233285   2.987   0.978  11.381 -0.0480 -0.5481 -0.1652
 3957TIP3    H133286   3.078   1.000  11.403 -0.2049 -1.8978  2.2354
 3957TIP3    H233287   2.939   0.994  11.462 -1.6280 -1.5363 -0.8653
 3958TIP3   OH233288   3.951   3.061   0.778 -0.2832 -0.0097  0.3365
 3958TIP3    H133289   3.923   2.992   0.719  0.7154 -1.3751  1.4105
 3958TIP3    H233290   3.939   3.025   0.865  1.9176  0.4651  0.9044
 3959TIP3   OH233291   3.679   4.940  13.986  0.7318 -0.3738 -0.2789
 3959TIP3    H133292   3.758   4.930  13.933  0.9520 -1.2067  0.1903
 3959TIP3    H233293   3.609   4.906  13.931  0.6619  0.4868 -0.7470
 3960TIP3   OH233294   5.170   0.274  12.181  0.2902 -0.6205  0.3282
 3960TIP3    H133295   5.134   0.186  12.165 -1.8599  0.3605 -0.6594
 3960TIP3    H233296   5.190   0.308  12.094 -0.9531  0.6423  0.5041
 3961TIP3   OH233297   3.334   0.494   3.748 -0.5857 -0.3021 -0.3031
 3961TIP3    H133298   3.254   0.527   3.707 -0.6251  0.0084  0.0265
 3961TIP3    H233299   3.314   0.491   3.842 -0.4417 -0.8682 -0.2847
 3962TIP3   OH233300   4.639   0.397  15.116 -1.1846  0.0531 -0.3597
 3962TIP3    H133301   4.612   0.443  15.036  0.1945  1.7904  0.1166
 3962TIP3    H233302   4.647   0.466  15.182 -0.7406 -1.1303  0.8729
 3963TIP3   OH233303   2.630   4.684  16.944 -0.0250 -0.1075 -0.0370
 3963TIP3    H133304   2.664   4.755  16.891 -0.7874  1.2635  1.2476
 3963TIP3    H233305   2.563   4.724  16.999 -2.5106 -2.3333 -1.1950
 3964TIP3   OH233306   0.854   5.478  15.910  0.7141  0.0495 -0.4160
 3964TIP3    H133307   0.884   5.568  15.904 -0.2734  0.3849 -0.4743
 3964TIP3    H233308   0.765   5.480  15.874  0.6060 -0.9032 -0.2257
 3965TIP3   OH233309   2.134   5.672  15.958  0.5782  0.0761  0.1344
 3965TIP3    H133310   2.088   5.670  16.042 -0.6989  1.0406 -0.5174
 3965TIP3    H233311   2.070   5.642  15.894  0.9706  1.0554 -0.7400
 3966TIP3   OH233312   5.893   3.556  15.445  0.0352 -0.2291 -0.5235
 3966TIP3    H133313   5.802   3.525  15.453 -0.6875  1.6246 -1.0762
 3966TIP3    H233314   5.923   3.566  15.535  0.2139 -2.2120 -0.3244
 3967TIP3   OH233315   3.407   3.199   4.569  0.2489 -0.3549 -0.0150
 3967TIP3    H133316   3.333   3.232   4.518  0.7053 -0.6078 -0.8733
 3967TIP3    H233317   3.367   3.142   4.635 -0.3443 -0.2178 -0.2480
 3968TIP3   OH233318   3.715   4.887  11.667  0.1609 -0.4183  0.3016
 3968TIP3    H133319   3.703   4.793  11.655  1.1599 -0.5017 -0.0771
 3968TIP3    H233320   3.773   4.895  11.743 -0.3055 -0.0864  0.6311
 3969TIP3   OH233321   4.184   6.242   5.442  0.0950 -0.5092  0.5312
 3969TIP3    H133322   4.249   6.240   5.512 -0.4433 -0.0579  1.0576
 3969TIP3    H233323   4.122   6.310   5.469 -1.5518 -2.0794  0.9218
 3970TIP3   OH233324   4.996   5.592  14.157  0.1342 -0.5888 -0.5227
 3970TIP3    H133325   5.038   5.622  14.076 -0.7354  0.5700 -0.5705
 3970TIP3    H233326   5.025   5.654  14.224 -0.0202 -0.8889 -0.1743
 3971TIP3   OH233327   4.647   3.841  12.896 -0.3659  0.2160  0.2708
 3971TIP3    H133328   4.617   3.789  12.821 -1.0386  0.8005  0.1267
 3971TIP3    H233329   4.567   3.864  12.942  0.0359 -0.0044  1.0894
 3972TIP3   OH233330   3.546   6.249   5.365 -0.1710  0.3973  0.6172
 3972TIP3    H133331   3.580   6.312   5.428 -1.8639  1.6933  0.2895
 3972TIP3    H233332   3.563   6.289   5.280 -2.2006  0.9736  0.4340
 3973TIP3   OH233333   0.001   5.682   6.115 -0.0606  0.5970  0.1698
 3973TIP3    H133334   0.044   5.675   6.201 -0.2323 -0.3369  0.2004
 3973TIP3    H233335  -0.093   5.676   6.135 -0.0714 -1.2081 -0.1656
 3974TIP3   OH233336   4.644   1.086  15.353  0.2465  0.5765  0.0751
 3974TIP3    H133337   4.704   1.154  15.386 -1.0701  3.3858 -2.7423
 3974TIP3    H233338   4.559   1.108  15.391 -0.1080  0.1736 -0.4688
 3975TIP3   OH233339   5.258   0.334  14.478  0.3317 -0.3966 -0.2423
 3975TIP3    H133340   5.352   0.323  14.458  0.4090  1.0386 -0.7685
 3975TIP3    H233341   5.256   0.366  14.568  0.2643 -1.5327  0.1793
 3976TIP3   OH233342   3.487   2.195   2.312  0.0428  0.1746 -0.0694
 3976TIP3    H133343   3.530   2.209   2.396  0.6609  0.0205 -0.3595
 3976TIP3    H233344   3.540   2.129   2.268  0.0986  0.7386 -0.8544
 3977TIP3   OH233345   2.579   0.050   0.927 -0.2635  0.7371  0.4130
 3977TIP3    H133346   2.640   0.076   0.996 -0.7330 -0.6007  1.3666
 3977TIP3    H233347   2.629   0.057   0.846  0.7373  0.9481  1.0373
 3978TIP3   OH233348   0.363   1.578   1.123 -0.2953 -0.1925  0.6565
 3978TIP3    H133349   0.373   1.527   1.043  0.1777  1.5720 -0.4563
 3978TIP3    H233350   0.270   1.574   1.143 -0.6328  0.3943 -0.7236
 3979TIP3   OH233351   5.180   3.654   5.975  0.4746  0.0195 -0.3322
 3979TIP3    H133352   5.117   3.653   6.047  2.5189 -0.9235  1.5666
 3979TIP3    H233353   5.187   3.747   5.951 -0.2621  0.3558  0.6685
 3980TIP3   OH233354   5.879   1.060   4.575 -0.1877 -0.3459 -0.0091
 3980TIP3    H133355   5.834   1.022   4.651  1.9509 -1.1203  0.9391
 3980TIP3    H233356   5.961   1.094   4.611  1.5142 -1.9301 -2.1479
 3981TIP3   OH233357   0.819   3.696   1.669  0.0048  0.1629 -0.6229
 3981TIP3    H133358   0.894   3.746   1.700  0.3640 -0.0523 -1.1224
 3981TIP3    H233359   0.847   3.605   1.675 -0.4790  0.0441 -0.1412
 3982TIP3   OH233360   1.295   1.365   1.517 -0.2128  0.0531 -0.5125
 3982TIP3    H133361   1.207   1.399   1.534  0.3009  1.1974 -0.0474
 3982TIP3    H233362   1.297   1.280   1.561 -1.6684 -0.8620 -2.0630
 3983TIP3   OH233363   0.698   6.770   1.694 -0.3199 -0.8302  0.2470
 3983TIP3    H133364   0.793   6.777   1.685 -0.3277  0.3521  0.9179
 3983TIP3    H233365   0.668   6.743   1.607  0.4631  0.8046 -0.5771
 3984TIP3   OH233366   1.238   2.496  15.190  0.4185  0.3117 -0.6287
 3984TIP3    H133367   1.287   2.575  15.211  1.5769 -0.7201  0.7676
 3984TIP3    H233368   1.304   2.429  15.175 -0.5341 -0.7273 -0.3538
 3985TIP3   OH233369   4.926   5.707  14.963 -0.1263 -0.0450 -0.2367
 3985TIP3    H133370   4.934   5.795  14.924 -0.5779  0.5852  1.0255
 3985TIP3    H233371   4.845   5.672  14.927 -0.8894  0.7988  0.6014
 3986TIP3   OH233372   4.988   1.255   4.705 -0.5676  0.0487 -0.1087
 3986TIP3    H133373   4.933   1.241   4.782 -0.1450 -0.7680  0.0518
 3986TIP3    H233374   5.026   1.169   4.686 -1.4698 -0.0189 -1.8547
 3987TIP3   OH233375   0.189   3.708   0.733 -0.3161  0.2470 -0.2081
 3987TIP3    H133376   0.148   3.666   0.808  0.1995 -0.9492 -0.5782
 3987TIP3    H233377   0.128   3.692   0.660  1.0169 -2.0947 -0.9055
 3988TIP3   OH233378   5.119   2.262  15.431  0.7233  0.8164 -0.2685
 3988TIP3    H133379   5.178   2.300  15.366 -0.4825  0.8463 -1.3855
 3988TIP3    H233380   5.059   2.334  15.454 -0.3762  0.1467 -0.9670
 3989TIP3   OH233381   0.594   0.725   2.305  0.3089  0.4969  0.4004
 3989TIP3    H133382   0.668   0.676   2.341  0.2791  0.8587  0.9731
 3989TIP3    H233383   0.516   0.678   2.335  0.2983  0.2552  0.0020
 3990TIP3   OH233384   5.164   4.227   1.560  0.1038 -0.0792 -0.8573
 3990TIP3    H133385   5.094   4.184   1.608  0.0389  1.2920  0.3332
 3990TIP3    H233386   5.232   4.244   1.625  1.7134 -1.6051 -2.0281
 3991TIP3   OH233387   3.300   4.638   0.734 -0.1649  0.2046  0.1229
 3991TIP3    H133388   3.263   4.692   0.664 -1.2072  1.0275  1.2718
 3991TIP3    H233389   3.295   4.549   0.700 -0.9184  0.5533 -0.7293
 3992TIP3   OH233390   3.970   3.762   1.075 -0.0265  0.6769 -0.4280
 3992TIP3    H133391   3.973   3.793   1.165 -0.6671 -0.5638  0.0432
 3992TIP3    H233392   4.057   3.723   1.060 -0.6226 -1.1221  0.4422
 3993TIP3   OH233393   0.364   1.920   2.251  0.5431 -0.1039 -0.1878
 3993TIP3    H133394   0.411   1.936   2.169  2.0041 -0.6403  0.5117
 3993TIP3    H233395   0.433   1.901   2.315 -0.6066 -0.3891  1.0092
 3994TIP3   OH233396   2.127   0.153   1.301  0.3078  0.0459 -0.0755
 3994TIP3    H133397   2.093   0.242   1.295  1.5557  0.5164 -0.4043
 3994TIP3    H233398   2.220   0.161   1.281  0.4280 -1.3455 -0.1813
 3995TIP3   OH233399   4.484   0.532  15.817  0.1150  0.4814  0.1337
 3995TIP3    H133400   4.426   0.560  15.746 -0.4162 -0.3243  0.2478
 3995TIP3    H233401   4.452   0.446  15.843 -0.6677  1.3828  2.4151
 3996TIP3   OH233402   6.584   5.660   3.118 -0.2853 -0.1698  0.3169
 3996TIP3    H133403   6.621   5.747   3.126  1.2639 -0.7627  0.0097
 3996TIP3    H233404   6.525   5.666   3.042  0.5816  0.3712 -0.3331
 3997TIP3   OH233405   1.347   4.410  15.276  0.8668 -0.0335 -0.8144
 3997TIP3    H133406   1.397   4.350  15.220  1.8479  0.1702 -0.1840
 3997TIP3    H233407   1.402   4.489  15.282  1.2293 -0.3751  1.1298
 3998TIP3   OH233408   6.625   3.556   1.866 -0.8560  0.0906 -0.2351
 3998TIP3    H133409   6.638   3.489   1.798  0.2697  0.8232 -0.7760
 3998TIP3    H233410   6.640   3.510   1.948 -4.3255 -1.3549 -0.2401
 3999TIP3   OH233411   1.584   5.197   2.115  0.2194 -0.8088 -0.7984
 3999TIP3    H133412   1.552   5.197   2.206 -1.4921  1.2354 -1.3017
 3999TIP3    H233413   1.613   5.107   2.099  0.7910 -1.1657  1.8299
 4000TIP3   OH233414   6.193   1.996  14.437 -0.2838  0.0315  0.3705
 4000TIP3    H133415   6.240   2.078  14.421 -2.1420  0.7167 -2.4808
 4000TIP3    H233416   6.262   1.932  14.454  1.4136  1.6785  0.0910
 4001TIP3   OH233417   5.612   1.417  13.743 -0.4683 -0.6399 -0.1041
 4001TIP3    H133418   5.605   1.329  13.708  0.8399 -0.2117 -1.5270
 4001TIP3    H233419   5.608   1.406  13.838 -0.4808 -2.1977 -0.2733
 4002TIP3   OH233420   2.660   3.682   4.152  0.3260  0.0125 -0.4711
 4002TIP3    H133421   2.663   3.614   4.085  2.2040  0.5346 -0.9567
 4002TIP3    H233422   2.581   3.662   4.203 -0.2809 -1.3053 -1.8574
 4003TIP3   OH233423   1.876   2.452   5.127 -0.6766 -0.3566 -0.4774
 4003TIP3    H133424   1.902   2.407   5.207 -0.5389 -1.6723 -1.2316
 4003TIP3    H233425   1.934   2.416   5.059 -1.1578  0.3189 -1.2706
 4004TIP3   OH233426   2.671   2.048  13.625 -0.5551  0.1322  0.1943
 4004TIP3    H133427   2.657   2.136  13.591  0.4488 -0.2844 -1.4056
 4004TIP3    H233428   2.636   2.050  13.714 -0.0246  2.3168  0.3934
 4005TIP3   OH233429   0.677   1.724  16.698  0.0341 -0.1983 -0.5613
 4005TIP3    H133430   0.759   1.763  16.670  1.0805 -0.6974  1.5735
 4005TIP3    H233431   0.688   1.630  16.682 -0.3157 -0.2161 -0.7117
 4006TIP3   OH233432   1.833   5.704   1.209 -0.1495  0.1889 -0.2370
 4006TIP3    H133433   1.896   5.642   1.172 -0.8674 -0.7622  0.0853
 4006TIP3    H233434   1.764   5.710   1.143 -1.1841 -1.1239  0.6645
 4007TIP3   OH233435   0.888   1.962   5.495  0.0526 -0.5207  0.2048
 4007TIP3    H133436   0.808   1.947   5.445 -0.0517  0.6259 -0.0025
 4007TIP3    H233437   0.868   2.036   5.551  1.2798  0.4828 -0.6153
 4008TIP3   OH233438   2.818   5.663   2.539 -0.2175 -0.1673 -0.0879
 4008TIP3    H133439   2.834   5.586   2.484  0.0450  0.0242 -0.2769
 4008TIP3    H233440   2.791   5.731   2.478  3.7633  1.2269 -0.5530
 4009TIP3   OH233441   5.154   3.955  15.410  0.0706  0.5636 -0.1123
 4009TIP3    H133442   5.140   3.888  15.478 -1.7248 -1.0979 -1.9464
 4009TIP3    H233443   5.247   3.950  15.391  0.0559 -1.2563  0.0382
 4010TIP3   OH233444   6.141   1.298   1.615 -0.4948 -0.1376  0.0945
 4010TIP3    H133445   6.235   1.285   1.625 -0.2768  0.3913 -1.0339
 4010TIP3    H233446   6.119   1.248   1.536 -1.1282 -0.1307  0.2671
 4011TIP3   OH233447   3.904   4.431   2.027  0.3557 -0.2202 -0.2442
 4011TIP3    H133448   3.861   4.383   1.956  0.1466 -1.3937  0.6547
 4011TIP3    H233449   3.855   4.407   2.106  0.6267  1.0115  0.3294
 4012TIP3   OH233450   3.847   1.089  15.677 -0.1971 -0.7145 -0.5738
 4012TIP3    H133451   3.916   1.042  15.724  0.8907 -0.3897 -1.7559
 4012TIP3    H233452   3.884   1.102  15.589 -2.0505 -1.1211 -1.4476
 4013TIP3   OH233453   2.226   3.093  16.679  0.2516  0.8028  0.1016
 4013TIP3    H133454   2.133   3.072  16.668  0.1535  1.7133 -0.9746
 4013TIP3    H233455   2.255   3.037  16.751 -1.3044  1.0151  0.9303
 4014TIP3   OH233456   6.533   6.756  13.520 -0.2774  0.6648 -0.0054
 4014TIP3    H133457   6.563   6.810  13.593  1.9832 -0.2219 -0.1924
 4014TIP3    H233458   6.491   6.680  13.562  1.7621 -0.2694  0.4985
 4015TIP3   OH233459   3.623   5.875  16.540  0.3009  0.2911 -0.5399
 4015TIP3    H133460   3.554   5.874  16.607  1.0476  1.8910  0.3254
 4015TIP3    H233461   3.588   5.821  16.469 -1.3537  0.1268  0.3311
 4016TIP3   OH233462   0.861   1.660  12.092 -0.3106 -0.1013  0.2968
 4016TIP3    H133463   0.882   1.590  12.154 -2.2832 -0.5944  0.4820
 4016TIP3    H233464   0.835   1.614  12.012  1.9759  0.5231 -0.8810
 4017TIP3   OH233465   1.130   3.417  16.431 -0.2879 -0.2620 -0.1399
 4017TIP3    H133466   1.140   3.469  16.511  0.0766 -0.0809 -0.3059
 4017TIP3    H233467   1.044   3.442  16.397 -0.2653 -0.0300 -0.0286
 4018TIP3   OH233468   2.154   2.147  14.219  0.5547  0.4822  0.1832
 4018TIP3    H133469   2.087   2.195  14.171  0.7323 -0.2608 -0.8493
 4018TIP3    H233470   2.126   2.151  14.310 -0.9275  0.1341 -0.2310
 4019TIP3   OH233471   2.092   1.524  13.657  0.0026 -0.3030 -0.6718
 4019TIP3    H133472   2.073   1.529  13.563  1.4826  0.0829 -0.9726
 4019TIP3    H233473   2.182   1.555  13.665 -0.7176  1.5483  1.1272
 4020TIP3   OH233474   4.625   3.094   4.067  0.4566  0.0686  0.5130
 4020TIP3    H133475   4.706   3.056   4.101  0.1692 -1.8422 -0.7636
 4020TIP3    H233476   4.653   3.168   4.014  1.2583  0.2266  1.1383
 4021TIP3   OH233477   5.476   3.285   0.951 -0.0310 -0.8810  0.1341
 4021TIP3    H133478   5.447   3.249   0.867  0.3533 -0.1330 -0.3282
 4021TIP3    H233479   5.395   3.292   1.003 -0.6464  0.7204 -0.9634
 4022TIP3   OH233480   2.763   1.288  16.769  0.6834 -0.2002  0.0717
 4022TIP3    H133481   2.756   1.327  16.682  0.7091 -0.3842 -0.0133
 4022TIP3    H233482   2.830   1.220  16.760 -0.3567 -1.2253 -0.1442
 4023TIP3   OH233483   2.714   1.223   5.254 -0.1259 -0.2136  0.4539
 4023TIP3    H133484   2.650   1.182   5.195 -0.7839  0.7065  0.5152
 4023TIP3    H233485   2.673   1.305   5.282  0.7581  0.0234  1.1119
 4024TIP3   OH233486   5.227   1.442  11.935 -0.8746 -0.3383 -0.3040
 4024TIP3    H133487   5.169   1.491  11.994 -1.2276  0.2840 -1.1504
 4024TIP3    H233488   5.312   1.441  11.980 -1.4175 -0.8797  0.7457
 4025TIP3   OH233489   0.003   1.920   2.804 -0.5192  0.4708  0.3523
 4025TIP3    H133490   0.048   1.950   2.883  2.4938 -1.6145 -0.4063
 4025TIP3    H233491   0.033   1.981   2.736 -0.6865  0.4537  0.2644
 4026TIP3   OH233492   0.416   0.259   1.045 -0.2584  0.0137 -0.4189
 4026TIP3    H133493   0.464   0.198   0.989  2.1164  1.5685 -0.2300
 4026TIP3    H233494   0.411   0.215   1.130 -0.3748 -0.7462 -0.8179
 4027TIP3   OH233495   0.490   2.935  16.510  0.6284  0.2885 -0.9748
 4027TIP3    H133496   0.534   2.874  16.569  2.2520  1.2169 -1.1770
 4027TIP3    H233497   0.515   2.906  16.422 -0.0344  0.2042 -1.1434
 4028TIP3   OH233498   2.375   4.691  12.335  0.4033 -0.1596  0.2513
 4028TIP3    H133499   2.350   4.723  12.421 -1.8698  0.1209 -0.4367
 4028TIP3    H233500   2.323   4.744  12.274  0.0263 -2.0292 -1.1438
 4029TIP3   OH233501   0.280   5.860   2.131  0.8405  0.4012 -0.0838
 4029TIP3    H133502   0.244   5.948   2.114  0.8676  0.2038 -1.2888
 4029TIP3    H233503   0.342   5.846   2.059  0.1263 -0.9791 -0.4723
 4030TIP3   OH233504   2.911   6.580   2.149 -0.1388 -0.8142  0.0058
 4030TIP3    H133505   2.909   6.576   2.054  0.2612  1.8186 -0.1843
 4030TIP3    H233506   2.826   6.615   2.174 -0.3689 -1.8057  0.6713
 4031TIP3   OH233507   3.793   1.426  16.769 -0.1006 -0.5058  0.3445
 4031TIP3    H133508   3.830   1.338  16.764 -0.3343 -0.5810 -0.1156
 4031TIP3    H233509   3.859   1.477  16.815  1.0318 -0.3907 -1.3253
 4032TIP3   OH233510   1.701   4.367  15.884 -0.2981  0.2076  1.0008
 4032TIP3    H133511   1.622   4.315  15.895 -0.2637  0.3367  1.8750
 4032TIP3    H233512   1.671   4.458  15.888 -0.1645  0.2566  0.9050
 4033TIP3   OH233513   3.123   4.578   2.170 -0.4375  0.2102 -0.1271
 4033TIP3    H133514   3.139   4.489   2.137 -0.8474  0.5005 -1.1360
 4033TIP3    H233515   3.129   4.569   2.265  0.1327 -0.7794 -0.2377
 4034TIP3   OH233516   0.764   0.561  12.510 -0.8011  0.1773 -0.1705
 4034TIP3    H133517   0.691   0.606  12.552 -0.9476 -0.6375  0.4819
 4034TIP3    H233518   0.723   0.505  12.444 -0.5965  1.2066 -1.1946
 4035TIP3   OH233519   1.210   1.245  13.849  0.2132 -0.0474  0.4542
 4035TIP3    H133520   1.172   1.315  13.901  0.9498  1.7710 -1.3041
 4035TIP3    H233521   1.164   1.249  13.765  1.7621 -0.1507 -0.4545
 4036TIP3   OH233522   2.348   5.034   4.974  0.0958 -0.0988  0.0448
 4036TIP3    H133523   2.348   5.130   4.981  0.8544  0.0360 -1.4348
 4036TIP3    H233524   2.440   5.010   4.972 -0.0772 -0.7301 -1.0519
 4037TIP3   OH233525   6.529   0.267   4.368  0.2022  0.3450 -0.5012
 4037TIP3    H133526   6.532   0.359   4.396  0.6631  0.1989 -0.0336
 4037TIP3    H233527   6.587   0.222   4.430  0.1687 -0.2218 -0.8760
 4038TIP3   OH233528   2.431   6.002  16.833 -0.0614  0.0904 -0.2328
 4038TIP3    H133529   2.461   6.066  16.898  0.7490 -0.2518 -0.2529
 4038TIP3    H233530   2.365   5.950  16.878 -0.3370  0.5957 -0.0453
 4039TIP3   OH233531   4.509   2.207  11.175  0.2849 -1.0905  0.0670
 4039TIP3    H133532   4.585   2.240  11.126 -0.9200 -1.3623 -2.1188
 4039TIP3    H233533   4.514   2.112  11.168  0.7246 -1.2085  1.5626
 4040TIP3   OH233534   5.395   0.017  16.015  0.4480  0.3603 -0.1148
 4040TIP3    H133535   5.478  -0.019  15.985 -0.4641 -2.1347  0.0869
 4040TIP3    H233536   5.346   0.036  15.935 -0.3843 -2.3624 -0.3823
 4041TIP3   OH233537   0.737   0.898   4.429  0.2117  0.4690  0.2969
 4041TIP3    H133538   0.689   0.976   4.455 -1.4676 -1.2416  2.7030
 4041TIP3    H233539   0.689   0.864   4.353  0.8263  1.5677 -0.6231
 4042TIP3   OH233540   3.364   3.670  15.784 -0.3022 -0.1556  0.1423
 4042TIP3    H133541   3.376   3.722  15.705  2.8521 -1.0985 -0.1430
 4042TIP3    H233542   3.433   3.699  15.843 -0.3063 -1.9472  1.1094
 4043TIP3   OH233543   3.992   0.387   0.353  0.3498 -1.2552 -0.6782
 4043TIP3    H133544   3.966   0.363   0.442 -0.3018  1.5755 -0.0127
 4043TIP3    H233545   4.087   0.401   0.360  0.2195 -0.4778 -0.2288
 4044TIP3   OH233546   3.487   4.629  11.066  0.3124 -0.0656  0.1501
 4044TIP3    H133547   3.566   4.680  11.046 -0.2222  1.2017  1.1308
 4044TIP3    H233548   3.415   4.689  11.049 -0.3335 -0.4056  1.5911
 4045TIP3   OH233549   4.157   0.054   0.609  0.1953  0.3246 -0.6409
 4045TIP3    H133550   4.241   0.093   0.584  0.1616  1.5509  0.9606
 4045TIP3    H233551   4.097   0.128   0.610 -0.0588  0.1639  1.7416
 4046TIP3   OH233552   5.985   0.739  16.949  0.1680  0.1345  0.2314
 4046TIP3    H133553   5.927   0.700  16.883 -1.4886  2.7240  0.0120
 4046TIP3    H233554   6.034   0.806  16.901 -0.9350  1.9437  1.5087
 4047TIP3   OH233555   1.325   5.519   1.255  0.1036  0.4553 -0.1695
 4047TIP3    H133556   1.305   5.438   1.208 -1.0048  0.1696  0.7549
 4047TIP3    H233557   1.421   5.524   1.254  0.3083 -1.7395  1.1512
 4048TIP3   OH233558   5.569   4.348  14.602  0.0315  0.0975  0.3064
 4048TIP3    H133559   5.533   4.435  14.584  0.1467 -0.0805 -0.8905
 4048TIP3    H233560   5.659   4.352  14.568 -0.5140 -1.0073 -1.3713
 4049TIP3   OH233561   1.009   3.408   4.663  0.4830 -0.2009 -0.2748
 4049TIP3    H133562   1.076   3.367   4.717  0.0792 -0.6995 -0.1463
 4049TIP3    H233563   1.006   3.354   4.584  1.8989  1.2011 -1.3409
 4050TIP3   OH233564   0.106   2.860  16.686 -0.3376 -0.8063  0.1883
 4050TIP3    H133565   0.138   2.796  16.622 -0.0123 -0.1480 -0.3173
 4050TIP3    H233566   0.163   2.936  16.674 -0.7881 -0.3797  0.7130
 4051TIP3   OH233567   4.716   2.575  14.366  0.7655  0.3844 -0.6288
 4051TIP3    H133568   4.735   2.667  14.347  0.3120  0.2154 -1.9797
 4051TIP3    H233569   4.653   2.549  14.299 -1.8839  0.0430  1.8218
 4052TIP3   OH233570   6.254   2.690   2.050  0.3983  0.4130  0.1161
 4052TIP3    H133571   6.339   2.696   2.006  1.2801 -0.2473  1.6606
 4052TIP3    H233572   6.215   2.609   2.015 -0.1870  1.3496 -1.5179
 4053TIP3   OH233573   4.718   5.553  14.904  0.3516 -0.3373  0.6233
 4053TIP3    H133574   4.663   5.605  14.962 -0.1152  1.7073 -1.5167
 4053TIP3    H233575   4.658   5.520  14.837  1.0526 -1.7356  0.6271
 4054TIP3   OH233576   0.370   3.497   2.599 -0.8337  0.0945 -0.0418
 4054TIP3    H133577   0.432   3.542   2.542  0.1103 -2.2157 -0.9914
 4054TIP3    H233578   0.284   3.519   2.565 -0.4103  1.1769 -0.4328
 4055TIP3   OH233579   3.144   4.089   0.801 -0.4291 -0.2876  0.4311
 4055TIP3    H133580   3.225   4.044   0.777 -0.4991  0.5479 -1.5457
 4055TIP3    H233581   3.148   4.096   0.897  1.5849 -0.7096  0.4205
 4056TIP3   OH233582   5.510   0.821   4.614 -0.4358  0.1056  0.1929
 4056TIP3    H133583   5.503   0.909   4.575  2.0656  0.9075  1.3325
 4056TIP3    H233584   5.430   0.812   4.666 -1.7852  0.7564 -1.6254
 4057TIP3   OH233585   5.028   2.821   4.194 -0.2987  0.1550  0.1730
 4057TIP3    H133586   4.963   2.750   4.197 -1.8818  1.5650  0.6116
 4057TIP3    H233587   5.080   2.810   4.273 -0.6902 -0.3635  0.3626
 4058TIP3   OH233588   3.885   0.888  13.102 -0.2870 -0.1563  0.2069
 4058TIP3    H133589   3.906   0.950  13.032  1.2487 -1.4366 -0.5256
 4058TIP3    H233590   3.801   0.851  13.078 -0.7300  0.8760  0.1148
 4059TIP3   OH233591   1.654   2.310   2.966 -0.3630  0.3802  0.1983
 4059TIP3    H133592   1.682   2.249   3.034 -0.0184  0.2572 -0.0489
 4059TIP3    H233593   1.560   2.295   2.956 -0.3391  0.1263  0.3728
 4060TIP3   OH233594   5.406   0.982  12.983  0.1754  0.3986 -0.0978
 4060TIP3    H133595   5.369   0.899  12.953 -0.3994  1.3202 -2.0925
 4060TIP3    H233596   5.330   1.034  13.009  0.2525  1.2975 -1.5724
 4061TIP3   OH233597   1.995   2.009   0.987 -0.2932 -0.7477 -0.4624
 4061TIP3    H133598   1.964   1.960   0.910 -0.9422 -1.5726  0.3078
 4061TIP3    H233599   1.951   1.968   1.061  0.4377 -0.0543  0.3767
 4062TIP3   OH233600   2.685   3.460   4.472  0.2692 -0.3084 -0.2538
 4062TIP3    H133601   2.662   3.380   4.426 -0.3057 -0.5716  0.4654
 4062TIP3    H233602   2.600   3.498   4.497  0.5605  0.0447  0.2136
 4063TIP3   OH233603   2.514   1.717   1.200 -0.3435 -0.6822  0.4290
 4063TIP3    H133604   2.526   1.762   1.284  0.6656  0.3025 -0.2072
 4063TIP3    H233605   2.423   1.736   1.176 -0.4177 -0.3446  0.9452
 4064TIP3   OH233606   0.434   6.757   5.508 -0.0466  0.2988  0.3886
 4064TIP3    H133607   0.484   6.676   5.495  1.4782  1.2144  0.3629
 4064TIP3    H233608   0.351   6.728   5.546  0.5303 -1.2619  0.5174
 4065TIP3   OH233609   4.651   4.406   5.076 -0.0199 -0.4531 -0.5029
 4065TIP3    H133610   4.616   4.318   5.091  0.2699 -0.1380  2.8093
 4065TIP3    H233611   4.606   4.461   5.140  2.3420  1.0788 -0.0365
 4066TIP3   OH233612   2.374   2.005   1.651 -0.1450  0.0114 -0.2501
 4066TIP3    H133613   2.465   1.992   1.680 -0.9636  0.3334  2.7722
 4066TIP3    H233614   2.356   1.929   1.596  1.4377 -0.9761  0.4978
 4067TIP3   OH233615   4.678   6.637  12.092 -0.0791 -0.1369 -0.3688
 4067TIP3    H133616   4.700   6.678  12.176  0.9767 -0.6294 -0.3917
 4067TIP3    H233617   4.640   6.708  12.040  1.1823  0.6927 -0.2077
 4068TIP3   OH233618   2.749   0.345  13.119  0.0137  0.5808 -0.2462
 4068TIP3    H133619   2.810   0.331  13.046 -0.7442  0.3167 -0.8430
 4068TIP3    H233620   2.788   0.417  13.169  0.5686  0.7395 -0.8863
 4069TIP3   OH233621   2.976   0.729  16.156  0.0643  0.2641 -0.4787
 4069TIP3    H133622   3.054   0.785  16.149  1.1404 -1.2457 -1.0803
 4069TIP3    H233623   3.007   0.647  16.194 -0.8799 -0.9527 -2.1595
 4070TIP3   OH233624   3.452   6.392   5.844 -0.2688  0.3735  0.0425
 4070TIP3    H133625   3.499   6.447   5.907 -0.9551 -0.6550  1.5075
 4070TIP3    H233626   3.496   6.308   5.848  0.3127  0.5551 -1.6460
 4071TIP3   OH233627   2.066   4.091  11.518  0.2326  0.0832  0.1477
 4071TIP3    H133628   1.978   4.063  11.494 -0.0997 -1.8708  3.2240
 4071TIP3    H233629   2.123   4.051  11.452 -0.9310 -1.1110 -0.1609
 4072TIP3   OH233630   5.895   3.653  15.959  0.2517 -0.2134 -0.1578
 4072TIP3    H133631   5.835   3.727  15.966  0.7734  0.2853 -0.7779
 4072TIP3    H233632   5.873   3.596  16.033 -0.9953 -0.0590 -0.3913
 4073TIP3   OH233633   3.319   6.398  11.411 -0.2092 -0.1345  0.0054
 4073TIP3    H133634   3.381   6.377  11.342 -0.3716 -1.0103  0.1056
 4073TIP3    H233635   3.278   6.480  11.383  1.1044  0.5565  0.0324
 4074TIP3   OH233636   5.864   5.731  13.546 -0.2615  0.3657 -0.4594
 4074TIP3    H133637   5.779   5.717  13.505 -1.5096  2.5226  1.1661
 4074TIP3    H233638   5.855   5.696  13.635  0.9870 -0.5236 -0.6617
 4075TIP3   OH233639   0.810   0.242  12.840 -0.4894 -0.3933 -0.3488
 4075TIP3    H133640   0.731   0.279  12.801  0.6563 -1.1740 -3.7673
 4075TIP3    H233641   0.789   0.150  12.854 -0.0549 -0.7202 -1.7610
 4076TIP3   OH233642   5.716   5.310  12.671 -0.0763 -0.1069 -0.3569
 4076TIP3    H133643   5.635   5.283  12.713 -0.6712 -0.4110 -1.6369
 4076TIP3    H233644   5.768   5.230  12.665  0.6549  0.2352  1.1408
 4077TIP3   OH233645   3.141   2.593  14.701 -0.1740  0.0893  0.3004
 4077TIP3    H133646   3.123   2.499  14.693 -0.2792  0.0607  0.8917
 4077TIP3    H233647   3.076   2.635  14.645 -0.7028 -0.1390  0.7342
 4078TIP3   OH233648   5.711   1.683  12.276  0.0275 -1.0104 -0.2423
 4078TIP3    H133649   5.677   1.610  12.224 -3.6887  0.6298 -0.3588
 4078TIP3    H233650   5.746   1.745  12.212  1.6215 -1.8307 -0.2344
 4079TIP3   OH233651   6.241   5.303  15.774  0.5460 -0.2004  0.2127
 4079TIP3    H133652   6.317   5.350  15.809 -0.2167  1.0598  0.2381
 4079TIP3    H233653   6.205   5.362  15.707  0.4434 -1.4290 -0.8453
 4080TIP3   OH233654   4.084   2.909   3.257 -0.4617  0.4173 -0.3559
 4080TIP3    H133655   4.097   2.816   3.245  1.1698  0.6930 -0.9325
 4080TIP3    H233656   3.994   2.917   3.289 -0.0734 -1.4712  1.3680
 4081TIP3   OH233657   3.392   4.551   5.812 -0.3201 -0.6259 -0.3563
 4081TIP3    H133658   3.423   4.487   5.747 -1.0168 -0.7036 -0.6126
 4081TIP3    H233659   3.415   4.511   5.896 -2.4930 -2.1773 -0.4276
 4082TIP3   OH233660   3.241   0.514   4.017  0.5994  0.5330  0.2642
 4082TIP3    H133661   3.240   0.422   4.042  0.8777  0.6897  0.8534
 4082TIP3    H233662   3.312   0.553   4.068  2.0783  0.5908 -1.7017
 4083TIP3   OH233663   3.486   1.333   3.634  0.6576  0.1503  0.0576
 4083TIP3    H133664   3.509   1.241   3.648 -0.7485 -0.1990  0.2860
 4083TIP3    H233665   3.423   1.331   3.562 -0.1744  0.8020  0.7374
 4084TIP3   OH233666   0.984   2.423  15.270  0.2366  0.1070  0.1746
 4084TIP3    H133667   1.054   2.477  15.232 -0.0611  1.0688  0.9469
 4084TIP3    H233668   0.913   2.427  15.206  0.5348 -0.1106 -0.1788
 4085TIP3   OH233669   1.183   2.307  12.906 -0.3019  0.0912 -0.1172
 4085TIP3    H133670   1.092   2.308  12.934  1.0176  0.6955  5.1914
 4085TIP3    H233671   1.217   2.222  12.936  1.5033  1.0809  0.8465
 4086TIP3   OH233672   3.957   0.142  11.549  0.5435  0.1230 -0.0044
 4086TIP3    H133673   3.975   0.236  11.549  1.6415 -0.0660  0.6148
 4086TIP3    H233674   3.867   0.134  11.580  0.2262  0.9983 -0.6794
 4087TIP3   OH233675   2.182   4.989   5.612  0.1914 -0.5621 -1.1261
 4087TIP3    H133676   2.117   5.058   5.599  1.4608  0.2014 -4.2435
 4087TIP3    H233677   2.266   5.034   5.616  0.8014 -1.7254 -0.1263
 4088TIP3   OH233678   4.265   3.482  13.247  0.3153  0.2756 -0.1582
 4088TIP3    H133679   4.292   3.404  13.199  2.9078  1.1239 -0.2605
 4088TIP3    H233680   4.270   3.456  13.339 -0.9496 -0.2695 -0.2309
 4089TIP3   OH233681   0.636   3.869   0.660  0.0224 -0.2317 -0.1682
 4089TIP3    H133682   0.552   3.886   0.703 -1.0898  0.3992 -2.4267
 4089TIP3    H233683   0.701   3.880   0.729 -1.6683  0.3035  1.4215
 4090TIP3   OH233684   0.132   2.348   4.251  0.2257 -0.1765  0.3982
 4090TIP3    H133685   0.137   2.436   4.287  0.1766  0.5952 -1.3618
 4090TIP3    H233686   0.038   2.329   4.247  0.2421 -0.3627  0.9017
 4091TIP3   OH233687   3.743   5.279   0.007 -0.7220 -0.1126 -0.4126
 4091TIP3    H133688   3.811   5.234  -0.043 -1.0743  1.0475 -2.0107
 4091TIP3    H233689   3.791   5.343   0.059 -0.4537 -0.4684 -0.2155
 4092TIP3   OH233690   6.040   5.199  13.291 -0.5749 -0.5304  0.2636
 4092TIP3    H133691   6.078   5.188  13.379  1.4604 -0.9007 -0.6135
 4092TIP3    H233692   6.006   5.112  13.269  0.5345 -0.9164 -0.0010
 4093TIP3   OH233693   0.836   6.421   4.631 -0.3496  0.3890 -0.2856
 4093TIP3    H133694   0.747   6.391   4.650  0.7944 -1.7605  2.3217
 4093TIP3    H233695   0.871   6.357   4.570 -0.3068  0.7359 -0.6279
 4094TIP3   OH233696   0.487   2.834  13.669  0.0444 -0.2500 -0.0977
 4094TIP3    H133697   0.430   2.889  13.617  0.0032 -0.8161 -0.6591
 4094TIP3    H233698   0.432   2.803  13.741 -0.3721 -0.8389 -0.6687
 4095TIP3   OH233699   3.181   6.088   2.492 -0.1639 -0.2635  0.9930
 4095TIP3    H133700   3.164   6.014   2.434  0.0474  1.2611 -1.1202
 4095TIP3    H233701   3.274   6.108   2.480 -0.5854  1.4025  0.1261
 4096TIP3   OH233702   5.429   0.421  17.097  0.0494 -0.1141  0.2778
 4096TIP3    H133703   5.429   0.514  17.120 -1.6639  0.1944 -0.7769
 4096TIP3    H233704   5.385   0.378  17.171 -0.2594  0.0909  0.2168
 4097TIP3   OH233705   3.977   5.321   1.230 -0.4376  0.0769 -0.5001
 4097TIP3    H133706   4.006   5.267   1.156 -0.0761 -0.0867 -0.2414
 4097TIP3    H233707   4.053   5.323   1.289 -1.0594 -0.5978  0.3358
 4098TIP3   OH233708   6.383   1.178  12.759  0.3019  0.4534 -0.3721
 4098TIP3    H133709   6.351   1.182  12.669  2.5086  0.7519 -1.2199
 4098TIP3    H233710   6.348   1.097  12.794 -1.3467  0.7883 -1.1683
 4099TIP3   OH233711   0.059   2.854  10.456  0.0176  0.0610 -0.2407
 4099TIP3    H133712   0.046   2.798  10.533  0.3739 -1.0635 -0.9611
 4099TIP3    H233713  -0.007   2.824  10.394 -1.1905  1.8907  0.0798
 4100TIP3   OH233714   0.645   4.498  16.312  0.7472  0.0218 -0.1229
 4100TIP3    H133715   0.705   4.435  16.353  0.2203  0.2434  1.0493
 4100TIP3    H233716   0.655   4.578  16.364 -0.5632  0.0597  0.1262
 4101TIP3   OH233717   4.857   1.124  13.332 -0.5923  0.1749  0.1638
 4101TIP3    H133718   4.796   1.059  13.297 -0.8583  0.4946  0.0313
 4101TIP3    H233719   4.944   1.087  13.316 -0.6545  0.7002 -1.6430
 4102TIP3   OH233720   5.392   3.201   4.123  0.2284  0.3606 -0.0415
 4102TIP3    H133721   5.388   3.131   4.188 -0.5678  1.9746  1.7218
 4102TIP3    H233722   5.334   3.170   4.052 -0.0893 -0.7709  0.6780
 4103TIP3   OH233723   0.361   5.034  15.088 -0.0222  0.8769  0.6699
 4103TIP3    H133724   0.443   5.044  15.135  0.3092  0.3635  0.2055
 4103TIP3    H233725   0.354   4.941  15.070 -0.1259  1.0650 -0.3141
 4104TIP3   OH233726   4.205   4.966   2.477 -0.2591  0.5886 -0.1476
 4104TIP3    H133727   4.122   4.972   2.525  0.4612 -1.5209  1.5052
 4104TIP3    H233728   4.242   5.054   2.481 -0.7029  0.7296  2.4154
 4105TIP3   OH233729   4.455   3.275  12.192 -0.0552  0.9298 -0.4700
 4105TIP3    H133730   4.506   3.280  12.273  1.6958 -1.3757 -1.3387
 4105TIP3    H233731   4.364   3.268  12.221  0.5391  0.0740  1.3197
 4106TIP3   OH233732   3.148   5.858   2.979  0.1484 -0.5108  0.1854
 4106TIP3    H133733   3.159   5.947   3.014 -1.8684 -0.9733  2.3103
 4106TIP3    H233734   3.131   5.870   2.886  0.0763  1.3472  0.4050
 4107TIP3   OH233735   4.728   0.027  16.712 -0.2061  0.5452 -0.6959
 4107TIP3    H133736   4.705  -0.052  16.663  0.5341 -1.1809  1.5741
 4107TIP3    H233737   4.823   0.030  16.709 -0.2087  1.0671 -0.3642
 4108TIP3   OH233738   0.673   5.856  12.148  0.3153 -0.4621  1.0120
 4108TIP3    H133739   0.717   5.928  12.194  0.4988  0.8430 -1.1031
 4108TIP3    H233740   0.743   5.796  12.124  0.6110  0.2814 -0.0244
 4109TIP3   OH233741   0.105   0.072   3.266 -0.0350 -0.5508 -0.4075
 4109TIP3    H133742   0.169   0.129   3.308  1.3728 -2.4765  0.2463
 4109TIP3    H233743   0.033   0.066   3.329  1.2539 -1.9676  1.0226
 4110TIP3   OH233744   1.221   4.495  12.223  0.2104  0.2088  0.1304
 4110TIP3    H133745   1.225   4.454  12.309  2.3404  1.5358  0.7380
 4110TIP3    H233746   1.281   4.444  12.169  3.1500  2.4712  0.9811
 4111TIP3   OH233747   1.375   5.758  15.566  0.2134  0.0212 -0.2458
 4111TIP3    H133748   1.399   5.666  15.568 -0.3239 -0.1058  0.9231
 4111TIP3    H233749   1.283   5.759  15.541  0.3429  0.2708 -0.7246
 4112TIP3   OH233750   0.403   0.205   3.024  0.3332 -0.0691  0.2079
 4112TIP3    H133751   0.351   0.243   3.096 -0.6077  0.1071 -0.5478
 4112TIP3    H233752   0.397   0.270   2.954  0.0905 -0.8563 -0.5118
 4113TIP3   OH233753   2.136   0.180   3.703 -0.0825  0.5703  0.0200
 4113TIP3    H133754   2.200   0.241   3.740  0.7764 -0.8297  0.9623
 4113TIP3    H233755   2.185   0.130   3.639 -0.0596 -0.8519  1.0985
 4114TIP3   OH233756   2.379   3.164   3.547  0.1034 -0.1556  0.0068
 4114TIP3    H133757   2.473   3.169   3.531  0.0718 -3.0988 -1.9509
 4114TIP3    H233758   2.344   3.121   3.469 -2.5061 -1.3952  1.7224
 4115TIP3   OH233759   6.099   3.297   0.277  0.2019  0.0613 -0.2765
 4115TIP3    H133760   6.046   3.377   0.282  0.7374  0.4765 -1.0613
 4115TIP3    H233761   6.090   3.268   0.186  0.3965 -0.5018 -0.1157
 4116TIP3   OH233762   4.289   2.045  12.496 -0.0049  0.5162  0.0892
 4116TIP3    H133763   4.217   2.108  12.490 -0.5214  0.0011  0.7301
 4116TIP3    H233764   4.336   2.068  12.576 -2.4341 -2.1394  2.5019
 4117TIP3   OH233765   4.576   0.597  11.997  0.1409  0.0655  0.1008
 4117TIP3    H133766   4.669   0.612  11.978  0.3599  0.0731  1.1204
 4117TIP3    H233767   4.554   0.518  11.948  0.7253 -0.0177 -0.0378
 4118TIP3   OH233768   5.338   5.414  14.725  0.8115 -0.5443 -0.3046
 4118TIP3    H133769   5.318   5.505  14.744 -0.8494 -0.7021 -1.1317
 4118TIP3    H233770   5.421   5.418  14.677  0.5891  0.5611 -0.6253
 4119TIP3   OH233771   0.492   0.536   3.340  0.1734  0.3472  0.1077
 4119TIP3    H133772   0.416   0.497   3.296  0.1597 -1.4979  1.6401
 4119TIP3    H233773   0.559   0.541   3.271 -0.4947 -0.5107 -0.6321
 4120TIP3   OH233774   1.183   0.724  11.637 -0.1590 -0.0607  0.1278
 4120TIP3    H133775   1.200   0.709  11.544  0.8469  0.2013  0.2515
 4120TIP3    H233776   1.121   0.656  11.662  0.8680 -1.2180 -0.3497
 4121TIP3   OH233777   3.421   5.150  13.591  0.2163 -0.0636  0.3393
 4121TIP3    H133778   3.505   5.119  13.558 -0.2566 -0.6289 -0.3693
 4121TIP3    H233779   3.418   5.243  13.570  1.4688  0.4236  2.0903
 4122TIP3   OH233780   1.547   0.078  12.299 -0.4668 -0.3278  0.2592
 4122TIP3    H133781   1.484   0.136  12.344 -1.6440 -1.4367  0.1120
 4122TIP3    H233782   1.624   0.133  12.284 -0.9201  0.7287  1.5731
 4123TIP3   OH233783   1.304   3.773  12.310 -0.1355  0.1618 -0.2295
 4123TIP3    H133784   1.238   3.703  12.309  0.7208 -0.6782  0.2981
 4123TIP3    H233785   1.253   3.852  12.327 -1.0737 -0.3917 -0.3396
 4124TIP3   OH233786   5.811   2.586  11.413 -0.3756 -0.2258 -0.0016
 4124TIP3    H133787   5.785   2.494  11.411  1.3301 -0.7345 -0.5841
 4124TIP3    H233788   5.907   2.584  11.414 -0.2980  1.5413 -0.4150
 4125TIP3   OH233789   0.007   4.359   5.209  0.1799  0.2722  0.1804
 4125TIP3    H133790   0.066   4.294   5.170 -0.0464  0.4498 -0.4736
 4125TIP3    H233791   0.049   4.383   5.291  0.3510 -0.5835  0.3512
 4126TIP3   OH233792   5.629   3.374  13.968 -0.2832  0.0063  0.1597
 4126TIP3    H133793   5.572   3.427  14.024 -0.3807  1.3611 -1.1456
 4126TIP3    H233794   5.589   3.287  13.968 -1.6527  0.6125  0.2598
 4127TIP3   OH233795   2.911   5.203   6.085 -0.1266 -0.2030 -0.2375
 4127TIP3    H133796   2.927   5.204   6.180 -1.3692 -1.0355  0.0098
 4127TIP3    H233797   2.862   5.283   6.068  0.0878 -0.0572 -0.1702
 4128TIP3   OH233798   5.680   1.393   3.137  0.1490  0.0453 -0.1020
 4128TIP3    H133799   5.710   1.425   3.052  2.5942  2.6295  1.6000
 4128TIP3    H233800   5.630   1.465   3.174 -2.0554 -1.5367  0.2235
 4129TIP3   OH233801   5.253   4.880  12.155 -0.0544  0.2552  0.5960
 4129TIP3    H133802   5.233   4.929  12.235  1.9499  0.9856  0.7195
 4129TIP3    H233803   5.209   4.928  12.085  1.4922  2.0470  0.7755
 4130TIP3   OH233804   3.273   4.345   2.353 -0.6358 -0.6027  0.1004
 4130TIP3    H133805   3.254   4.341   2.259 -0.5368 -0.7165  0.0850
 4130TIP3    H233806   3.335   4.274   2.368 -2.0244 -1.7720  0.5702
 4131TIP3   OH233807   2.641   0.472   0.290 -0.9035  0.6116  0.5040
 4131TIP3    H133808   2.614   0.394   0.241  0.4534  0.0073  0.6861
 4131TIP3    H233809   2.642   0.542   0.225  2.2271 -0.4444 -0.7763
 4132TIP3   OH233810   2.043   3.873  10.808 -0.5758 -0.5605 -0.5102
 4132TIP3    H133811   2.019   3.918  10.727  0.0820 -1.5100 -1.2514
 4132TIP3    H233812   1.960   3.843  10.845 -0.9233  0.3259 -0.5532
 4133TIP3   OH233813   1.815   0.528  15.638 -0.0676 -0.1741  0.2038
 4133TIP3    H133814   1.764   0.451  15.611 -0.4618 -0.2024  0.9948
 4133TIP3    H233815   1.797   0.593  15.570  0.6742 -0.9341 -0.7506
 4134TIP3   OH233816   1.594   0.760  16.944  0.3260 -0.2750  0.0522
 4134TIP3    H133817   1.608   0.848  16.978  1.6229 -0.7423  0.7960
 4134TIP3    H233818   1.503   0.759  16.916  0.8319  2.0096 -2.0963
 4135TIP3   OH233819   2.988   3.786  11.722 -0.6762  0.6760  0.0044
 4135TIP3    H133820   3.041   3.743  11.655 -1.0062  3.2629 -2.0788
 4135TIP3    H233821   2.897   3.769  11.695 -1.0590 -2.1081  2.4833
 4136TIP3   OH233822   1.092   1.353   4.060 -0.2553 -0.5627  0.0573
 4136TIP3    H133823   1.180   1.376   4.091  0.1164  0.6569 -1.7375
 4136TIP3    H233824   1.106   1.281   3.999 -0.7410 -1.5589  1.0859
 4137TIP3   OH233825   0.628   3.158  12.093  0.0972 -0.1596  0.8263
 4137TIP3    H133826   0.684   3.193  12.024 -0.4388 -0.6146  0.1531
 4137TIP3    H233827   0.674   3.080  12.124 -0.0619 -0.4183  0.4154
 4138TIP3   OH233828   5.771   4.595   4.019 -0.1522  0.7223 -0.8861
 4138TIP3    H133829   5.791   4.673   4.071  1.1570  0.6970 -1.3112
 4138TIP3    H233830   5.727   4.629   3.941 -0.6369  0.9150 -0.5332
 4139TIP3   OH233831   0.595   4.202   1.451 -0.3967 -0.0433 -0.3766
 4139TIP3    H133832   0.576   4.247   1.534 -0.4023 -2.2780  0.9162
 4139TIP3    H233833   0.688   4.181   1.456 -0.2278  0.4404 -1.2978
 4140TIP3   OH233834   3.041   2.345  14.005 -0.5023 -0.2614 -0.2132
 4140TIP3    H133835   2.950   2.373  13.996 -0.9453 -1.9482 -1.3600
 4140TIP3    H233836   3.087   2.392  13.935 -0.5000  0.4309  0.2364
 4141TIP3   OH233837   0.295   4.401  15.151  0.0189  0.2756  0.3702
 4141TIP3    H133838   0.218   4.403  15.095  0.2184 -2.2216 -0.1048
 4141TIP3    H233839   0.272   4.340  15.221  1.9276 -1.5014 -0.4501
 4142TIP3   OH233840   6.737   1.100  12.544  0.5177 -0.2904 -0.4256
 4142TIP3    H133841   6.763   1.022  12.496  2.3549 -0.5001  0.8130
 4142TIP3    H233842   6.673   1.143  12.486  0.3040 -2.0932 -1.6235
 4143TIP3   OH233843   1.562   3.849  12.904 -0.0402 -0.0094  0.1578
 4143TIP3    H133844   1.529   3.763  12.931 -1.4086  0.4073 -0.0785
 4143TIP3    H233845   1.487   3.891  12.862  0.3818  1.5880  0.9090
 4144TIP3   OH233846   1.192   5.113   0.160  0.5123 -0.6306  0.2898
 4144TIP3    H133847   1.159   5.031   0.195 -2.7485 -0.8848 -2.8059
 4144TIP3    H233848   1.120   5.175   0.171  1.3547  0.6593 -1.1009
 4145TIP3   OH233849   5.556   4.796   4.468  0.2306  0.3435  0.0452
 4145TIP3    H133850   5.600   4.881   4.471  1.3917 -0.2456  2.3649
 4145TIP3    H233851   5.626   4.732   4.484 -0.8099 -0.9876 -0.4836
 4146TIP3   OH233852   3.142   6.649   3.754  0.2628  0.0303  0.0540
 4146TIP3    H133853   3.198   6.639   3.677  1.1492  0.2687  0.6513
 4146TIP3    H233854   3.094   6.731   3.738  1.6278  0.9480  0.4617
 4147TIP3   OH233855   0.944   5.013   1.926 -0.2154 -0.6474  0.7056
 4147TIP3    H133856   1.035   5.026   1.899 -0.1721  1.4983  1.6676
 4147TIP3    H233857   0.893   5.029   1.847  0.0975  2.0057  0.9625
 4148TIP3   OH233858   3.499   1.009  13.588  0.1443 -0.3572  0.5299
 4148TIP3    H133859   3.556   0.939  13.620  0.1274 -0.8975 -0.6060
 4148TIP3    H233860   3.525   1.021  13.497 -0.4006  0.5754  0.4861
 4149TIP3   OH233861   5.154   0.158   3.109  0.4148 -0.0604  0.2145
 4149TIP3    H133862   5.144   0.116   3.195  2.9559  1.4297  1.3668
 4149TIP3    H233863   5.174   0.249   3.130  0.2532  0.5316 -2.0280
 4150TIP3   OH233864   0.178   5.493  14.818  0.0051 -0.0162 -0.1007
 4150TIP3    H133865   0.203   5.507  14.910  1.7389  1.1548 -0.6938
 4150TIP3    H233866   0.243   5.542  14.768 -1.5471  0.2846 -1.9378
 4151TIP3   OH233867   1.550   1.213  10.917  0.4620 -0.5907  0.1157
 4151TIP3    H133868   1.526   1.145  10.854  1.1311 -1.3612  0.6577
 4151TIP3    H233869   1.625   1.176  10.964 -1.1100 -0.8351  2.6243
 4152TIP3   OH233870   1.705   5.822   3.781  0.1273  0.1462  0.2834
 4152TIP3    H133871   1.617   5.812   3.745 -0.5964 -2.1390  2.4001
 4152TIP3    H233872   1.699   5.896   3.842 -0.6474 -0.6239  1.1701
 4153TIP3   OH233873   2.921   3.337   5.025 -0.0058 -0.2844 -0.0300
 4153TIP3    H133874   3.000   3.327   5.079 -0.8920  0.7165  1.5611
 4153TIP3    H233875   2.850   3.308   5.082 -0.8770 -0.1945 -1.0578
 4154TIP3   OH233876   4.518   3.056  10.141 -0.1477  0.3662  0.0756
 4154TIP3    H133877   4.595   3.104  10.173 -1.4241  1.2215  2.0943
 4154TIP3    H233878   4.539   2.964  10.154  1.1594  0.4916 -0.9855
 4155TIP3   OH233879   2.754   1.091   0.412  0.0791 -0.4982 -0.0525
 4155TIP3    H133880   2.682   1.030   0.400 -0.0476 -0.3366 -0.1110
 4155TIP3    H233881   2.750   1.148   0.335  1.7157 -1.9773 -1.3109
 4156TIP3   OH233882   2.909   0.124   1.264 -0.3583  0.1092 -0.5531
 4156TIP3    H133883   2.902   0.172   1.347  2.9593  1.7892 -1.0623
 4156TIP3    H233884   2.895   0.032   1.288 -0.7712  0.6877  1.6204
 4157TIP3   OH233885   6.292   1.553  13.954  0.0627  0.0628  0.2805
 4157TIP3    H133886   6.269   1.491  13.886  1.6070 -0.2783  0.0352
 4157TIP3    H233887   6.350   1.504  14.013  1.8965  1.3930 -0.3020
 4158TIP3   OH233888   2.089   4.672   1.283 -0.1877  0.1279 -0.5291
 4158TIP3    H133889   2.107   4.618   1.206  0.9120 -2.9890  1.7001
 4158TIP3    H233890   2.055   4.611   1.348 -2.9211  2.9433  0.9793
 4159TIP3   OH233891   0.191   6.461  12.392  0.0791 -0.8015  0.2260
 4159TIP3    H133892   0.165   6.399  12.461 -0.3222 -2.2280 -1.1490
 4159TIP3    H233893   0.247   6.410  12.334  3.0227  1.1906  1.0787
 4160TIP3   OH233894   0.288   5.578  12.799  0.3310 -0.3207  0.1359
 4160TIP3    H133895   0.276   5.588  12.894  0.8060 -0.6329  0.2346
 4160TIP3    H233896   0.211   5.528  12.770  1.9361 -3.5923  0.9843
 4161TIP3   OH233897   2.090   6.657  14.349  0.0647 -0.1917 -0.0616
 4161TIP3    H133898   2.160   6.723  14.345 -0.4955  0.3895 -0.4913
 4161TIP3    H233899   2.016   6.705  14.386  0.4426 -1.3081  2.3367
 4162TIP3   OH233900   1.253   2.492  16.900  0.1250 -0.9953 -0.1780
 4162TIP3    H133901   1.198   2.465  16.826  0.3509 -1.0050 -0.3428
 4162TIP3    H233902   1.284   2.579  16.876  1.2003 -1.4929 -0.6672
 4163TIP3   OH233903   2.727   4.490   5.204 -0.4470  0.2779 -0.1681
 4163TIP3    H133904   2.782   4.519   5.130  1.0729 -0.5736  0.5777
 4163TIP3    H233905   2.689   4.570   5.238  1.3242  1.0985  0.0208
 4164TIP3   OH233906   6.144   3.802   3.505  0.0751  0.1384 -0.0335
 4164TIP3    H133907   6.154   3.893   3.476 -1.7564  0.9251  1.6035
 4164TIP3    H233908   6.190   3.799   3.589  1.1959 -0.8159 -0.6603
 4165TIP3   OH233909   2.314   0.572   4.390 -0.3061  0.2380 -0.4629
 4165TIP3    H133910   2.341   0.583   4.482  0.7284 -1.3699 -0.5481
 4165TIP3    H233911   2.364   0.639   4.343  2.1977 -1.4054 -0.3352
 4166TIP3   OH233912   3.247   5.618  13.441 -0.5279  0.0117 -0.1447
 4166TIP3    H133913   3.179   5.636  13.376  1.1979  0.3132 -1.9635
 4166TIP3    H233914   3.328   5.643  13.398  0.9950 -2.4763  1.0513
 4167TIP3   OH233915   2.782   3.724  15.651  0.1981  0.0647  0.2601
 4167TIP3    H133916   2.697   3.746  15.687 -1.6858 -2.9913 -1.8339
 4167TIP3    H233917   2.835   3.699  15.727 -1.0532  1.1011  1.5217
 4168TIP3   OH233918   2.643   1.765   4.541 -0.0876 -0.3776 -0.2320
 4168TIP3    H133919   2.708   1.832   4.559 -0.0351 -0.3997 -0.3338
 4168TIP3    H233920   2.562   1.813   4.525  0.4715 -0.1488 -2.8009
 4169TIP3   OH233921   3.180   2.259  16.974  0.3834  0.3453 -0.2241
 4169TIP3    H133922   3.224   2.230  16.894  0.4354  3.3647 -1.3991
 4169TIP3    H233923   3.242   2.240  17.044  0.8700 -1.1890 -1.0092
 4170TIP3   OH233924   0.962   1.420  14.290 -0.1418  0.7517 -0.0724
 4170TIP3    H133925   1.044   1.432  14.243  0.0213 -0.6566 -0.1900
 4170TIP3    H233926   0.929   1.335  14.260 -1.3976  1.0651  0.3417
 4171TIP3   OH233927   0.689   2.000   3.335  0.2450  0.1551 -0.4714
 4171TIP3    H133928   0.725   1.923   3.380  0.4451  0.1612 -0.6184
 4171TIP3    H233929   0.747   2.013   3.260 -0.7083 -0.5047 -1.3493
 4172TIP3   OH233930   0.176   0.799  11.108 -0.2388 -0.3420 -0.2168
 4172TIP3    H133931   0.105   0.772  11.049  0.4910 -0.8244 -0.9039
 4172TIP3    H233932   0.249   0.741  11.085  0.5127  0.4335  0.1791
 4173TIP3   OH233933   3.336   4.078   4.534  0.1728 -0.3008 -0.6377
 4173TIP3    H133934   3.263   4.071   4.472 -0.2409  1.1881 -0.3607
 4173TIP3    H233935   3.391   4.003   4.515 -2.2123 -2.4025  0.1618
 4174TIP3   OH233936   1.698   5.045   0.683 -1.2343 -0.0225 -0.7392
 4174TIP3    H133937   1.793   5.035   0.693 -1.4401 -0.4540  1.2227
 4174TIP3    H233938   1.662   4.962   0.715 -2.3120  0.2963 -1.0656
 4175TIP3   OH233939   2.597   5.666  14.469 -0.2643  0.0818  0.2724
 4175TIP3    H133940   2.524   5.606  14.457  0.2569 -1.0973  2.3881
 4175TIP3    H233941   2.618   5.659  14.562  1.0201  2.1889  0.2060
 4176TIP3   OH233942   6.319   1.528   1.876 -0.3428 -0.4129 -0.2101
 4176TIP3    H133943   6.396   1.474   1.894 -0.4380 -0.5164 -0.1129
 4176TIP3    H233944   6.252   1.497   1.937 -1.3477 -2.1984 -2.0918
 4177TIP3   OH233945   6.309   1.849  15.714 -0.1266  0.0471 -0.0517
 4177TIP3    H133946   6.234   1.882  15.763 -0.7256 -0.3390 -0.6894
 4177TIP3    H233947   6.381   1.907  15.738 -0.6460  0.4674  0.5127
 4178TIP3   OH233948   4.764   0.663  17.039  0.3018  0.2256 -0.1303
 4178TIP3    H133949   4.800   0.747  17.066  1.3366 -0.0983 -0.4600
 4178TIP3    H233950   4.791   0.653  16.948  0.0057 -0.3656 -0.1569
 4179TIP3   OH233951   5.712   0.272   1.718  0.3600  0.4785 -0.1770
 4179TIP3    H133952   5.780   0.260   1.652  0.9433  0.2836  0.4516
 4179TIP3    H233953   5.638   0.309   1.670  1.1934  1.4960 -0.7139
 4180TIP3   OH233954   3.276   0.975   1.667  0.1452 -0.1807 -0.7418
 4180TIP3    H133955   3.351   1.032   1.650  0.2539  0.0285  0.3632
 4180TIP3    H233956   3.251   0.995   1.757 -2.6685  1.3584 -1.7713
 4181TIP3   OH233957   1.301   5.995  13.200  0.2699  0.0374 -0.3649
 4181TIP3    H133958   1.279   5.903  13.185  1.9498 -0.1996 -1.7265
 4181TIP3    H233959   1.397   5.998  13.196  0.2483  1.8823 -0.5670
 4182TIP3   OH233960   0.167   3.517   4.853 -0.1633  0.1144  0.0896
 4182TIP3    H133961   0.176   3.468   4.935  0.3117  0.6586  0.3704
 4182TIP3    H233962   0.076   3.544   4.851 -0.2295 -0.0817  0.3406
 4183TIP3   OH233963   6.061   0.859  15.214 -0.4570  0.0819 -0.0885
 4183TIP3    H133964   5.975   0.884  15.183 -1.6146 -1.7475  1.4015
 4183TIP3    H233965   6.099   0.809  15.142 -0.9994  0.1654 -0.4366
 4184TIP3   OH233966   1.242   1.623   4.199 -0.7233 -0.1732 -0.7414
 4184TIP3    H133967   1.273   1.563   4.267 -1.7843 -0.7235 -0.7227
 4184TIP3    H233968   1.155   1.650   4.228 -1.0273 -0.0972 -1.6763
 4185TIP3   OH233969   0.075   2.309  10.652  0.1535  0.5472 -0.0152
 4185TIP3    H133970  -0.001   2.347  10.608  0.5050  1.0868 -0.1647
 4185TIP3    H233971   0.061   2.214  10.647 -0.2876  0.6316 -0.4369
 4186TIP3   OH233972   3.668   0.610   3.387 -0.3783 -0.0121  0.2105
 4186TIP3    H133973   3.617   0.657   3.453 -0.9166 -0.0160 -0.1988
 4186TIP3    H233974   3.676   0.521   3.422 -0.3751  0.0733  0.4265
 4187TIP3   OH233975   4.858   3.851  12.637 -0.1189 -0.0153 -0.2980
 4187TIP3    H133976   4.932   3.828  12.581 -0.3387 -0.7196 -0.2995
 4187TIP3    H233977   4.801   3.904  12.581 -0.3657 -0.7603 -0.7679
 4188TIP3   OH233978   2.955   2.284  10.995  0.6380  0.4655 -0.2828
 4188TIP3    H133979   2.896   2.360  10.997  0.3529  0.5045 -3.9212
 4188TIP3    H233980   2.917   2.225  10.931  2.3153 -1.5467  0.4497
 4189TIP3   OH233981   3.720   4.676  10.688 -0.0531 -1.0693  0.2739
 4189TIP3    H133982   3.776   4.722  10.751 -0.4798  1.9947 -1.3954
 4189TIP3    H233983   3.779   4.658  10.614 -0.7929  0.7971 -0.8500
 4190TIP3   OH233984   5.063   6.712  16.385 -0.0441  0.3473 -0.1873
 4190TIP3    H133985   5.041   6.634  16.334  0.4387  1.5431 -2.3509
 4190TIP3    H233986   5.143   6.689  16.430 -0.4400 -0.7362  0.0093
 4191TIP3   OH233987   2.157   4.929  14.497 -0.0756 -0.3730 -0.4865
 4191TIP3    H133988   2.170   4.994  14.566 -0.4716  0.2330 -0.9758
 4191TIP3    H233989   2.236   4.875  14.499  0.4980  0.4574 -0.4398
 4192TIP3   OH233990   3.892   6.162   2.395 -0.4982 -0.0551  0.5684
 4192TIP3    H133991   3.953   6.088   2.400  0.0481  0.2032 -1.5729
 4192TIP3    H233992   3.919   6.220   2.467  1.6795 -0.0418 -0.1992
 4193TIP3   OH233993   1.030   1.008  15.108 -0.2746 -0.1011 -0.0886
 4193TIP3    H133994   1.010   0.974  15.020 -0.0161 -1.9730  0.5249
 4193TIP3    H233995   1.125   1.013  15.111 -0.2579 -0.5831  0.2644
 4194TIP3   OH233996   6.387   5.006   1.942  0.0490  0.3174  0.3849
 4194TIP3    H133997   6.365   5.051   1.860 -1.1903  0.1451  0.6158
 4194TIP3    H233998   6.482   4.996   1.938 -0.1351 -1.4632 -1.9783
 4195TIP3   OH233999   4.237   5.519  11.324  0.0584  0.2013 -0.1987
 4195TIP3    H134000   4.216   5.445  11.381  0.1646 -0.8183 -1.4468
 4195TIP3    H234001   4.325   5.545  11.350 -0.0720  0.0519  0.4082
 4196TIP3   OH234002   0.752   0.088  11.302 -0.0197 -0.1005  0.1938
 4196TIP3    H134003   0.703   0.081  11.221 -0.3776 -1.2993  0.4923
 4196TIP3    H234004   0.822   0.150  11.283  0.6135 -1.2513 -1.3938
 4197TIP3   OH234005   5.639   6.627  11.030 -0.0924 -0.2038  0.4124
 4197TIP3    H134006   5.556   6.651  10.990  1.1493  2.8266 -0.7292
 4197TIP3    H234007   5.665   6.546  10.986 -0.1908  1.4367 -3.0603
 4198TIP3   OH234008   5.295   2.510  14.975  0.1618  0.1034  0.3254
 4198TIP3    H134009   5.286   2.560  14.894  2.7289  0.3304  0.0771
 4198TIP3    H234010   5.389   2.513  14.994  0.0377 -2.4305  1.7400
 4199TIP3   OH234011   1.869   1.297  11.475  0.0859 -0.3951  0.1631
 4199TIP3    H134012   1.899   1.209  11.499 -1.5652 -1.6968 -2.1202
 4199TIP3    H234013   1.780   1.302  11.511  0.0798  0.2756  0.0626
 4200TIP3   OH234014   4.602   5.830   1.885 -0.2700 -0.3451  0.3948
 4200TIP3    H134015   4.617   5.857   1.794  2.3177 -1.4303  0.4025
 4200TIP3    H234016   4.531   5.887   1.915  1.1276  2.5102 -1.2330
 4201TIP3   OH234017   1.132   4.439   1.829  0.5201 -0.3145 -0.6090
 4201TIP3    H134018   1.146   4.487   1.747  0.3476 -2.0496 -1.7104
 4201TIP3    H234019   1.079   4.364   1.803 -0.4656 -0.3217  1.3180
 4202TIP3   OH234020   5.714   4.108   5.591 -0.6173 -0.0457 -0.2480
 4202TIP3    H134021   5.624   4.076   5.603 -0.7991  0.3757 -0.4445
 4202TIP3    H234022   5.768   4.029   5.591 -0.8687 -0.2319  0.9432
 4203TIP3   OH234023   1.434   6.813  15.197 -0.7712  0.5093 -0.3193
 4203TIP3    H134024   1.449   6.735  15.144 -1.6018  0.7444 -0.9327
 4203TIP3    H234025   1.355   6.794  15.248  0.9815 -0.4078  2.2533
 4204TIP3   OH234026   6.088   4.750   5.595 -0.2435 -0.3619  0.7706
 4204TIP3    H134027   6.136   4.729   5.675  1.5922 -0.5248 -0.3039
 4204TIP3    H234028   6.122   4.835   5.568 -0.3301 -0.6129 -0.1801
 4205TIP3   OH234029   3.906   0.386   2.804  0.4452  0.8790  0.2226
 4205TIP3    H134030   3.925   0.474   2.837  0.3414  0.6292  0.9825
 4205TIP3    H234031   3.992   0.346   2.791  0.4910  1.0428  0.0282
 4206TIP3   OH234032   4.144   4.526  13.581 -0.3079  0.1397 -0.0170
 4206TIP3    H134033   4.177   4.500  13.667 -1.4152 -0.4790  0.2435
 4206TIP3    H234034   4.223   4.532  13.526  0.2915 -0.7517  0.7068
 4207TIP3   OH234035   4.057   1.528   4.072  0.2737  0.5668 -0.2991
 4207TIP3    H134036   4.040   1.575   4.154  0.6540  0.2316 -0.0223
 4207TIP3    H234037   4.037   1.437   4.092 -0.7406  0.6392 -0.9170
 4208TIP3   OH234038   5.424   3.614   2.485 -0.3574 -0.2439 -0.3124
 4208TIP3    H134039   5.492   3.581   2.427  0.3198  0.0108  0.3127
 4208TIP3    H234040   5.373   3.674   2.431  0.8977  0.7893 -0.3958
 4209TIP3   OH234041   6.744   5.073  14.710  0.4630 -0.3458  0.5283
 4209TIP3    H134042   6.656   5.072  14.747  0.8708 -0.6446  1.5426
 4209TIP3    H234043   6.802   5.068  14.787  1.3703  0.4595 -0.0867
 4210TIP3   OH234044   2.806   1.608  14.509 -0.6420 -0.0483 -0.5362
 4210TIP3    H134045   2.877   1.570  14.457 -0.0706 -0.5907  0.5996
 4210TIP3    H234046   2.807   1.558  14.591 -1.2834  0.9996  0.1337
 4211TIP3   OH234047   5.962   5.780   1.156  0.1229 -0.6188 -0.0381
 4211TIP3    H134048   5.977   5.767   1.250 -0.7603 -2.1181 -0.0697
 4211TIP3    H234049   5.942   5.692   1.123 -2.2430  0.2431 -1.1305
 4212TIP3   OH234050   2.858   5.929   4.103  0.2310 -0.2672  0.1823
 4212TIP3    H134051   2.812   5.851   4.072 -0.1917 -0.0319  0.2102
 4212TIP3    H234052   2.933   5.938   4.044 -0.6657  0.2811 -0.8900
 4213TIP3   OH234053   1.492   4.562  16.419 -0.0487  0.0814 -0.3644
 4213TIP3    H134054   1.530   4.480  16.387  1.3358  0.0399  1.2642
 4213TIP3    H234055   1.418   4.535  16.473  1.8990 -0.3665  2.2794
 4214TIP3   OH234056   6.623   0.278  15.071  0.3992 -0.5527  0.0075
 4214TIP3    H134057   6.619   0.333  15.149  1.2155 -4.1058  2.8048
 4214TIP3    H234058   6.704   0.304  15.027  1.3125 -0.2585  1.8009
 4215TIP3   OH234059   6.270   1.953   1.359  0.2578  0.1249  0.0071
 4215TIP3    H134060   6.345   2.009   1.337  0.1109 -0.4468 -2.1057
 4215TIP3    H234061   6.297   1.865   1.333  0.0824 -0.6889  2.3297
 4216TIP3   OH234062   1.995   5.696   0.149  0.2431 -0.3249 -0.3361
 4216TIP3    H134063   2.045   5.759   0.201 -0.3695  0.7762 -1.0494
 4216TIP3    H234064   2.061   5.634   0.117  0.9377  0.2811 -0.0976
 4217TIP3   OH234065   5.273   4.273  14.821 -0.0028  0.1291 -0.1749
 4217TIP3    H134066   5.344   4.331  14.846  0.0032 -0.0778  0.2868
 4217TIP3    H234067   5.315   4.188  14.804  0.2459  0.6432 -2.5179
 4218TIP3   OH234068   0.777   5.772  10.711  0.2586 -0.1822  0.3993
 4218TIP3    H134069   0.789   5.772  10.616 -0.5895 -0.1578  0.2848
 4218TIP3    H234070   0.716   5.699  10.727  2.3887 -1.8984  1.1949
 4219TIP3   OH234071   0.820   6.647   2.088 -0.0865 -0.4418  0.5701
 4219TIP3    H134072   0.774   6.582   2.140 -0.8782  0.0567  0.5028
 4219TIP3    H234073   0.777   6.730   2.108  1.4313  0.2065  1.2741
 4220TIP3   OH234074   0.193   4.509  14.831 -0.3586 -0.1443  0.4041
 4220TIP3    H134075   0.198   4.440  14.764 -2.1966  1.4018 -1.4609
 4220TIP3    H234076   0.283   4.539  14.841  0.2415 -1.7231  0.0957
 4221TIP3   OH234077   1.679   6.233  14.573 -0.3851  0.1116  0.1866
 4221TIP3    H134078   1.591   6.198  14.557 -0.0438 -0.8585  0.3785
 4221TIP3    H234079   1.738   6.169  14.535  0.2334  1.5643 -1.4619
 4222TIP3   OH234080   3.728   5.217   6.268  0.4156  0.0729  0.5276
 4222TIP3    H134081   3.740   5.308   6.241 -0.3425  0.3338  1.0252
 4222TIP3    H234082   3.776   5.166   6.203  0.6317  0.8109  0.0920
 4223TIP3   OH234083   0.876   3.738  15.438 -0.3844 -0.7071  0.0902
 4223TIP3    H134084   0.856   3.818  15.388 -1.2322 -1.6620 -1.1485
 4223TIP3    H234085   0.836   3.754  15.524  1.8257  1.3152  0.8515
 4224TIP3   OH234086   3.652   0.650  15.002 -0.8199  0.1106  0.2297
 4224TIP3    H134087   3.663   0.642  14.908 -0.5896 -1.3933  0.3638
 4224TIP3    H234088   3.738   0.633  15.039 -0.5943  1.9937  0.6894
 4225TIP3   OH234089   1.841   0.634   4.256  0.3322  0.5834  0.2868
 4225TIP3    H134090   1.755   0.593   4.249 -1.0604  3.1595  0.7820
 4225TIP3    H234091   1.872   0.611   4.343 -0.6432  0.9630  0.7502
 4226TIP3   OH234092   1.293   6.580  12.881 -0.0472  0.5199 -0.1035
 4226TIP3    H134093   1.227   6.603  12.947  0.7438  1.9632  0.2387
 4226TIP3    H234094   1.257   6.503  12.837 -2.3608  1.7110 -0.4796
 4227TIP3   OH234095   6.165   1.980  12.235  0.3766  0.5044 -0.3707
 4227TIP3    H134096   6.095   2.045  12.245  0.2381  0.3984 -0.6316
 4227TIP3    H234097   6.202   1.970  12.322 -0.9395 -0.5569  0.1122
 4228TIP3   OH234098   4.343   0.618   5.204 -0.0602 -0.0254  0.2331
 4228TIP3    H134099   4.391   0.601   5.285 -0.0639  0.3672  0.3199
 4228TIP3    H234100   4.257   0.647   5.233  0.6342  2.2797  0.1491
 4229TIP3   OH234101   0.227   5.531  15.077 -0.6365  0.2617  0.3480
 4229TIP3    H134102   0.185   5.529  15.163 -0.6810 -0.7558  0.3093
 4229TIP3    H234103   0.279   5.451  15.074 -1.5112 -0.2825 -1.0154
 4230TIP3   OH234104   5.818   4.293  12.996  0.4715  0.1010 -0.2449
 4230TIP3    H134105   5.726   4.307  13.017  0.0858 -1.7392 -0.5392
 4230TIP3    H234106   5.841   4.212  13.042  1.0228 -1.2587 -2.7270
 4231TIP3   OH234107   2.560   3.204  14.550 -0.5467 -0.8791 -0.3295
 4231TIP3    H134108   2.485   3.251  14.512 -0.3604 -0.6229 -0.3885
 4231TIP3    H234109   2.634   3.227  14.492  0.2389  1.2922  1.3747
 4232TIP3   OH234110   1.995   4.294   1.795 -0.3211  0.5628 -0.5010
 4232TIP3    H134111   1.938   4.249   1.857  1.8006 -1.0139  0.4299
 4232TIP3    H234112   1.977   4.387   1.808 -1.7414  0.1557  0.6301
 4233TIP3   OH234113   3.689   4.245   3.499  0.2619 -0.0883  0.0195
 4233TIP3    H134114   3.655   4.180   3.561  0.2199 -0.3590 -0.2888
 4233TIP3    H234115   3.616   4.263   3.440  0.6452 -0.6654 -0.6374
 4234TIP3   OH234116   5.002   1.826   2.961 -0.2303  0.0044 -0.2080
 4234TIP3    H134117   5.096   1.843   2.969  0.6908 -3.9083 -0.9479
 4234TIP3    H234118   4.988   1.817   2.866 -1.0500 -0.8082 -0.0181
 4235TIP3   OH234119   5.718   5.060   4.223  0.9546  0.0924  0.5393
 4235TIP3    H134120   5.743   5.042   4.132 -0.9746 -1.0950  0.1973
 4235TIP3    H234121   5.784   5.014   4.275  2.2986  1.0933 -0.2142
 4236TIP3   OH234122   3.958   2.848  16.180 -0.0852 -0.3022  0.0058
 4236TIP3    H134123   4.041   2.858  16.226  0.3045 -2.9536  0.0353
 4236TIP3    H234124   3.953   2.924  16.123  2.6776 -0.3587 -0.4630
 4237TIP3   OH234125   3.639   5.205   3.956  0.2794  1.1287  0.1214
 4237TIP3    H134126   3.642   5.234   4.048  0.9828 -2.5700  1.4360
 4237TIP3    H234127   3.731   5.189   3.933 -0.0795 -2.5540  0.5911
 4238TIP3   OH234128   5.191   3.373   0.237 -0.5076 -0.2459  0.3316
 4238TIP3    H134129   5.182   3.283   0.205  1.4183 -1.4282  2.7358
 4238TIP3    H234130   5.235   3.420   0.166 -3.3481 -0.5282 -1.7977
 4239TIP3   OH234131   3.937   5.001   3.673  0.4223 -0.0996 -0.1454
 4239TIP3    H134132   3.855   5.006   3.624 -0.3126 -0.4668  0.9985
 4239TIP3    H234133   3.920   4.936   3.741  1.7326 -0.3114 -0.0072
 4240TIP3   OH234134   2.051   5.238  13.493 -0.5359 -0.2442  0.9542
 4240TIP3    H134135   1.965   5.195  13.494 -1.7030  1.8803  3.4102
 4240TIP3    H234136   2.094   5.208  13.572  0.7416 -0.7012  0.1233
 4241TIP3   OH234137   0.711   3.137   4.929 -0.3128  0.9352  0.0056
 4241TIP3    H134138   0.741   3.224   4.903  1.3928  0.0897 -1.0689
 4241TIP3    H234139   0.655   3.108   4.858  2.9691 -0.6787 -2.1860
 4242TIP3   OH234140   4.741   5.888  10.989 -0.6394 -0.0024 -0.2902
 4242TIP3    H134141   4.810   5.899  10.923 -0.2703 -0.3748  0.0295
 4242TIP3    H234142   4.670   5.945  10.959  1.1077  3.2883  1.2489
 4243TIP3   OH234143   2.494   4.697   2.452  0.3511 -0.5453  0.0179
 4243TIP3    H134144   2.436   4.621   2.457  0.6228 -0.6950  1.0827
 4243TIP3    H234145   2.440   4.766   2.413 -0.0849 -1.1019 -0.3782
 4244TIP3   OH234146   0.145   3.661  14.675 -0.1157 -0.1975 -0.3212
 4244TIP3    H134147   0.127   3.653  14.581 -2.3862  0.1894  0.0236
 4244TIP3    H234148   0.145   3.570  14.706  1.7005 -0.4080 -0.8194
 4245TIP3   OH234149   5.624   3.237  15.004 -0.6922 -0.2889 -0.1129
 4245TIP3    H134150   5.570   3.315  14.988 -0.1678 -0.1419 -1.2655
 4245TIP3    H234151   5.686   3.236  14.931 -0.5466 -1.6697  0.0139
 4246TIP3   OH234152   6.238   2.706   5.345  0.6000  0.1671  0.4009
 4246TIP3    H134153   6.163   2.741   5.393  1.1635 -0.1137  1.5007
 4246TIP3    H234154   6.242   2.614   5.370  0.5438 -0.1371 -0.6598
 4247TIP3   OH234155   4.559   4.571   5.319 -1.2232  0.7241 -0.5665
 4247TIP3    H134156   4.520   4.643   5.269  0.7481  1.8764 -0.5255
 4247TIP3    H234157   4.583   4.610   5.403 -1.1254 -0.2712 -0.1189
 4248TIP3   OH234158   4.606   3.728  16.246  0.3393 -0.1631  0.0333
 4248TIP3    H134159   4.640   3.683  16.324  0.4884 -1.5855 -0.8102
 4248TIP3    H234160   4.684   3.766  16.205  0.7532 -2.0061 -1.0074
 4249TIP3   OH234161   1.047   3.353   1.645 -0.1375 -0.0265  0.9742
 4249TIP3    H134162   0.993   3.427   1.617  0.7723  1.0264  1.8582
 4249TIP3    H234163   1.024   3.282   1.586 -2.9683  0.1338  1.7196
 4250TIP3   OH234164   1.537   4.572  10.537  0.2710 -1.0260  0.2829
 4250TIP3    H134165   1.509   4.660  10.564  1.1190  0.1761 -2.3817
 4250TIP3    H234166   1.465   4.515  10.564 -1.1513  0.7611  0.5083
 4251TIP3   OH234167   5.848   4.002   1.491 -0.5111 -0.6433 -0.2410
 4251TIP3    H134168   5.818   3.919   1.452 -2.8024  0.1969 -0.4270
 4251TIP3    H234169   5.776   4.063   1.475  0.2061  0.8266  1.7688
 4252TIP3   OH234170   4.040   3.344  12.076 -0.1305  0.6336  0.4136
 4252TIP3    H134171   4.053   3.323  11.984 -1.8009  0.4742  0.1820
 4252TIP3    H234172   3.951   3.313  12.096  0.9333 -1.3005  2.6433
 4253TIP3   OH234173   1.404   2.706  15.283 -0.1300 -0.1245 -0.4117
 4253TIP3    H134174   1.441   2.722  15.370  0.1824 -2.5088 -0.0530
 4253TIP3    H234175   1.371   2.792  15.256  0.6505  0.8991  1.6197
 4254TIP3   OH234176   3.237   3.327   4.922  0.0810  0.0007 -0.1560
 4254TIP3    H134177   3.309   3.384   4.895  0.8857 -0.9177  0.0286
 4254TIP3    H234178   3.163   3.357   4.869  0.2999  1.6305  0.3806
 4255TIP3   OH234179   4.720   5.227   2.298 -0.3501 -0.3967 -0.1574
 4255TIP3    H134180   4.705   5.178   2.379 -1.6940  0.9012  0.4292
 4255TIP3    H234181   4.697   5.165   2.228 -0.0667 -1.2371  0.4753
 4256TIP3   OH234182   3.135   6.099   6.173 -0.0787 -0.0565  0.0440
 4256TIP3    H134183   3.114   6.159   6.244 -0.6479  0.5863 -0.6529
 4256TIP3    H234184   3.230   6.102   6.166  0.0394 -0.6252  1.1960
 4257TIP3   OH234185   0.431   1.254  16.721 -0.1725 -0.4615 -0.0194
 4257TIP3    H134186   0.494   1.287  16.785  0.0757  1.1103 -1.0123
 4257TIP3    H234187   0.449   1.160  16.715  1.6566 -0.1443  0.1677
 4258TIP3   OH234188   1.024   4.335   4.513  0.0988  0.4810  0.4839
 4258TIP3    H134189   0.959   4.341   4.583 -0.4843  0.0836 -0.0157
 4258TIP3    H234190   1.082   4.410   4.527 -0.3632  0.7382  1.0404
 4259TIP3   OH234191   0.506   5.238  16.941  0.4908  0.0227 -0.0313
 4259TIP3    H134192   0.417   5.204  16.952 -0.8725  2.6247 -2.0109
 4259TIP3    H234193   0.494   5.332  16.927  3.5808  0.4539 -0.3643
 4260TIP3   OH234194   2.585   5.737   0.363  0.1786  0.0832  0.2821
 4260TIP3    H134195   2.618   5.825   0.380  1.3640 -0.0700 -1.0584
 4260TIP3    H234196   2.551   5.741   0.274 -1.0819 -0.4663  0.7137
 4261TIP3   OH234197   0.877   3.525   0.013  0.2828  0.1842  0.4964
 4261TIP3    H134198   0.938   3.561  -0.051  0.3118 -2.8549 -1.3966
 4261TIP3    H234199   0.912   3.438   0.033 -2.6886 -1.1740  0.3117
 4262TIP3   OH234200   6.371   2.097  14.110  0.1651  0.1616  0.4242
 4262TIP3    H134201   6.443   2.037  14.092 -0.9350 -0.4604 -2.2855
 4262TIP3    H234202   6.292   2.043  14.109 -0.5411  1.0841  1.7632
 4263TIP3   OH234203   2.892   4.687   3.612  0.3396  0.6919  0.8180
 4263TIP3    H134204   2.855   4.639   3.686 -1.8498 -3.0206 -2.3156
 4263TIP3    H234205   2.817   4.709   3.558  2.0202 -0.1313 -2.0574
 4264TIP3   OH234206   5.589   0.274  15.966 -0.3920 -0.3928 -0.1370
 4264TIP3    H134207   5.655   0.206  15.979  0.7261 -0.1483 -3.6121
 4264TIP3    H234208   5.634   0.356  15.988  0.6951 -0.2049 -2.6996
 4265TIP3   OH234209   0.806   0.578   2.445 -0.2999 -0.2702 -0.5365
 4265TIP3    H134210   0.824   0.530   2.526 -0.4524 -0.2250 -0.4754
 4265TIP3    H234211   0.859   0.657   2.452  1.6203 -1.3893 -1.5849
 4266TIP3   OH234212   1.972   6.410  11.514 -0.6431 -0.3351 -0.0348
 4266TIP3    H134213   1.948   6.459  11.436 -0.9614  0.7640  0.7213
 4266TIP3    H234214   1.960   6.319  11.490  1.3890 -0.1764 -1.9743
 4267TIP3   OH234215   3.532   5.886   2.853 -0.0964  0.1032 -0.6235
 4267TIP3    H134216   3.604   5.869   2.792 -0.5791  1.4881 -1.6332
 4267TIP3    H234217   3.462   5.923   2.799 -0.6028  1.2442  0.7359
 4268TIP3   OH234218   4.747   6.222  15.884  0.0699  0.2578  0.2347
 4268TIP3    H134219   4.800   6.205  15.806  0.5239  0.8280  0.4080
 4268TIP3    H234220   4.689   6.146  15.891 -1.2790  1.0141 -1.7140
 4269TIP3   OH234221   2.958   4.907   2.314  0.7468 -0.6073  0.5005
 4269TIP3    H134222   3.025   4.971   2.287 -0.2115 -0.4321 -1.6598
 4269TIP3    H234223   2.879   4.959   2.325  0.1644 -1.2927 -0.3816
 4270TIP3   OH234224   5.524   0.133  14.602  0.2864  0.1393 -0.1538
 4270TIP3    H134225   5.595   0.077  14.570 -0.4032 -0.4386 -0.6998
 4270TIP3    H234226   5.541   0.141  14.696  0.8171 -0.3601 -0.1999
 4271TIP3   OH234227   5.127   1.435   5.351  0.0887  0.2113 -0.0046
 4271TIP3    H134228   5.221   1.417   5.350 -0.2116 -1.6293  1.1326
 4271TIP3    H234229   5.101   1.434   5.259  0.9021 -0.9687 -0.2412
 4272TIP3   OH234230   4.513   5.837  12.800  0.0013  0.0628 -0.1953
 4272TIP3    H134231   4.511   5.918  12.850  1.5475 -0.2196  0.3732
 4272TIP3    H234232   4.508   5.865  12.708  1.9325  0.9094 -0.0695
 4273TIP3   OH234233   0.762   2.949  12.189 -0.6150 -0.8113 -0.6597
 4273TIP3    H134234   0.786   2.865  12.151 -0.8918 -1.9874  1.5871
 4273TIP3    H234235   0.758   2.932  12.283 -1.0464  1.6399 -0.1732
 4274TIP3   OH234236   1.973   0.455  12.474 -0.0964  0.0210 -0.6246
 4274TIP3    H134237   1.905   0.511  12.437 -1.3753 -1.2937 -0.3503
 4274TIP3    H234238   1.930   0.409  12.547  1.4120  0.0181  0.3071
 4275TIP3   OH234239   0.549   6.199  14.864 -0.4482 -0.4847 -0.4602
 4275TIP3    H134240   0.502   6.122  14.894 -2.8237  0.5891 -1.2087
 4275TIP3    H234241   0.588   6.172  14.781 -3.1731 -0.3639 -1.9077
 4276TIP3   OH234242   1.522   6.560  15.136 -0.0186  0.4470 -0.3427
 4276TIP3    H134243   1.519   6.499  15.209 -1.3891  1.1282  0.2103
 4276TIP3    H234244   1.613   6.587  15.130  0.0962  0.4375  1.1704
 4277TIP3   OH234245   4.857   1.342  12.797  0.3007 -0.1109 -0.2229
 4277TIP3    H134246   4.840   1.415  12.737 -0.6297  0.8069  1.1104
 4277TIP3    H234247   4.785   1.281  12.781 -0.1733  0.3240  0.2433
 4278TIP3   OH234248   6.121   3.302  14.519 -0.2580  0.2819 -0.1557
 4278TIP3    H134249   6.184   3.371  14.495  2.6508 -1.6630  1.2507
 4278TIP3    H234250   6.148   3.274  14.606 -1.0519 -2.8631 -0.7951
 4279TIP3   OH234251   6.224   5.702   2.510 -0.2551  0.7663  0.3223
 4279TIP3    H134252   6.231   5.687   2.416  0.5125  1.4179  0.2684
 4279TIP3    H234253   6.140   5.745   2.522 -0.8908 -0.3667  0.0774
 4280TIP3   OH234254   1.704   5.451  16.033  0.0806  0.3534 -0.1521
 4280TIP3    H134255   1.768   5.424  16.100  0.2523 -0.5216 -0.6545
 4280TIP3    H234256   1.675   5.369  15.993 -0.4844  0.8274 -0.7387
 4281TIP3   OH234257   2.900   2.517  15.003  0.2678  0.3768  0.4024
 4281TIP3    H134258   2.963   2.460  15.047  0.3901  2.0204  2.5336
 4281TIP3    H234259   2.954   2.583  14.960  0.0519  0.4371  0.2232
 4282TIP3   OH234260   4.366   4.600   5.020  0.0145 -0.3760  0.2910
 4282TIP3    H134261   4.294   4.662   5.016 -0.8265 -1.3067  0.6296
 4282TIP3    H234262   4.408   4.606   4.934 -0.3227  0.3198  0.1672
 4283TIP3   OH234263   3.137   4.286   0.019 -0.5401  0.3430 -0.0356
 4283TIP3    H134264   3.144   4.195   0.050 -0.1639 -0.4050 -2.1597
 4283TIP3    H234265   3.047   4.311   0.042 -0.6749 -0.5853  0.5302
 4284TIP3   OH234266   2.717   1.577   6.073 -0.1706  0.3116  0.4875
 4284TIP3    H134267   2.659   1.650   6.049 -1.6376 -0.3815  1.7424
 4284TIP3    H234268   2.701   1.511   6.006 -0.3246  0.3986  0.4372
 4285TIP3   OH234269   3.232   0.767   4.236  0.3491 -0.2364 -0.1647
 4285TIP3    H134270   3.179   0.843   4.210  0.9718  0.9584  1.8565
 4285TIP3    H234271   3.315   0.780   4.190  0.1063 -0.2544 -0.6189
 4286TIP3   OH234272   5.373   5.801   5.274 -0.6055 -0.8224 -0.2361
 4286TIP3    H134273   5.335   5.887   5.254  2.6228  0.2466 -2.4737
 4286TIP3    H234274   5.334   5.742   5.210 -1.1273 -0.5500 -0.1777
 4287TIP3   OH234275   2.150   3.799  16.620  0.7974  0.0162 -0.1348
 4287TIP3    H134276   2.136   3.831  16.530  2.3019 -0.1845 -0.4558
 4287TIP3    H234277   2.063   3.806  16.661 -0.2665 -1.2905 -2.0335
 4288TIP3   OH234278   5.747   0.386  12.872 -0.1438 -0.4830 -0.2905
 4288TIP3    H134279   5.758   0.291  12.864 -2.1491 -0.7689 -0.1663
 4288TIP3    H234280   5.750   0.402  12.966 -2.3270 -0.8381 -0.1045
 4289TIP3   OH234281   4.372   5.458  13.162  0.2502 -0.1434  0.2195
 4289TIP3    H134282   4.375   5.467  13.067  0.4401 -0.7812  0.1609
 4289TIP3    H234283   4.447   5.402  13.183 -1.5457 -2.6555  0.4146
 4290TIP3   OH234284   5.210   0.770   0.111 -0.3108  0.5136  0.1972
 4290TIP3    H134285   5.260   0.850   0.099 -0.1714  0.3744 -0.1497
 4290TIP3    H234286   5.263   0.718   0.173 -0.5745  0.8344  0.6997
 4291TIP3   OH234287   5.815   5.937  12.895  0.0390 -0.2950 -0.0426
 4291TIP3    H134288   5.733   5.964  12.935 -1.7020  1.9511 -4.4013
 4291TIP3    H234289   5.807   5.842  12.885 -1.4457 -0.2706  0.7123
 4292TIP3   OH234290   3.715   1.156   4.700  0.2918 -0.2680 -0.2478
 4292TIP3    H134291   3.793   1.191   4.744  1.6551 -0.6322 -2.2126
 4292TIP3    H234292   3.650   1.226   4.706  0.5028 -0.1927  1.9890
 4293TIP3   OH234293   4.477   5.647   4.373 -0.0707 -0.1049 -0.3649
 4293TIP3    H134294   4.483   5.563   4.329  0.1895  0.1446 -0.8027
 4293TIP3    H234295   4.538   5.704   4.327 -1.7756  0.9245 -1.4485
 4294TIP3   OH234296   4.507   3.867  15.055  0.4933  0.2601  0.1859
 4294TIP3    H134297   4.515   3.805  14.982 -1.2989 -0.4697  0.5463
 4294TIP3    H234298   4.593   3.867  15.097  0.9613 -0.8207 -0.7226
 4295TIP3   OH234299   1.120   0.062  11.611 -0.0915 -0.0188 -0.1180
 4295TIP3    H134300   1.086   0.144  11.576  0.6114  0.6244  0.6544
 4295TIP3    H234301   1.215   0.067  11.598 -0.1567 -1.3261 -1.3040
 4296TIP3   OH234302   0.492   2.098  16.280 -0.1577  0.4461 -0.2283
 4296TIP3    H134303   0.496   2.139  16.194  2.1394  4.3406  1.4585
 4296TIP3    H234304   0.410   2.130  16.318 -0.0154  0.7040 -0.1341
 4297TIP3   OH234305   2.355   2.595  13.890  0.1947  0.1932 -0.4690
 4297TIP3    H134306   2.360   2.567  13.982  2.1097 -1.4923 -1.0162
 4297TIP3    H234307   2.261   2.607  13.874 -0.1089  1.8548  2.0373
 4298TIP3   OH234308   1.908   1.093   2.084 -0.1772  0.5475  0.5407
 4298TIP3    H134309   1.949   1.065   2.002  0.2558  1.3652  0.4677
 4298TIP3    H234310   1.946   1.035   2.150  1.2571  1.3753  0.5005
 4299TIP3   OH234311   1.669   5.838  11.466  0.7716  0.2861  0.1939
 4299TIP3    H134312   1.742   5.779  11.449  0.0196 -0.7349  0.4159
 4299TIP3    H234313   1.658   5.886  11.384  1.0562 -0.2587 -0.1741
 4300TIP3   OH234314   1.818   4.072  12.863  0.1536 -0.3930  0.1004
 4300TIP3    H134315   1.798   4.002  12.926  1.0488  1.0728  2.1184
 4300TIP3    H234316   1.744   4.133  12.872 -0.4767 -0.8830 -1.4377
 4301TIP3   OH234317   6.433   4.160   0.275 -0.7143 -0.8511 -0.1049
 4301TIP3    H134318   6.476   4.142   0.358  0.8124  1.2238 -0.3633
 4301TIP3    H234319   6.479   4.236   0.240 -2.5367 -0.5083 -1.9728
 4302TIP3   OH234320   0.389   3.890   0.775  0.3131 -0.1020 -0.4046
 4302TIP3    H134321   0.403   3.919   0.866  1.6357 -1.3919 -0.1650
 4302TIP3    H234322   0.307   3.840   0.778  0.3704 -0.1739  0.0936
 4303TIP3   OH234323   3.695   0.808  13.645 -0.6149 -0.1094 -0.0535
 4303TIP3    H134324   3.769   0.755  13.674 -2.0022 -1.5560  0.9890
 4303TIP3    H234325   3.711   0.823  13.551  0.0323 -2.0515 -0.2959
 4304TIP3   OH234326   5.480   4.207  14.080 -0.0439  0.0783 -0.1818
 4304TIP3    H134327   5.544   4.269  14.117 -0.9926  1.0814 -0.1766
 4304TIP3    H234328   5.484   4.223  13.986 -1.3299  1.2275 -0.0755
 4305TIP3   OH234329   0.566   6.528   5.184  0.3276  0.8223  0.2641
 4305TIP3    H134330   0.659   6.537   5.164  0.4006 -1.5914 -0.8598
 4305TIP3    H234331   0.522   6.557   5.104  0.2052  0.3577  0.1595
 4306TIP3   OH234332   0.079   0.610   0.087  0.6624  0.0940  0.5142
 4306TIP3    H134333   0.158   0.618   0.033  1.4345 -1.6401  1.3264
 4306TIP3    H234334   0.108   0.566   0.167 -0.9764  0.1732  1.1946
 4307TIP3   OH234335   6.745   2.332  16.552 -0.1127  0.6089 -0.2155
 4307TIP3    H134336   6.744   2.425  16.528 -1.3634  0.6636  0.0068
 4307TIP3    H234337   6.670   2.295  16.507 -0.7278  0.0995  1.1805
 4308TIP3   OH234338   3.997   6.672   0.205 -0.9923  0.0897 -0.4253
 4308TIP3    H134339   4.024   6.760   0.179  0.8912 -0.0907  0.7134
 4308TIP3    H234340   4.011   6.671   0.300  1.9158 -2.3092 -0.7472
 4309TIP3   OH234341   1.531   4.712  14.108  0.8531  0.1580 -0.0087
 4309TIP3    H134342   1.546   4.744  14.019 -0.3222  2.1669  0.4482
 4309TIP3    H234343   1.533   4.617  14.100  0.3490  0.2851 -2.2663
 4310TIP3   OH234344   3.305   4.515   6.600 -0.5527  0.4623 -0.6666
 4310TIP3    H134345   3.258   4.596   6.619  0.8809  1.0345  0.6770
 4310TIP3    H234346   3.397   4.539   6.607 -0.0942 -1.2121 -0.6100
 4311TIP3   OH234347   6.320   2.972  12.676 -0.0081  0.0828 -0.0768
 4311TIP3    H134348   6.249   2.953  12.614  1.2218 -0.2976 -1.4349
 4311TIP3    H234349   6.312   2.904  12.743  0.1033 -1.0517 -1.1587
 4312TIP3   OH234350   4.094   6.384   3.624 -0.2797  0.6255  0.5696
 4312TIP3    H134351   4.069   6.299   3.587  2.3062  0.1733 -0.3518
 4312TIP3    H234352   4.087   6.371   3.719  0.7614 -0.9181  0.4832
 4313TIP3   OH234353   3.124   5.724   1.984  0.0630 -0.1290  0.3788
 4313TIP3    H134354   3.051   5.762   2.033  1.0187  1.8451  0.3916
 4313TIP3    H234355   3.130   5.777   1.905  1.7553  0.0793  0.6023
 4314TIP3   OH234356   6.340   4.508  13.239 -0.3199 -0.0825 -0.1637
 4314TIP3    H134357   6.329   4.456  13.160 -2.8273  1.3084 -0.8298
 4314TIP3    H234358   6.346   4.598  13.208  0.3669  0.3554  1.1594
 4315TIP3   OH234359   5.399   0.505   1.865 -0.2274 -0.2963  0.3100
 4315TIP3    H134360   5.399   0.518   1.770  0.9025  0.5606  0.4043
 4315TIP3    H234361   5.329   0.561   1.897 -0.6395 -0.6200 -0.0148
 4316TIP3   OH234362   3.992   2.354   5.048 -0.8305 -0.4761  0.4530
 4316TIP3    H134363   3.947   2.371   5.131 -1.6875  0.8856 -0.2488
 4316TIP3    H234364   3.936   2.291   5.003 -1.2134 -0.0191  0.2702
 4317TIP3   OH234365   4.325   0.997  13.742 -0.1695  0.1446 -0.5278
 4317TIP3    H134366   4.315   1.093  13.742 -0.4223  0.2397  2.4945
 4317TIP3    H234367   4.279   0.969  13.821 -1.5074 -2.7200 -2.1857
 4318TIP3   OH234368   3.863   1.055   4.218  0.6235  0.4301 -0.2848
 4318TIP3    H134369   3.928   0.984   4.221 -1.6726 -1.8121 -0.0527
 4318TIP3    H234370   3.808   1.041   4.295 -2.0686  0.1672 -2.1109
 4319TIP3   OH234371   5.039   6.738   0.245 -0.0344  0.0977 -0.3819
 4319TIP3    H134372   5.109   6.685   0.207  0.3148 -0.6641  1.2123
 4319TIP3    H234373   5.052   6.825   0.209  0.0052 -0.6460 -2.2786
 4320TIP3   OH234374   3.192   6.374  12.798 -0.3898  0.8743  0.3004
 4320TIP3    H134375   3.165   6.282  12.802 -3.4212  1.6208 -0.3046
 4320TIP3    H234376   3.228   6.386  12.710 -3.3864  0.9757 -1.0225
 4321TIP3   OH234377   4.528   3.463   3.117 -0.4089 -0.1819 -0.4503
 4321TIP3    H134378   4.518   3.535   3.055  1.6153  0.7706  0.2190
 4321TIP3    H234379   4.519   3.505   3.203 -1.0020 -1.0787 -0.0640
 4322TIP3   OH234380   3.453   5.776  15.835  0.2785  0.1109 -0.7760
 4322TIP3    H134381   3.364   5.741  15.846 -0.0285  0.4499 -1.9842
 4322TIP3    H234382   3.453   5.856  15.889 -0.3813  0.4721 -1.2918
 4323TIP3   OH234383   3.895   0.337   4.883  0.4329  0.0696 -0.2403
 4323TIP3    H134384   3.820   0.319   4.938  1.0356  0.5814  0.7828
 4323TIP3    H234385   3.958   0.379   4.941  1.3911 -0.0672 -1.1441
 4324TIP3   OH234386   2.568   4.389  13.585  0.0650  0.0110  0.5928
 4324TIP3    H134387   2.538   4.469  13.628  1.7708 -0.3483  2.5913
 4324TIP3    H234388   2.557   4.321  13.652  1.1070 -0.9145 -0.1528
 4325TIP3   OH234389   3.605   1.342   1.112  0.1692  0.0388  0.2710
 4325TIP3    H134390   3.652   1.364   1.032 -0.9035 -0.9335 -0.6645
 4325TIP3    H234391   3.672   1.304   1.169  0.6582 -0.7338 -0.7851
 4326TIP3   OH234392   0.763   6.704  16.306  0.6802  0.6162 -0.3335
 4326TIP3    H134393   0.829   6.748  16.253 -0.7504  2.8900 -0.3815
 4326TIP3    H234394   0.687   6.762  16.303 -0.1635 -0.1564  2.5496
 4327TIP3   OH234395   6.477   6.368   4.012 -0.4303  0.2709 -0.4330
 4327TIP3    H134396   6.528   6.290   4.034  2.3559  1.1561 -3.1599
 4327TIP3    H234397   6.449   6.354   3.922 -3.3330  0.8026  0.2799
 4328TIP3   OH234398   3.710   0.966   1.364 -0.0734  0.0527  0.0406
 4328TIP3    H134399   3.627   0.999   1.329  0.8112  2.1388 -0.2349
 4328TIP3    H234400   3.750   1.042   1.406  1.2976 -1.1373  0.9847
 4329TIP3   OH234401   4.649   2.705   3.892  0.4707 -0.1887 -0.2594
 4329TIP3    H134402   4.633   2.762   3.967  4.0244 -0.5482  0.9272
 4329TIP3    H234403   4.642   2.763   3.816  0.4219  1.0032  0.6340
 4330TIP3   OH234404   5.671   3.038  14.548  0.9923 -0.2832  0.6409
 4330TIP3    H134405   5.749   3.013  14.498  0.8343  0.0360  0.2291
 4330TIP3    H234406   5.685   3.131  14.569 -0.3155  0.4270 -1.4137
 4331TIP3   OH234407   3.855   4.897   2.420  0.1233 -0.1540 -0.4499
 4331TIP3    H134408   3.770   4.875   2.382 -0.5121  1.7851 -0.2637
 4331TIP3    H234409   3.833   4.937   2.504  1.1085  1.4905 -0.9341
 4332TIP3   OH234410   2.486   3.829  10.991  0.5619 -0.0248  0.4288
 4332TIP3    H134411   2.529   3.769  10.930 -2.2866 -1.2803 -0.5057
 4332TIP3    H234412   2.499   3.916  10.953  1.6177 -0.4220 -0.1578
 4333TIP3   OH234413   3.250   5.614  14.133 -0.9710 -0.0185  0.6633
 4333TIP3    H134414   3.179   5.670  14.101 -1.8323 -1.0347  0.7434
 4333TIP3    H234415   3.242   5.534  14.081  0.7191  0.1945  0.0163
 4334TIP3   OH234416   0.969   0.939  12.300 -0.4420  0.1390 -0.1327
 4334TIP3    H134417   1.010   0.871  12.246  0.4891 -0.2277  0.9892
 4334TIP3    H234418   0.892   0.896  12.339 -1.4233  0.5592 -1.5256
 4335TIP3   OH234419   6.378   2.433  11.943 -0.6961  0.4152 -0.5456
 4335TIP3    H134420   6.471   2.447  11.961 -0.8215  0.5792 -0.0076
 4335TIP3    H234421   6.365   2.464  11.854 -0.2118  0.2974 -0.6556
 4336TIP3   OH234422   5.053   1.811  14.120 -0.3796  0.2190  0.1174
 4336TIP3    H134423   4.976   1.768  14.082  0.1234 -0.8179  0.2385
 4336TIP3    H234424   5.117   1.812  14.048 -0.2916  0.4960  0.2007
 4337TIP3   OH234425   1.066   3.736   4.903 -0.0247 -0.1778  0.5754
 4337TIP3    H134426   1.095   3.711   4.815  0.3897  0.6196  0.4766
 4337TIP3    H234427   1.035   3.654   4.942 -0.5188 -0.4773 -0.4213
 4338TIP3   OH234428   2.689   6.268   5.514  0.2517 -1.1527 -0.3705
 4338TIP3    H134429   2.719   6.305   5.597  0.5458 -1.6254 -0.2653
 4338TIP3    H234430   2.594   6.261   5.523  0.4813 -3.6547  0.9556
 4339TIP3   OH234431   0.218   6.003   0.061 -0.6671 -0.2395  0.2538
 4339TIP3    H134432   0.284   6.068   0.039 -0.2966  0.0847  2.1663
 4339TIP3    H234433   0.249   5.922   0.019  0.2067  0.2213 -0.0058
 4340TIP3   OH234434   6.698   4.721   2.154 -0.4783  0.5514  0.2353
 4340TIP3    H134435   6.723   4.677   2.235 -0.2487 -0.8254 -0.5576
 4340TIP3    H234436   6.608   4.692   2.138 -0.3546  0.4273 -0.2542
 4341TIP3   OH234437   4.733   5.406   4.149  0.0818 -0.5580  0.1708
 4341TIP3    H134438   4.714   5.397   4.242  0.3517 -0.7582  0.2090
 4341TIP3    H234439   4.747   5.500   4.137  0.4711 -0.5808  0.4182
 4342TIP3   OH234440   2.915   1.032   1.767  0.0756 -0.0941  0.2127
 4342TIP3    H134441   2.915   0.947   1.811 -1.5145  1.0532  2.6731
 4342TIP3    H234442   2.876   1.092   1.831  0.8322  2.4428 -1.5425
 4343TIP3   OH234443   3.957   3.743   4.102  0.0292 -0.4237  0.1202
 4343TIP3    H134444   4.049   3.737   4.129 -0.1273  0.0168  0.7871
 4343TIP3    H234445   3.959   3.740   4.007  0.8607  1.1461  0.0603
 4344TIP3   OH234446   1.000   1.760   3.073  0.5185  0.1227  0.3492
 4344TIP3    H134447   1.063   1.717   3.016 -1.1522 -1.3837 -0.4732
 4344TIP3    H234448   0.939   1.691   3.099  0.3322  1.0841  2.7603
 4345TIP3   OH234449   3.451   3.204   1.544  0.3594 -0.0089 -0.0291
 4345TIP3    H134450   3.482   3.271   1.606 -1.8233 -1.2253  2.5875
 4345TIP3    H234451   3.398   3.253   1.481 -0.3344  0.8881  1.2079
 4346TIP3   OH234452   1.701   2.892  14.126 -0.0511 -0.0230  0.3026
 4346TIP3    H134453   1.677   2.975  14.085 -1.8004 -0.8974 -0.5654
 4346TIP3    H234454   1.763   2.916  14.194 -0.3715  1.9806 -0.0548
 4347TIP3   OH234455   6.271   1.316   2.282  0.0182 -0.2264  0.5447
 4347TIP3    H134456   6.253   1.288   2.192  0.9509  0.9052 -0.0389
 4347TIP3    H234457   6.361   1.349   2.279 -0.1284  0.3566  1.7555
 4348TIP3   OH234458   5.768   1.629  13.654  0.0020  0.0895 -0.3024
 4348TIP3    H134459   5.697   1.692  13.656 -0.0463  0.0267 -0.0375
 4348TIP3    H234460   5.727   1.544  13.672 -0.1258 -0.2039 -1.8739
 4349TIP3   OH234461   0.147   1.227   4.663 -0.1457  0.8308  0.2060
 4349TIP3    H134462   0.235   1.190   4.658  0.5277  2.5087 -1.8067
 4349TIP3    H234463   0.089   1.157   4.635  0.5170 -0.3162  1.6161
 4350TIP3   OH234464   3.508   4.878   2.060 -0.2614  0.1326 -0.2046
 4350TIP3    H134465   3.509   4.964   2.101 -0.5752 -0.3377  0.8133
 4350TIP3    H234466   3.565   4.824   2.114  0.2159 -0.2262 -1.0320
 4351TIP3   OH234467   0.872   0.612   2.710  0.2005 -0.3110  0.4693
 4351TIP3    H134468   0.900   0.567   2.790  1.0047  0.3259  0.5623
 4351TIP3    H234469   0.842   0.698   2.741  2.9012  0.9430 -0.1176
 4352TIP3   OH234470   0.801   1.757  14.778  0.6675  0.2324 -0.4107
 4352TIP3    H134471   0.751   1.831  14.812 -0.6957  0.4386 -2.6861
 4352TIP3    H234472   0.891   1.789  14.774  0.3114  1.3198 -0.1788
 4353TIP3   OH234473   0.728   1.603  14.573  0.4983 -0.5117 -0.1861
 4353TIP3    H134474   0.737   1.662  14.648  1.3014  0.3338 -0.9106
 4353TIP3    H234475   0.733   1.661  14.497  0.3706 -1.4204 -0.9012
 4354TIP3   OH234476   2.248   1.724   3.833  0.4623 -0.2024  0.3585
 4354TIP3    H134477   2.157   1.750   3.815  0.0000 -1.2243  1.1159
 4354TIP3    H234478   2.278   1.787   3.899 -0.4295 -1.1164  1.6915
 4355TIP3   OH234479   5.893   1.177   4.966  0.8977  0.8340  0.4657
 4355TIP3    H134480   5.916   1.251   5.023  3.0796  0.1050  0.6244
 4355TIP3    H234481   5.977   1.145   4.934 -0.0299 -1.2571 -0.0173
 4356TIP3   OH234482   3.123   5.766  14.752 -0.3044 -0.0486 -0.3823
 4356TIP3    H134483   3.115   5.861  14.756  0.3738 -0.0385  1.3600
 4356TIP3    H234484   3.178   5.743  14.827  0.4254 -1.7226 -1.3669
 4357TIP3   OH234485   5.142   2.935  14.240  0.0583 -0.1304  0.2453
 4357TIP3    H134486   5.070   2.990  14.270  2.2207  1.0870  3.7740
 4357TIP3    H234487   5.137   2.856  14.294 -0.3109 -1.4915 -1.6330
 4358TIP3   OH234488   3.369   5.831  12.629 -0.7446 -0.2204 -0.2005
 4358TIP3    H134489   3.399   5.881  12.553  0.5834  1.2487  1.2192
 4358TIP3    H234490   3.279   5.860  12.642 -1.1386 -0.8044 -1.4304
 4359TIP3   OH234491   2.624   3.898   3.801  0.1417 -0.0575  0.0558
 4359TIP3    H134492   2.585   3.880   3.715  0.0426  1.7869 -0.3385
 4359TIP3    H234493   2.552   3.883   3.862 -0.3026  0.3165 -0.3631
 4360TIP3   OH234494   2.904   1.794  14.836  0.6309  0.5281 -0.4454
 4360TIP3    H134495   2.888   1.702  14.818 -0.5349  0.3582  1.2837
 4360TIP3    H234496   2.875   1.807  14.926  1.8860  2.3274 -0.2328
 4361TIP3   OH234497   2.245   2.879  15.141 -0.5526 -0.0123 -0.2208
 4361TIP3    H134498   2.310   2.808  15.144 -0.2125  0.2890 -0.3865
 4361TIP3    H234499   2.254   2.916  15.053  0.6541  1.4992  0.4856
 4362TIP3   OH234500   4.208   2.557   0.088 -0.2532 -0.5768  0.0188
 4362TIP3    H134501   4.176   2.602   0.167  0.2361 -2.9417  1.6847
 4362TIP3    H234502   4.135   2.561   0.027  0.3461  3.9912 -0.7839
 4363TIP3   OH234503   0.309   6.115  13.206  0.0834  0.0619  0.1319
 4363TIP3    H134504   0.368   6.183  13.173  1.0925 -0.4964  0.7251
 4363TIP3    H234505   0.303   6.052  13.135 -0.5365  0.5694 -0.2715
 4364TIP3   OH234506   4.707   4.960   0.202  0.5006 -0.2164  0.2122
 4364TIP3    H134507   4.644   4.994   0.266  1.9229  1.0860  0.9762
 4364TIP3    H234508   4.723   4.870   0.229 -1.7780 -0.9507 -0.6221
 4365TIP3   OH234509   5.008   2.563   1.630  0.5112 -0.0586  0.2119
 4365TIP3    H134510   5.040   2.494   1.688  0.0048 -0.6266 -0.1801
 4365TIP3    H234511   4.954   2.518   1.565 -0.4850  0.7917  0.4141
 4366TIP3   OH234512   1.999   2.714   6.460  0.1565  0.2116  0.1791
 4366TIP3    H134513   2.026   2.755   6.377  0.8275 -2.0055 -0.7828
 4366TIP3    H234514   2.065   2.743   6.523  0.7790  0.3792 -0.5242
 4367TIP3   OH234515   4.668   3.226   4.989  0.8067 -0.8198  0.5328
 4367TIP3    H134516   4.616   3.169   4.933  0.3827  0.7041 -0.6663
 4367TIP3    H234517   4.756   3.222   4.953  0.2871  1.1312 -1.1016
 4368TIP3   OH234518   5.563   0.387   4.318  0.3640  0.7013  0.0090
 4368TIP3    H134519   5.587   0.480   4.323  3.0719  0.0693  3.2124
 4368TIP3    H234520   5.646   0.342   4.303 -0.5414 -1.2669  0.5363
 4369TIP3   OH234521   0.545   2.538  12.089 -0.0363 -0.3271 -0.1183
 4369TIP3    H134522   0.612   2.597  12.053 -0.6564  0.6282  0.2556
 4369TIP3    H234523   0.499   2.505  12.012  1.5549 -1.8832 -0.4668
 4370TIP3   OH234524   5.253   6.040   5.799 -0.3067 -0.2082  1.3505
 4370TIP3    H134525   5.305   6.035   5.880  1.9959 -0.9363 -0.0860
 4370TIP3    H234526   5.211   6.126   5.804  0.6445  0.2237  2.8207
 4371TIP3   OH234527   0.086   6.548  11.737 -0.1140  0.9675  0.0587
 4371TIP3    H134528   0.065   6.640  11.720 -2.6961  0.6062  0.8712
 4371TIP3    H234529   0.094   6.543  11.833 -0.8175  0.2033  0.0870
 4372TIP3   OH234530   2.994   0.939   0.458  0.0481  0.3473 -0.0426
 4372TIP3    H134531   3.003   0.894   0.373  1.5295 -2.2999  1.3868
 4372TIP3    H234532   2.904   0.971   0.458 -0.9195 -2.0642 -1.5489
 4373TIP3   OH234533   0.918   5.588   2.362 -0.3258  0.2221  0.0330
 4373TIP3    H134534   0.934   5.675   2.399  2.4130 -0.4911  0.7683
 4373TIP3    H234535   1.004   5.559   2.333 -0.8513 -2.8556  1.1925
 4374TIP3   OH234536   6.211   0.163   0.979  0.3989  0.1208 -0.0297
 4374TIP3    H134537   6.167   0.085   0.945  0.3619  1.1219 -2.4892
 4374TIP3    H234538   6.148   0.202   1.039 -0.3990 -0.6223 -0.3693
 4375TIP3   OH234539   1.269   2.786   1.999 -0.1417 -0.2651 -0.4412
 4375TIP3    H134540   1.283   2.859   2.059 -1.5211 -1.0532  0.9108
 4375TIP3    H234541   1.197   2.815   1.943 -1.7125 -1.1035  1.0724
 4376TIP3   OH234542   2.133   5.157  10.654 -0.0140  0.1751 -0.4693
 4376TIP3    H134543   2.108   5.248  10.665 -3.3119 -0.6471 -0.2221
 4376TIP3    H234544   2.161   5.129  10.742 -0.0407  0.6647 -0.3036
 4377TIP3   OH234545   5.558   3.788  11.673 -0.5629  0.2970  0.3259
 4377TIP3    H134546   5.468   3.755  11.666 -0.5286  0.4140 -0.8236
 4377TIP3    H234547   5.550   3.882  11.657 -0.4578  0.6502  2.0846
 4378TIP3   OH234548   4.287   5.708  16.546  0.1704  0.0767  0.0485
 4378TIP3    H134549   4.266   5.770  16.617 -0.3469 -0.5848  0.4815
 4378TIP3    H234550   4.352   5.755  16.493 -1.1322  1.5065 -0.3533
 4379TIP3   OH234551   1.419   3.740  13.416 -0.0454 -0.4210 -0.3048
 4379TIP3    H134552   1.329   3.751  13.447 -0.0201  2.4972 -0.9891
 4379TIP3    H234553   1.463   3.693  13.488 -1.8427 -1.0009  0.4801
 4380TIP3   OH234554   2.801   5.231  15.344 -0.4462  0.1828 -0.1262
 4380TIP3    H134555   2.755   5.315  15.344 -0.8091  0.0340  1.7791
 4380TIP3    H234556   2.761   5.182  15.416  0.5699 -1.1814 -0.4432
 4381TIP3   OH234557   2.909   2.029  12.262  0.4748 -0.5990  0.5739
 4381TIP3    H134558   2.890   1.955  12.204  0.4308 -0.6024  0.5924
 4381TIP3    H234559   2.967   1.993  12.329 -1.2170 -1.1482  1.7985
 4382TIP3   OH234560   2.235   5.785   5.498  0.1109  0.5782  0.3498
 4382TIP3    H134561   2.302   5.719   5.513  0.5683  0.9902  0.1138
 4382TIP3    H234562   2.283   5.867   5.489 -0.4491  0.9372  0.5753
 4383TIP3   OH234563   5.672   5.828   5.253  0.0594 -0.5601  0.1610
 4383TIP3    H134564   5.578   5.841   5.255  0.1457  0.2274  3.1514
 4383TIP3    H234565   5.685   5.736   5.275 -0.0097 -0.4379  0.7328
 4384TIP3   OH234566   6.067   3.234   4.607  0.0406 -0.3868  0.3853
 4384TIP3    H134567   6.147   3.276   4.576  0.7087 -1.4868  0.5342
 4384TIP3    H234568   6.041   3.176   4.536 -0.7105  0.0662  0.2854
 4385TIP3   OH234569   4.370   5.216   2.941 -0.1149 -0.1113  0.4477
 4385TIP3    H134570   4.437   5.273   2.979 -2.4552  2.5865  0.9324
 4385TIP3    H234571   4.381   5.227   2.846  0.2855  0.0764  0.5113
 4386TIP3   OH234572   1.941   1.567   6.218  0.0501 -0.1962 -0.4889
 4386TIP3    H134573   1.939   1.477   6.185 -0.6943 -0.0327 -0.9046
 4386TIP3    H234574   2.024   1.573   6.267  0.1994 -1.0409 -0.6288
 4387TIP3   OH234575   4.333   1.191  10.312  0.5826  0.5415  0.4130
 4387TIP3    H134576   4.320   1.241  10.231  1.0018 -0.0594 -0.0343
 4387TIP3    H234577   4.266   1.224  10.372  0.3970  1.1355 -0.1103
 4388TIP3   OH234578   1.145   0.591   3.760 -0.2180  0.4135  0.4921
 4388TIP3    H134579   1.142   0.617   3.668 -0.3707 -1.1859  0.0232
 4388TIP3    H234580   1.057   0.558   3.778 -0.5955  1.9076  1.6103
 4389TIP3   OH234581   5.479   1.909  12.456 -0.1659  0.7479 -0.0140
 4389TIP3    H134582   5.451   1.859  12.380 -0.3911  1.8673 -0.6901
 4389TIP3    H234583   5.447   1.998  12.440  1.2051  1.3915  0.6083
 4390TIP3   OH234584   0.485   5.384   2.733 -0.0828 -0.1531 -0.5312
 4390TIP3    H134585   0.503   5.295   2.703 -0.5342 -0.4292  0.0071
 4390TIP3    H234586   0.392   5.397   2.716  0.2697  0.7440 -1.9463
 4391TIP3   OH234587   4.129   3.842  13.814 -0.6116 -0.1428 -0.1100
 4391TIP3    H134588   4.129   3.822  13.720  1.6998 -0.5767 -0.0751
 4391TIP3    H234589   4.060   3.908  13.824  0.1854  1.1924 -2.4452
 4392TIP3   OH234590   1.990   3.608   0.711 -0.1917  0.3043 -0.2245
 4392TIP3    H134591   2.034   3.577   0.632 -0.5428  1.0376 -0.7203
 4392TIP3    H234592   1.899   3.582   0.700 -0.5557  1.6922 -0.7799
 4393TIP3   OH234593   1.810   6.105   4.639  0.2951 -0.1068 -0.0775
 4393TIP3    H134594   1.799   6.156   4.719 -0.0921  1.9149 -1.3603
 4393TIP3    H234595   1.903   6.083   4.637  0.3411 -0.0365  0.8304
 4394TIP3   OH234596   6.250   6.272   0.497  0.2267  0.1955  0.0130
 4394TIP3    H134597   6.257   6.267   0.402  1.4278 -1.1198  0.1491
 4394TIP3    H234598   6.282   6.360   0.518 -1.7549  1.1985 -0.8952
 4395TIP3   OH234599   1.110   0.450   5.663 -0.4623  0.0481 -0.3106
 4395TIP3    H134600   1.152   0.428   5.581 -0.1671 -1.3885  0.2004
 4395TIP3    H234601   1.068   0.369   5.692 -2.9227  1.1876 -0.3870
 4396TIP3   OH234602   1.654   2.530   2.067 -0.1498 -0.0572  0.3666
 4396TIP3    H134603   1.687   2.465   2.128 -0.3529  0.6770  1.2903
 4396TIP3    H234604   1.593   2.482   2.011  2.5540 -1.5061 -1.5556
 4397TIP3   OH234605   0.720   5.814   3.891  0.4478  0.5896  0.7194
 4397TIP3    H134606   0.691   5.901   3.867 -0.9554  0.0097  0.2124
 4397TIP3    H234607   0.776   5.786   3.819  0.0708  0.6797  0.3882
 4398TIP3   OH234608   1.066   2.832   0.585  0.4581  0.3444  0.0341
 4398TIP3    H134609   0.988   2.866   0.542  1.1991  0.4754 -1.2693
 4398TIP3    H234610   1.126   2.907   0.587  1.4588 -0.3752 -1.2645
 4399TIP3   OH234611   0.830   5.174  13.894  0.6360  0.0181 -0.2840
 4399TIP3    H134612   0.820   5.201  13.985 -2.0615 -1.0947 -0.1580
 4399TIP3    H234613   0.920   5.143  13.888  0.7619 -0.2730  2.1423
 4400TIP3   OH234614   2.222   6.468  13.899  0.6779 -0.0626  0.1244
 4400TIP3    H134615   2.150   6.409  13.879  0.4262  0.6602 -1.1895
 4400TIP3    H234616   2.222   6.474  13.995 -0.5089 -0.6769  0.1810
 4401TIP3   OH234617   4.038   4.774   4.124  0.1293  0.3834  0.3782
 4401TIP3    H134618   4.074   4.851   4.082 -0.7589  0.2835 -0.6022
 4401TIP3    H234619   4.072   4.700   4.073 -1.8018  0.3089 -0.9075
 4402TIP3   OH234620   3.565   2.551   5.187 -0.1780  0.2816  0.5812
 4402TIP3    H134621   3.656   2.554   5.158 -0.2798 -0.9734  0.0689
 4402TIP3    H234622   3.549   2.636   5.227  1.3226  0.3830  0.9905
 4403TIP3   OH234623   0.443   4.548  10.883 -0.2903 -0.1599  0.0598
 4403TIP3    H134624   0.374   4.598  10.841 -1.4163 -0.2671  1.7037
 4403TIP3    H234625   0.500   4.521  10.811 -1.6472  0.3878 -1.2717
 4404TIP3   OH234626   2.519   0.394   5.491  0.0791  0.0871 -0.5148
 4404TIP3    H134627   2.433   0.355   5.479  0.3035 -1.1852  1.5105
 4404TIP3    H234628   2.502   0.489   5.492 -1.7374 -0.1480  2.1064
 4405TIP3   OH234629   6.055   3.760   1.188 -0.3181 -0.0365 -0.2913
 4405TIP3    H134630   6.092   3.679   1.152  0.6552  0.8034 -1.2573
 4405TIP3    H234631   6.029   3.811   1.112  2.8170  2.2824 -0.0637
 4406TIP3   OH234632   2.078   4.327  15.712 -0.3015  0.3577  0.2659
 4406TIP3    H134633   2.008   4.263  15.723  1.9479 -2.1053  1.1687
 4406TIP3    H234634   2.109   4.316  15.623  0.5236 -0.3387  0.6228
 4407TIP3   OH234635   4.722   6.278  17.106  0.1844  0.6657 -0.6580
 4407TIP3    H134636   4.765   6.356  17.142 -2.0929  2.3238 -1.2639
 4407TIP3    H234637   4.697   6.304  17.017  0.1946 -1.1032 -1.2019
 4408TIP3   OH234638   5.019   3.876  16.606 -0.3945 -0.9458 -0.5027
 4408TIP3    H134639   5.098   3.911  16.646  0.0692  0.1561 -2.2842
 4408TIP3    H234640   4.968   3.843  16.680 -0.0920  1.9566  1.1849
 4409TIP3   OH234641   0.477   6.368  16.942  0.2401 -0.0434  0.3735
 4409TIP3    H134642   0.415   6.396  16.875 -0.2686  0.8259  1.1834
 4409TIP3    H234643   0.460   6.426  17.016  0.1221 -1.5878  1.6081
 4410TIP3   OH234644   5.920   4.060   5.212  0.0090 -0.1701 -0.2342
 4410TIP3    H134645   5.850   3.995   5.221  1.0097 -1.1408  0.7102
 4410TIP3    H234646   5.875   4.145   5.220 -1.1453 -0.7574 -0.3065
 4411TIP3   OH234647   6.629   4.538  11.033  0.6121  0.1202  0.2145
 4411TIP3    H134648   6.563   4.471  11.052 -0.5038  0.6310 -1.6685
 4411TIP3    H234649   6.587   4.620  11.058  1.3348  0.2890  0.9181
 4412TIP3   OH234650   5.424   3.934  16.198  0.1089 -0.1195 -0.0254
 4412TIP3    H134651   5.424   3.840  16.219  2.6527 -0.0184  0.7912
 4412TIP3    H234652   5.395   3.976  16.279  0.4605 -0.1606  0.1271
 4413TIP3   OH234653   6.322   3.691   0.437  0.1615 -1.1945  0.1671
 4413TIP3    H134654   6.321   3.601   0.405 -1.4756 -1.5166  1.0154
 4413TIP3    H234655   6.245   3.731   0.397  0.0436 -0.6084  0.9638
 4414TIP3   OH234656   5.688   2.353   4.340  0.2993  0.4576  0.0092
 4414TIP3    H134657   5.696   2.389   4.252 -0.1033  0.5508  0.0104
 4414TIP3    H234658   5.596   2.364   4.363 -0.2518 -2.1010 -0.6540
 4415TIP3   OH234659   1.996   5.504  16.850 -0.5406 -0.1850 -0.3366
 4415TIP3    H134660   2.058   5.450  16.900  1.8520  3.4079  0.9971
 4415TIP3    H234661   2.050   5.549  16.786 -1.5756  3.2146  0.9641
 4416TIP3   OH234662   0.458   0.655   0.517 -0.0967 -0.0718  0.3094
 4416TIP3    H134663   0.399   0.585   0.543 -0.2841 -0.3088 -0.6904
 4416TIP3    H234664   0.415   0.696   0.442  1.6566 -1.2521 -1.4817
 4417TIP3   OH234665   0.892   5.838  14.545  0.1346  0.0148  0.0984
 4417TIP3    H134666   0.883   5.800  14.633 -2.5940 -2.5598 -1.1155
 4417TIP3    H234667   0.802   5.846  14.513  0.9410  2.4991 -1.8933
 4418TIP3   OH234668   6.123   0.412  13.691  0.6094  0.0955  0.0775
 4418TIP3    H134669   6.071   0.352  13.638 -0.9658  2.3935 -1.1587
 4418TIP3    H234670   6.195   0.359  13.725 -0.9320 -2.5431 -0.5379
 4419TIP3   OH234671   5.893   0.002   1.977  0.2478 -0.0286 -0.1935
 4419TIP3    H134672   5.949  -0.017   2.052 -0.8084  0.9351  0.8908
 4419TIP3    H234673   5.873   0.096   1.986 -1.1497 -0.2494 -0.7825
 4420TIP3   OH234674   2.737   0.786  13.454  0.3139 -0.1624 -0.3442
 4420TIP3    H134675   2.692   0.774  13.537 -1.3507 -0.7802 -1.3027
 4420TIP3    H234676   2.706   0.715  13.398  0.7941  0.6777 -1.7454
 4421TIP3   OH234677   0.214   4.945   4.275 -0.1626  0.0734 -0.2914
 4421TIP3    H134678   0.246   4.863   4.310 -1.9227 -0.5365  0.0200
 4421TIP3    H234679   0.289   4.985   4.231  1.0471 -1.0597  0.7007
 4422TIP3   OH234680   4.306   3.588   4.408 -0.3276 -0.4102  0.2323
 4422TIP3    H134681   4.285   3.567   4.499  0.7068 -1.1323  0.3270
 4422TIP3    H234682   4.398   3.614   4.410 -0.7496  1.2048 -0.3711
 4423TIP3   OH234683   2.894   6.367  12.885 -0.4715  0.2678  0.0189
 4423TIP3    H134684   2.942   6.393  12.807  1.1352 -2.7351 -0.1538
 4423TIP3    H234685   2.962   6.346  12.949 -1.5910 -1.2220  0.8071
 4424TIP3   OH234686   5.231   0.779   5.070  0.1487  0.1402  0.3666
 4424TIP3    H134687   5.293   0.737   5.129 -0.9410 -0.9124  0.8073
 4424TIP3    H234688   5.145   0.745   5.097 -0.4634  0.3060 -1.2508
 4425TIP3   OH234689   0.359   2.549   0.761 -0.2165 -0.4313 -0.1019
 4425TIP3    H134690   0.432   2.606   0.739  0.5870 -1.8097 -1.1116
 4425TIP3    H234691   0.293   2.608   0.798  1.0717  0.9466  0.0804
 4426TIP3   OH234692   6.454   1.543   4.980 -0.0972  0.3662 -0.4239
 4426TIP3    H134693   6.473   1.636   4.994 -0.4338  0.0355  3.5518
 4426TIP3    H234694   6.381   1.525   5.039 -0.2274 -2.3988 -1.2859
 4427TIP3   OH234695   0.934   4.521  15.621  0.6535 -0.1049 -0.0056
 4427TIP3    H134696   1.012   4.549  15.572  0.1892  1.0288 -0.1184
 4427TIP3    H234697   0.969   4.475  15.697  1.4109 -0.6919 -0.6901
 4428TIP3   OH234698   3.954   1.454  12.278 -0.0012  0.8635  0.7622
 4428TIP3    H134699   3.997   1.382  12.232  0.3188  0.9594  0.9086
 4428TIP3    H234700   3.900   1.496  12.211 -0.5169  0.2361  0.7705
 4429TIP3   OH234701   1.399   1.653   2.732 -0.0699 -0.0502  0.3247
 4429TIP3    H134702   1.351   1.570   2.728 -0.6507  0.3168 -2.3143
 4429TIP3    H234703   1.476   1.639   2.677  0.8550  0.5984  1.4095
 4430TIP3   OH234704   3.336   5.308  14.474  0.5011  0.1942 -0.7543
 4430TIP3    H134705   3.282   5.270  14.404 -1.2906 -1.6939  1.4736
 4430TIP3    H234706   3.398   5.238  14.497 -0.9314 -0.4265  1.4925
 4431TIP3   OH234707   1.217   4.655   5.184 -0.0011  0.3992 -0.0984
 4431TIP3    H134708   1.214   4.666   5.279  0.0622  1.1295 -0.1827
 4431TIP3    H234709   1.126   4.635   5.160 -0.1561  0.9486  0.0242
 4432TIP3   OH234710   3.790   5.525   2.412  0.4346  0.8611 -0.3888
 4432TIP3    H134711   3.775   5.606   2.362  1.3969  0.4549 -1.3577
 4432TIP3    H234712   3.799   5.555   2.503 -3.8396  1.3963  0.0689
 4433TIP3   OH234713   1.501   4.000   1.114 -0.1406  0.0926  0.3368
 4433TIP3    H134714   1.597   4.007   1.114 -0.1621  0.5780 -1.2971
 4433TIP3    H234715   1.470   4.088   1.132 -0.3034 -0.1321  1.2270
 4434TIP3   OH234716   2.079   0.993   3.738  0.4778 -0.1733 -0.3184
 4434TIP3    H134717   2.041   0.984   3.825  0.7207  2.1322  0.0790
 4434TIP3    H234718   2.060   0.909   3.695 -1.6398 -0.5174  1.1499
 4435TIP3   OH234719   1.069   5.558  11.283  0.4005  0.0118 -0.2611
 4435TIP3    H134720   1.060   5.463  11.283 -0.9631  0.1159  0.0040
 4435TIP3    H234721   1.011   5.588  11.213  0.9192  0.6443 -0.4303
 4436TIP3   OH234722   5.599   5.143   0.359  0.3345 -0.2490  0.4154
 4436TIP3    H134723   5.615   5.208   0.291  1.0647 -1.5815 -0.7150
 4436TIP3    H234724   5.509   5.162   0.389  0.0215  0.3909 -0.8600
 4437TIP3   OH234725   4.188   2.649  10.287 -0.1674 -0.2550 -0.2478
 4437TIP3    H134726   4.162   2.700  10.211 -3.0163 -0.6920  0.3037
 4437TIP3    H234727   4.263   2.598  10.258  1.8670  2.9876 -1.2697
 4438TIP3   OH234728   5.332   3.155  10.866  0.0048 -0.4392  0.0482
 4438TIP3    H134729   5.247   3.194  10.847 -0.7028 -0.6081  2.5328
 4438TIP3    H234730   5.338   3.080  10.807 -2.2554 -1.3016  0.8146
 4439TIP3   OH234731   2.884   3.436  11.232 -0.4322 -0.4068  0.1252
 4439TIP3    H134732   2.917   3.352  11.202 -0.7685 -1.6966  2.9722
 4439TIP3    H234733   2.788   3.426  11.232 -0.6954  1.1898 -2.4789
 4440TIP3   OH234734   6.361   6.041   6.474  0.0181 -0.1308 -0.0114
 4440TIP3    H134735   6.349   6.123   6.427  1.1959  1.0774  1.6424
 4440TIP3    H234736   6.289   6.038   6.538 -1.9673 -2.0848 -2.1604
 4441TIP3   OH234737   5.704   6.766  16.224 -0.3264 -0.3261  1.4723
 4441TIP3    H134738   5.690   6.725  16.309 -0.5342  1.0408  2.1229
 4441TIP3    H234739   5.700   6.860  16.241 -1.9160 -0.0117 -0.3035
 4442TIP3   OH234740   2.448   2.903   1.600  0.1363 -0.4890 -0.0486
 4442TIP3    H134741   2.411   2.958   1.531  0.4632 -1.0389 -0.6727
 4442TIP3    H234742   2.383   2.833   1.612 -0.2729  0.0150  0.7324
 4443TIP3   OH234743   4.440   3.204  16.036  0.4167  0.7556  0.2335
 4443TIP3    H134744   4.344   3.204  16.041  0.4005  0.2287 -0.0276
 4443TIP3    H234745   4.465   3.112  16.050  0.8630  0.8199 -0.1125
 4444TIP3   OH234746   0.764   1.952  13.237 -0.7770 -0.2573 -0.1941
 4444TIP3    H134747   0.778   1.859  13.254 -1.3502 -0.3187 -0.0225
 4444TIP3    H234748   0.850   1.992  13.248 -0.5558 -0.7467 -0.1285
 4445TIP3   OH234749   3.561   1.878  16.171 -0.3566 -0.0314 -0.0559
 4445TIP3    H134750   3.631   1.875  16.106  0.7377 -0.7886  1.1090
 4445TIP3    H234751   3.601   1.845  16.252 -0.8237  3.4720  1.8006
 4446TIP3   OH234752   1.014   2.518   5.272  0.6804  0.9536  0.3131
 4446TIP3    H134753   1.102   2.507   5.235  0.6499 -2.0547  0.9044
 4446TIP3    H234754   1.017   2.472   5.356 -1.2548  1.5187  0.7486
 4447TIP3   OH234755   0.948   1.961   0.287  0.2943  0.2807  0.4127
 4447TIP3    H134756   0.994   1.883   0.316  0.4373 -0.1128 -0.8290
 4447TIP3    H234757   0.987   1.982   0.202 -0.9994  0.6235 -0.1184
 4448TIP3   OH234758   1.348   4.381  13.156 -0.2561 -0.3493  0.1192
 4448TIP3    H134759   1.367   4.470  13.126  0.2576 -1.0963 -1.9585
 4448TIP3    H234760   1.431   4.334  13.145 -0.9385 -1.4718 -0.3574
 4449TIP3   OH234761   0.616   6.496  16.426  0.6526 -0.8646  0.4673
 4449TIP3    H134762   0.548   6.563  16.416  1.2206 -0.3195  0.1143
 4449TIP3    H234763   0.698   6.544  16.414  1.1006 -1.5048  0.9113
 4450TIP3   OH234764   5.015   4.495   0.266  0.0854  0.4633 -0.6108
 4450TIP3    H134765   5.064   4.486   0.348 -0.7003  0.6007 -0.1057
 4450TIP3    H234766   5.078   4.529   0.203  1.0047 -0.7593 -0.3796
 4451TIP3   OH234767   5.145   0.600  15.859  0.0557 -0.1610 -0.2331
 4451TIP3    H134768   5.163   0.623  15.768 -0.6754 -0.7682 -0.5439
 4451TIP3    H234769   5.204   0.528  15.879 -0.3052 -0.5310 -0.4768
 4452TIP3   OH234770   1.017   0.793   3.093  0.1768 -0.4012 -0.4233
 4452TIP3    H134771   1.068   0.869   3.122  2.5113 -1.2834 -1.9280
 4452TIP3    H234772   1.010   0.804   2.999  0.9335 -2.2217 -0.7342
 4453TIP3   OH234773   3.977   6.776  16.046  0.0411  0.5061 -0.3036
 4453TIP3    H134774   4.072   6.788  16.033  0.2146  2.1776  2.0137
 4453TIP3    H234775   3.948   6.735  15.965  2.3140  2.3400 -2.2106
 4454TIP3   OH234776   3.578   5.852   5.638  0.1820 -0.2491 -0.3293
 4454TIP3    H134777   3.578   5.757   5.644  2.1636 -0.2159  0.9452
 4454TIP3    H234778   3.659   5.874   5.593 -1.3336  0.8178 -2.7444
 4455TIP3   OH234779   3.495   0.568  15.575 -0.3031  0.1881  0.1450
 4455TIP3    H134780   3.529   0.528  15.494  0.6050 -0.2915  0.7492
 4455TIP3    H234781   3.480   0.660  15.551  0.1523  0.1020 -0.5084
 4456TIP3   OH234782   5.097   4.074   2.599 -0.0140 -0.5703  0.9948
 4456TIP3    H134783   5.178   4.085   2.549 -0.2772 -1.6301  0.3158
 4456TIP3    H234784   5.127   4.053   2.688  0.4727 -0.9633  0.7459
 4457TIP3   OH234785   4.892   5.948   5.979  0.4629  0.3173  0.1754
 4457TIP3    H134786   4.872   5.917   5.891 -1.0509  0.7625  0.3323
 4457TIP3    H234787   4.986   5.930   5.991  0.4671 -0.6320 -1.1461
 4458TIP3   OH234788   1.604   1.466   2.803 -0.4822  0.3560 -0.2561
 4458TIP3    H134789   1.519   1.483   2.845 -0.2277  0.9359  0.0330
 4458TIP3    H234790   1.595   1.378   2.766 -1.9905  1.2472 -2.1574
 4459TIP3   OH234791   6.099   0.483  12.295 -0.2823  0.2479  0.1947
 4459TIP3    H134792   6.140   0.398  12.288  0.7955  0.8841 -3.0659
 4459TIP3    H234793   6.145   0.527  12.366  0.0411 -1.3950  1.0361
 4460TIP3   OH234794   3.834   1.457  13.590 -0.1209 -0.2144  0.1243
 4460TIP3    H134795   3.834   1.447  13.685 -1.6368 -0.0711  0.1630
 4460TIP3    H234796   3.772   1.391  13.558  0.3833 -0.2761 -0.7727
 4461TIP3   OH234797   0.231   2.829   4.091 -0.3768  0.0693 -0.4594
 4461TIP3    H134798   0.217   2.924   4.089  0.9883  0.4635  2.8751
 4461TIP3    H234799   0.162   2.797   4.149  1.0184 -0.4749  0.9705
 4462TIP3   OH234800   0.578   4.867  13.799 -0.5591  0.1548 -0.4857
 4462TIP3    H134801   0.549   4.956  13.821  0.7579  0.5824 -0.3873
 4462TIP3    H234802   0.593   4.825  13.883 -1.9190 -0.4534 -0.5095
 4463TIP3   OH234803   4.934   5.999  13.824 -0.0147  0.9279  0.1619
 4463TIP3    H134804   4.880   5.927  13.793 -0.6976  0.6025  1.9709
 4463TIP3    H234805   5.017   5.959  13.848  0.5588  1.1992 -1.2896
 4464TIP3   OH234806   4.838   1.339  14.883 -0.0908  0.7142  0.1399
 4464TIP3    H134807   4.869   1.407  14.823  0.8504  1.1121  1.0657
 4464TIP3    H234808   4.917   1.302  14.921 -0.6144 -0.6575 -0.0664
 4465TIP3   OH234809   1.105   4.860   0.223  0.6959 -0.1790 -0.0432
 4465TIP3    H134810   1.143   4.793   0.167  0.1622 -0.5294  0.0077
 4465TIP3    H234811   1.050   4.812   0.285  1.0768  0.2229  0.6175
 4466TIP3   OH234812   0.084   1.679   0.375 -0.0285  0.0942 -0.3266
 4466TIP3    H134813   0.125   1.728   0.304 -0.5305  0.0220 -0.6764
 4466TIP3    H234814   0.112   1.588   0.360  0.3105  0.1618 -0.1075
 4467TIP3   OH234815   0.342   1.022   1.247  0.0879 -0.2363  0.1559
 4467TIP3    H134816   0.414   1.082   1.230  1.6364 -1.4466  2.1142
 4467TIP3    H234817   0.301   1.055   1.327 -2.0023  0.7695 -1.2191
 4468TIP3   OH234818   0.453   2.846  12.036 -0.0413 -0.2269 -0.1477
 4468TIP3    H134819   0.408   2.891  11.965  1.5003  0.6948 -0.5789
 4468TIP3    H234820   0.536   2.817  11.998  1.8995  2.3340  1.7834
 4469TIP3   OH234821   6.181   1.209  15.507  0.1852  0.1991  0.2907
 4469TIP3    H134822   6.176   1.114  15.519  1.2678 -0.0232 -0.7562
 4469TIP3    H234823   6.150   1.245  15.590 -2.6314 -1.0043 -0.1403
 4470TIP3   OH234824   5.762   4.922  14.077  0.2347 -0.7415  0.3091
 4470TIP3    H134825   5.838   4.977  14.095  1.1134 -2.2768  1.5351
 4470TIP3    H234826   5.721   4.909  14.162  0.3476 -2.3805  0.1418
 4471TIP3   OH234827   5.662   2.285   5.583 -0.0299  0.1159 -0.5068
 4471TIP3    H134828   5.672   2.264   5.676 -0.7210 -3.5575 -1.1061
 4471TIP3    H234829   5.570   2.269   5.565  0.4488 -0.9682 -2.1475
 4472TIP3   OH234830   4.671   0.153  15.780 -0.2915 -0.0895 -0.2731
 4472TIP3    H134831   4.684   0.218  15.849  0.6741 -0.7341  0.1794
 4472TIP3    H234832   4.706   0.072  15.817 -2.3426 -1.1028 -0.4710
 4473TIP3   OH234833   5.004   3.510  13.396 -0.2201 -0.0948 -0.6637
 4473TIP3    H134834   5.059   3.450  13.346  0.8887 -1.0911  1.5947
 4473TIP3    H234835   5.041   3.597  13.379  0.8357 -0.5343 -0.7152
 4474TIP3   OH234836   6.261   5.245   1.685  0.3650  0.1733  0.7099
 4474TIP3    H134837   6.187   5.193   1.657  1.2507 -0.2870 -0.9059
 4474TIP3    H234838   6.237   5.277   1.772 -0.2391 -2.8494  1.7754
 4475TIP3   OH234839   2.302   5.303  12.232 -0.0817 -0.2319 -0.0574
 4475TIP3    H134840   2.370   5.240  12.209  0.9093  1.7790 -3.3315
 4475TIP3    H234841   2.349   5.375  12.275 -0.4450  0.3011 -0.5407
 4476TIP3   OH234842   4.283   6.627   2.965  0.0607 -0.1668  0.2107
 4476TIP3    H134843   4.221   6.636   3.038 -2.8333  1.8220 -2.2445
 4476TIP3    H234844   4.356   6.684   2.989 -0.3647 -0.2839  1.9552
 4477TIP3   OH234845   5.289   1.644   0.148  1.0988 -0.4157 -0.3011
 4477TIP3    H134846   5.290   1.570   0.088  1.3363 -1.0588  0.4914
 4477TIP3    H234847   5.196   1.664   0.160  0.9484 -1.6344  0.7476
 4478TIP3   OH234848   0.924   0.155   4.606  0.3639  0.0186  0.1036
 4478TIP3    H134849   0.914   0.132   4.513  1.9631  0.9039 -0.3226
 4478TIP3    H234850   0.847   0.117   4.648 -0.0661 -0.9818 -1.4769
 4479TIP3   OH234851   4.332   3.824  14.732  0.3657 -0.0927  0.2732
 4479TIP3    H134852   4.424   3.798  14.738  0.5844  0.4980 -0.4727
 4479TIP3    H234853   4.289   3.770  14.799  1.1981 -0.5813  0.4433
 4480TIP3   OH234854   6.163   5.858  14.538  0.0807  0.2388 -0.3574
 4480TIP3    H134855   6.242   5.912  14.530 -0.7941  1.7091  0.4269
 4480TIP3    H234856   6.179   5.783  14.482  0.9289  1.8635 -2.4401
 4481TIP3   OH234857   0.001   3.764  11.715 -0.0795 -0.0132  0.4537
 4481TIP3    H134858  -0.086   3.790  11.683  1.3750  2.5603 -1.7858
 4481TIP3    H234859   0.059   3.774  11.639  2.9355  2.5560  2.8159
 4482TIP3   OH234860   3.760   0.567  15.844  0.3025 -0.0554  0.4083
 4482TIP3    H134861   3.727   0.645  15.800 -0.6880  0.3364  1.7780
 4482TIP3    H234862   3.828   0.600  15.903  2.1373 -0.6643 -1.2622
 4483TIP3   OH234863   2.613   2.665  16.586 -0.0185 -0.0229  0.4076
 4483TIP3    H134864   2.675   2.738  16.592 -0.4162  0.3425  0.0455
 4483TIP3    H234865   2.668   2.587  16.600  0.9532  0.1176 -2.0121
 4484TIP3   OH234866   2.710   4.897   1.069 -0.5136 -0.4190 -0.0773
 4484TIP3    H134867   2.670   4.979   1.041 -2.6386 -0.9657  1.1769
 4484TIP3    H234868   2.759   4.921   1.148 -1.4795 -0.4082  0.5327
 4485TIP3   OH234869   4.011   0.786   4.226 -0.6544  0.1587 -0.4490
 4485TIP3    H134870   3.919   0.782   4.250 -0.6291 -1.1148 -0.4844
 4485TIP3    H234871   4.017   0.735   4.145 -0.0676  1.0119 -0.9575
 4486TIP3   OH234872   4.405   2.180   0.126  0.7512  0.1630  0.5113
 4486TIP3    H134873   4.352   2.110   0.165  1.4782  0.6831  2.5615
 4486TIP3    H234874   4.495   2.148   0.132  0.8420 -0.2857 -2.0384
 4487TIP3   OH234875   0.184   3.940   1.850 -0.2637  0.3848  0.1308
 4487TIP3    H134876   0.258   3.937   1.790 -0.3250  2.1210 -0.0541
 4487TIP3    H234877   0.130   3.865   1.825  1.1058 -0.5699 -0.1067
 4488TIP3   OH234878   4.099   2.265  10.616  0.1266 -0.1008  0.3999
 4488TIP3    H134879   4.139   2.259  10.703  4.2240 -0.8668 -1.3008
 4488TIP3    H234880   4.072   2.175  10.596 -1.2341  0.1555  0.9838
 4489TIP3   OH234881   1.757   0.319   0.569  0.2952 -0.4414 -0.5705
 4489TIP3    H134882   1.800   0.404   0.558 -2.0950  0.6784 -2.3577
 4489TIP3    H234883   1.764   0.278   0.482  1.4657 -2.1767  0.2820
 4490TIP3   OH234884   6.316   0.896   2.081  0.0059  0.4311  0.1967
 4490TIP3    H134885   6.399   0.909   2.035  0.0145 -0.6317 -0.1049
 4490TIP3    H234886   6.275   0.821   2.037 -1.2932  1.1725  0.0994
 4491TIP3   OH234887   0.506   4.799   0.374  0.0193  0.2173  0.6055
 4491TIP3    H134888   0.558   4.735   0.325 -2.7557 -0.7238 -1.3946
 4491TIP3    H234889   0.471   4.858   0.307 -1.9377  0.4155  1.7109
 4492TIP3   OH234890   4.285   3.876   3.004 -0.5121  0.2277 -0.3382
 4492TIP3    H134891   4.360   3.894   3.061  0.3750 -3.1421 -0.2122
 4492TIP3    H234892   4.211   3.866   3.064  0.0320 -1.3621  0.1481
 4493TIP3   OH234893   5.747   0.886  12.883 -0.1014  0.1542 -0.4472
 4493TIP3    H134894   5.699   0.965  12.905 -0.6900  0.2428 -1.9535
 4493TIP3    H234895   5.812   0.914  12.819  1.2153 -0.1817  0.7010
 4494TIP3   OH234896   2.783   0.616  17.050  0.1576  0.0046  0.2213
 4494TIP3    H134897   2.731   0.537  17.030 -0.4973  0.5652 -0.3304
 4494TIP3    H234898   2.871   0.582  17.066  0.1831 -0.7358 -1.2739
 4495TIP3   OH234899   3.699   2.756  12.716  0.3121 -0.2616  0.3391
 4495TIP3    H134900   3.779   2.707  12.734  0.4028 -0.3544 -0.2864
 4495TIP3    H234901   3.653   2.703  12.650  0.5928  0.6709 -0.6280
 4496TIP3   OH234902   3.290   5.086   1.127  0.3004 -0.5574  0.1251
 4496TIP3    H134903   3.252   5.070   1.213  2.0177 -0.8655  0.8675
 4496TIP3    H234904   3.370   5.032   1.126 -0.0768 -1.1629 -1.9546
 4497TIP3   OH234905   0.085   1.647   4.282  0.6276 -0.7381  0.6462
 4497TIP3    H134906   0.153   1.583   4.302 -0.3931 -1.8833  0.5452
 4497TIP3    H234907   0.039   1.661   4.365  1.3443  0.5066  0.8610
 4498TIP3   OH234908   5.515   1.410   4.269  0.3774 -0.5802  0.0702
 4498TIP3    H134909   5.495   1.493   4.225  1.4079  0.8603  2.1248
 4498TIP3    H234910   5.583   1.370   4.214  1.6901  1.1939  0.3205
 4499TIP3   OH234911   1.107   2.515  11.597  0.6745  0.3314 -0.2176
 4499TIP3    H134912   1.199   2.489  11.588  0.6527 -0.3192  1.0982
 4499TIP3    H234913   1.067   2.443  11.647 -0.4309  0.8450 -0.3432
 4500TIP3   OH234914   6.357   1.816  14.601 -0.2962  0.3005  0.3691
 4500TIP3    H134915   6.312   1.731  14.596  0.9441 -0.3324 -0.5321
 4500TIP3    H234916   6.434   1.799  14.655 -1.0242  1.3511  1.8185
 4501TIP3   OH234917   2.216   5.625   0.967 -0.3315 -0.0270  0.0082
 4501TIP3    H134918   2.200   5.718   0.948 -1.8871 -0.0055  1.1546
 4501TIP3    H234919   2.306   5.623   0.999 -0.7018  1.3494  1.2792
 4502TIP3   OH234920   0.532   5.590  16.583  0.0250 -0.0278  0.3044
 4502TIP3    H134921   0.478   5.563  16.657 -1.4358 -1.1551 -1.1039
 4502TIP3    H234922   0.595   5.519  16.572  0.9484  0.6425  1.0900
 4503TIP3   OH234923   0.444   2.733   5.371  0.0039  0.1385 -0.1198
 4503TIP3    H134924   0.525   2.732   5.421  1.1303  0.6728 -1.8730
 4503TIP3    H234925   0.440   2.822   5.334 -2.4119  0.8313  1.5039
 4504TIP3   OH234926   2.426   5.698  16.026  0.1641  0.9454 -0.4045
 4504TIP3    H134927   2.331   5.689  16.016  0.1241  1.3853 -0.4253
 4504TIP3    H234928   2.437   5.760  16.098  0.4468 -0.8516  1.1852
 4505TIP3   OH234929   4.319   0.548  13.745 -0.5120 -0.5434 -0.7858
 4505TIP3    H134930   4.388   0.605  13.711 -3.7428  3.2884 -1.5653
 4505TIP3    H234931   4.289   0.498  13.670 -0.2257 -0.4236 -0.9811
 4506TIP3   OH234932   4.790   0.231  11.678  0.2127 -0.1531 -0.1736
 4506TIP3    H134933   4.743   0.162  11.631  0.1117  0.5279 -1.1000
 4506TIP3    H234934   4.833   0.282  11.609 -0.0044  0.9216  0.4621
 4507TIP3   OH234935   2.316   0.895   1.950 -0.1937 -0.1987 -0.2383
 4507TIP3    H134936   2.224   0.910   1.927 -0.0721  2.6034  0.6642
 4507TIP3    H234937   2.364   0.947   1.886  0.5471  0.9417  1.1813
 4508TIP3   OH234938   2.275   5.986  13.799 -0.3242  0.1245  0.4597
 4508TIP3    H134939   2.228   6.068  13.815 -0.8608  0.0837 -0.8183
 4508TIP3    H234940   2.337   6.007  13.730 -0.3619 -0.5110  0.2308
 4509TIP3   OH234941   5.925   4.820  16.726 -0.0672  0.0498 -0.3314
 4509TIP3    H134942   5.847   4.864  16.758 -0.5515 -1.2912  0.4204
 4509TIP3    H234943   5.997   4.861  16.775 -0.1846  1.6848 -1.4401
 4510TIP3   OH234944   2.315   4.713   2.931  0.0878 -0.6648 -0.3709
 4510TIP3    H134945   2.385   4.714   2.865 -0.8160  1.1497 -1.3760
 4510TIP3    H234946   2.266   4.632   2.912 -0.4696  0.0660 -2.3410
 4511TIP3   OH234947   6.656   2.077  13.922  0.0362 -0.5360 -0.2044
 4511TIP3    H134948   6.639   2.132  13.845 -1.7862  0.2313  0.6887
 4511TIP3    H234949   6.569   2.058  13.958  0.8048 -1.4984  1.2618
 4512TIP3   OH234950   0.797   2.654  13.441  0.1048 -0.6074 -0.5322
 4512TIP3    H134951   0.785   2.567  13.403 -0.4256 -0.9153  0.3125
 4512TIP3    H234952   0.709   2.687  13.457  0.3070 -0.2208 -0.1691
 4513TIP3   OH234953   4.461   5.323  15.607 -0.4684 -0.5332 -0.5176
 4513TIP3    H134954   4.412   5.242  15.622  1.4938 -2.0340 -1.6834
 4513TIP3    H234955   4.453   5.338  15.512 -2.1920  1.6463 -0.1063
 4514TIP3   OH234956   0.275   6.719  16.910 -0.0054 -0.0321 -0.0115
 4514TIP3    H134957   0.366   6.732  16.883 -0.1487  1.6175  0.1722
 4514TIP3    H234958   0.246   6.642  16.862  1.7079 -1.0561  0.5017
 4515TIP3   OH234959   0.354   4.437  16.760  0.0796 -0.3055 -0.0992
 4515TIP3    H134960   0.349   4.450  16.665 -1.1487  0.2577  0.0280
 4515TIP3    H234961   0.311   4.353  16.775  1.6418 -1.1668 -0.1694
 4516TIP3   OH234962   3.801   4.612  11.162  0.0612  0.1410 -0.0775
 4516TIP3    H134963   3.757   4.546  11.216  3.3119 -0.9129  1.5658
 4516TIP3    H234964   3.759   4.694  11.186  0.0287 -0.5733  2.6836
 4517TIP3   OH234965   1.928   6.677   2.524 -0.4091  0.3214 -0.0138
 4517TIP3    H134966   1.848   6.626   2.536  0.3379 -0.6741  0.9026
 4517TIP3    H234967   1.910   6.732   2.447 -1.1581 -1.4826 -1.1835
 4518TIP3   OH234968   1.109   2.135  12.028  0.5577  0.2525 -0.5783
 4518TIP3    H134969   1.071   2.075  12.093  1.1437  0.6626  0.1636
 4518TIP3    H234970   1.180   2.179  12.075 -1.2122  3.1624 -0.3618
 4519TIP3   OH234971   5.607   1.760   4.272 -0.3385  0.3879 -0.4726
 4519TIP3    H134972   5.618   1.855   4.279 -1.3561  0.5365 -0.8266
 4519TIP3    H234973   5.579   1.733   4.360 -1.7982  0.6766 -0.8232
 4520TIP3   OH234974   5.527   2.068   5.202  0.1668  0.2438 -0.0152
 4520TIP3    H134975   5.537   2.096   5.293 -2.1616  0.9360  0.0715
 4520TIP3    H234976   5.525   1.972   5.206 -1.2931  0.2854  0.8642
 4521TIP3   OH234977   4.278   6.014  15.536 -0.0065 -0.9242  0.2555
 4521TIP3    H134978   4.244   6.084  15.479 -3.2831  0.2509  3.3073
 4521TIP3    H234979   4.370   6.037  15.548 -0.5410  1.9819 -0.2490
 4522TIP3   OH234980   4.705   4.850   1.258 -0.2287 -0.2462 -0.4273
 4522TIP3    H134981   4.659   4.842   1.341  0.7644 -0.3026  0.1266
 4522TIP3    H234982   4.695   4.942   1.234 -0.6167 -0.2556 -0.3165
 4523TIP3   OH234983   5.525   0.436  15.509  1.3710 -0.7795 -0.0451
 4523TIP3    H134984   5.599   0.389  15.550  1.6052 -1.3539 -1.1011
 4523TIP3    H234985   5.463   0.367  15.487  0.5966 -0.3155  0.6401
 4524TIP3   OH234986   5.256   2.162   3.908 -0.0172 -0.6227  0.1024
 4524TIP3    H134987   5.344   2.123   3.903  0.9329  1.2590  0.8641
 4524TIP3    H234988   5.269   2.253   3.880 -1.8898 -0.5121 -0.4984
 4525TIP3   OH234989   3.396   3.224  10.714 -0.5167 -0.2562  0.1501
 4525TIP3    H134990   3.379   3.136  10.747 -0.4087 -0.7559 -1.0592
 4525TIP3    H234991   3.420   3.210  10.622 -1.7527  1.1347 -0.4262
 4526TIP3   OH234992   2.573   4.800  15.732 -0.0417  0.8601 -0.4104
 4526TIP3    H134993   2.599   4.708  15.728 -2.0817  0.2034 -0.1065
 4526TIP3    H234994   2.612   4.833  15.812 -0.0433 -0.0217 -0.0312
 4527TIP3   OH234995   5.916   4.170  12.034 -0.2635  0.0156 -0.1625
 4527TIP3    H134996   5.855   4.227  12.082 -0.3407  1.1254 -1.5137
 4527TIP3    H234997   6.002   4.207  12.050 -0.1411 -0.3919  0.1545
 4528TIP3   OH234998   1.545   1.475  16.081  0.1905  0.2983 -0.1411
 4528TIP3    H134999   1.594   1.489  16.000 -2.5662  1.4137 -1.7476
 4528TIP3    H235000   1.513   1.562  16.105 -2.3870 -0.5318 -0.2073
 4529TIP3   OH235001   5.228   5.420  11.662  0.4367  0.1457 -0.4749
 4529TIP3    H135002   5.309   5.461  11.692  0.4328  0.3688 -0.7583
 4529TIP3    H235003   5.215   5.455  11.573 -0.0049  0.1679 -0.4066
 4530TIP3   OH235004   3.824   6.743   3.010 -0.7829  0.1530  0.0786
 4530TIP3    H135005   3.897   6.794   2.975  0.1693 -0.8249  0.5543
 4530TIP3    H235006   3.860   6.654   3.020 -1.8687 -0.2237  0.8445
 4531TIP3   OH235007   1.142   0.115  13.463 -0.6281 -0.1998  0.8407
 4531TIP3    H135008   1.165   0.040  13.408 -1.2232  0.9160 -0.9934
 4531TIP3    H235009   1.056   0.093  13.499 -0.0964 -1.0759  1.6240
 4532TIP3   OH235010   2.986   2.124   4.419  0.3693  0.3674 -0.8032
 4532TIP3    H135011   3.043   2.087   4.352  1.3222 -0.1830  0.2702
 4532TIP3    H235012   3.017   2.214   4.430  0.8797  0.1489 -0.4061
 4533TIP3   OH235013   3.963   1.251   3.213  0.3970  0.0695  0.1874
 4533TIP3    H135014   3.914   1.267   3.133  2.7478  0.5385 -1.2373
 4533TIP3    H235015   3.948   1.329   3.267 -0.8597 -0.0660  0.0567
 4534TIP3   OH235016   4.953   1.214   0.237 -0.1108 -0.4170  0.5857
 4534TIP3    H135017   4.923   1.136   0.191 -0.7954  0.6597 -0.8891
 4534TIP3    H235018   5.033   1.240   0.191 -0.1252 -0.0121  0.7818
 4535TIP3   OH235019   0.416   4.014  14.963 -0.1390 -0.5168  0.0126
 4535TIP3    H135020   0.365   3.958  15.022 -0.4424  0.3083  0.5586
 4535TIP3    H235021   0.392   3.984  14.875  0.1243 -1.5970  0.2965
 4536TIP3   OH235022   6.664   3.173  16.092 -0.1181 -0.4551 -0.0749
 4536TIP3    H135023   6.653   3.166  16.187 -1.2688 -1.1743 -0.2419
 4536TIP3    H235024   6.574   3.176  16.057  0.2588 -1.3660 -1.2118
 4537TIP3   OH235025   4.554   0.724  13.592 -0.0232  0.1272 -0.6504
 4537TIP3    H135026   4.586   0.793  13.534 -1.2235  1.6140  0.3686
 4537TIP3    H235027   4.560   0.644  13.540  2.6000  0.7461 -1.4544
 4538TIP3   OH235028   5.183   4.096   5.018 -0.4419 -0.4822 -0.4787
 4538TIP3    H135029   5.249   4.026   5.018  0.5624  0.4280  0.7704
 4538TIP3    H235030   5.212   4.157   5.086 -3.0002 -0.4302  0.6853
 4539TIP3   OH235031   6.478   2.864  16.067 -0.2204  0.2350 -0.1766
 4539TIP3    H135032   6.410   2.921  16.102  0.7435  0.1377  2.0338
 4539TIP3    H235033   6.550   2.923  16.045 -0.1016  0.1157 -0.1130
 4540TIP3   OH235034   0.615   2.531  16.598 -0.1659 -0.6242  0.0184
 4540TIP3    H135035   0.542   2.574  16.642 -0.3229  1.4113 -2.0834
 4540TIP3    H235036   0.575   2.463  16.545 -0.5573  0.4097 -1.0370
 4541TIP3   OH235037   4.030   2.392   0.675 -0.0364  0.1863 -0.4885
 4541TIP3    H135038   3.998   2.302   0.678  0.5410 -0.0057  1.7604
 4541TIP3    H235039   3.958   2.445   0.707  0.0628  0.3753 -0.5753
 4542TIP3   OH235040   1.857   0.951  14.679 -0.1706  0.1177  0.3788
 4542TIP3    H135041   1.819   0.933  14.765  2.5188 -1.2610  1.4110
 4542TIP3    H235042   1.892   1.040  14.686 -0.3429  0.1700  0.5736
 4543TIP3   OH235043   2.101   5.240  16.377 -0.5243 -0.0731 -0.3248
 4543TIP3    H135044   2.153   5.160  16.376 -0.6218 -0.1416 -0.0970
 4543TIP3    H235045   2.033   5.224  16.443 -2.2105 -0.8596 -2.1333
 4544TIP3   OH235046   1.453   1.639  13.351 -0.1565 -0.3908 -0.3134
 4544TIP3    H135047   1.427   1.564  13.405 -0.0820  0.5841  1.1469
 4544TIP3    H235048   1.403   1.712  13.387  0.8635  0.5495 -0.7484
 4545TIP3   OH235049   2.823   5.873   1.518  0.0310  0.1409 -0.0416
 4545TIP3    H135050   2.729   5.853   1.525  0.2873 -1.6886 -1.1712
 4545TIP3    H235051   2.838   5.887   1.425  0.9349  0.1431  0.0995
 4546TIP3   OH235052   6.672   6.704   1.627 -0.1906  0.2291  0.5322
 4546TIP3    H135053   6.665   6.652   1.548 -1.9214 -2.3868  2.2582
 4546TIP3    H235054   6.718   6.784   1.599  0.9239 -1.3510 -2.6490
 4547TIP3   OH235055   4.108   4.379   3.928  0.2578  0.6132  0.0066
 4547TIP3    H135056   4.099   4.286   3.905  1.3237  0.1910  1.1884
 4547TIP3    H235057   4.182   4.410   3.876  0.1794  0.6932 -0.0583
 4548TIP3   OH235058   4.700   6.254   3.441  0.3376 -0.8027  0.2176
 4548TIP3    H135059   4.776   6.204   3.409  1.1742  1.8336 -2.4602
 4548TIP3    H235060   4.733   6.344   3.449 -1.9278 -0.0096  1.4563
 4549TIP3   OH235061   5.160   2.253  16.138  0.0384 -0.1468 -0.0358
 4549TIP3    H135062   5.104   2.320  16.099  0.9180  0.1665 -0.7884
 4549TIP3    H235063   5.141   2.257  16.232 -2.7503 -1.5045 -0.4387
 4550TIP3   OH235064   1.159   6.275  15.867  0.3648  0.1597 -0.0636
 4550TIP3    H135065   1.177   6.183  15.882 -0.5163 -0.2052 -1.1564
 4550TIP3    H235066   1.232   6.306  15.813  0.5773  0.0790  0.1729
 4551TIP3   OH235067   1.669   2.454  11.439  0.4597 -0.3453  0.0683
 4551TIP3    H135068   1.673   2.451  11.535  2.4438  0.2649  0.0598
 4551TIP3    H235069   1.616   2.532  11.421 -0.5165 -0.8511  0.6371
 4552TIP3   OH235070   5.281   3.502  15.272 -0.2785  0.1344 -0.0671
 4552TIP3    H135071   5.289   3.553  15.352  0.9029  0.2389 -0.2419
 4552TIP3    H235072   5.244   3.419  15.300 -0.1686  0.2884  0.5361
 4553TIP3   OH235073   6.261   4.316   0.464 -0.3583 -0.2745  0.5239
 4553TIP3    H135074   6.205   4.272   0.528  1.1857 -2.7621  0.3121
 4553TIP3    H235075   6.329   4.358   0.516  0.5088 -1.7216  0.6185
 4554TIP3   OH235076   6.191   1.392  16.088  0.0174 -0.0244  0.3222
 4554TIP3    H135077   6.147   1.477  16.087  0.9833  0.5043 -1.9399
 4554TIP3    H235078   6.126   1.331  16.055  0.0644  0.2487 -0.2760
 4555TIP3   OH235079   2.373   5.908   4.251 -0.1530  0.1179  0.7013
 4555TIP3    H135080   2.343   5.906   4.160  0.7256  0.9082  0.3780
 4555TIP3    H235081   2.389   6.001   4.269 -1.4634  0.1112  2.0584
 4556TIP3   OH235082   0.088   3.134   0.763  0.2730 -0.3377 -0.1387
 4556TIP3    H135083   0.178   3.157   0.785 -0.0965 -0.5383  1.7148
 4556TIP3    H235084   0.084   3.039   0.775  0.3624 -0.6893 -2.4307
 4557TIP3   OH235085   1.433   6.193  13.924  0.1986  0.2614 -0.4591
 4557TIP3    H135086   1.504   6.235  13.875  1.3262  1.5160  2.0838
 4557TIP3    H235087   1.451   6.099  13.915  1.8130  0.5365 -0.4569
 4558TIP3   OH235088   2.704   1.642   0.656  0.9473 -0.3201  0.0096
 4558TIP3    H135089   2.745   1.582   0.593 -0.4076 -0.3330 -0.8890
 4558TIP3    H235090   2.686   1.721   0.606 -0.7264 -0.5596  0.1842
 4559TIP3   OH235091   2.435   5.155  15.252 -0.8063 -0.7493 -0.1593
 4559TIP3    H135092   2.464   5.223  15.313 -0.3500 -0.2054 -0.9644
 4559TIP3    H235093   2.340   5.167  15.248 -0.7192 -0.0644 -0.3861
 4560TIP3   OH235094   4.777   0.662  11.383  0.2962  0.0057 -0.6415
 4560TIP3    H135095   4.811   0.698  11.464 -0.0938  1.3172 -1.0395
 4560TIP3    H235096   4.836   0.589  11.363  0.0311 -0.7347  1.1157
 4561TIP3   OH235097   0.816   2.988  13.418 -0.0572 -0.0142  0.1317
 4561TIP3    H135098   0.816   3.083  13.431  0.7240  0.5842 -3.3099
 4561TIP3    H235099   0.731   2.969  13.378 -0.7473 -1.0476  1.9799
 4562TIP3   OH235100   0.366   1.688   6.152 -0.5876  0.2843  0.0962
 4562TIP3    H135101   0.278   1.712   6.181 -0.9900 -1.0271  0.0101
 4562TIP3    H235102   0.402   1.769   6.115 -1.2255  1.1948  1.3788
 4563TIP3   OH235103   6.770   3.120   1.389  0.0745 -0.2262 -0.0653
 4563TIP3    H135104   6.737   3.038   1.426  0.0402 -0.1480  0.0763
 4563TIP3    H235105   6.863   3.102   1.371 -0.4777 -1.1319 -2.3896
 4564TIP3   OH235106   6.592   4.143   1.546  0.2583 -0.3131  0.0193
 4564TIP3    H135107   6.663   4.129   1.608 -0.9109  1.1767  1.8125
 4564TIP3    H235108   6.614   4.225   1.502  0.9562 -1.2350 -1.4413
 4565TIP3   OH235109   4.492   5.769   2.786  0.1590 -0.3052  0.3977
 4565TIP3    H135110   4.548   5.799   2.858  0.4780  0.7222 -0.2683
 4565TIP3    H235111   4.404   5.796   2.811  0.1978 -0.3813  0.6222
 4566TIP3   OH235112   3.474   6.421   6.413  0.2542  0.5753  0.0779
 4566TIP3    H135113   3.565   6.397   6.400  0.0199 -1.1911  1.2864
 4566TIP3    H235114   3.436   6.346   6.459 -2.0137  0.9131 -1.1049
 4567TIP3   OH235115   3.241   0.688  14.630 -0.2080  0.0415 -0.3895
 4567TIP3    H135116   3.156   0.725  14.609  0.6267  0.9058 -2.5412
 4567TIP3    H235117   3.271   0.647  14.548  1.3761 -0.3523  0.3397
 4568TIP3   OH235118   5.006   0.255  13.321 -0.2661  0.6611  0.1209
 4568TIP3    H135119   5.042   0.268  13.408 -0.3620 -1.2013  0.4832
 4568TIP3    H235120   4.947   0.180  13.330 -2.1030  1.8979 -1.0519
 4569TIP3   OH235121   2.389   0.636   2.877  0.2231  0.4413  0.3991
 4569TIP3    H135122   2.483   0.652   2.884  0.0954  1.2886  0.3055
 4569TIP3    H235123   2.364   0.600   2.962 -0.0348  3.8205  1.9296
 4570TIP3   OH235124   1.099   3.266  16.725 -0.0474 -0.3386 -0.1892
 4570TIP3    H135125   1.128   3.199  16.787  0.2427 -1.6477 -1.6866
 4570TIP3    H235126   1.036   3.221  16.668 -2.5957  1.5767  0.8885
 4571TIP3   OH235127   1.181   4.580   4.467 -0.0090  0.3417 -0.1018
 4571TIP3    H135128   1.145   4.568   4.379 -0.0157  1.6880 -0.3158
 4571TIP3    H235129   1.275   4.594   4.453  0.1889 -0.6346  0.2208
 4572TIP3   OH235130   0.537   3.848   0.353 -0.0677 -0.4213  0.1218
 4572TIP3    H135131   0.609   3.853   0.415 -1.1407  1.5007  1.3045
 4572TIP3    H235132   0.461   3.822   0.406 -1.0950  1.6475 -0.2204
 4573TIP3   OH235133   3.538   1.674  15.244  0.7310  0.5784 -0.0213
 4573TIP3    H135134   3.525   1.747  15.183  1.0984  0.6516 -0.0102
 4573TIP3    H235135   3.528   1.713  15.331 -1.5137  0.1661 -0.0318
 4574TIP3   OH235136   2.700   2.558   0.669  0.2513  0.4272 -0.2902
 4574TIP3    H135137   2.772   2.545   0.730 -1.5229  1.7473  2.2885
 4574TIP3    H235138   2.667   2.469   0.651 -0.2998  0.0391  2.2306
 4575TIP3   OH235139   5.390   3.429  14.127 -0.1765  0.0233  0.4681
 4575TIP3    H135140   5.329   3.501  14.143 -0.5309 -0.1337 -0.1743
 4575TIP3    H235141   5.366   3.362  14.192  0.5075  0.6854  1.4334
 4576TIP3   OH235142   1.597   0.893  14.248 -0.0045  0.3009  0.1512
 4576TIP3    H135143   1.505   0.911  14.267 -0.6419 -1.7264 -0.7801
 4576TIP3    H235144   1.600   0.878  14.153  1.5833  1.8082 -0.0941
 4577TIP3   OH235145   5.735   1.452  11.427 -0.0952 -0.4058  0.0430
 4577TIP3    H135146   5.653   1.487  11.460 -0.7172 -1.5044 -0.2818
 4577TIP3    H235147   5.726   1.454  11.332  1.4020  2.0759 -0.1256
 4578TIP3   OH235148   1.874   0.304  12.669  0.4300 -0.5851  0.4532
 4578TIP3    H135149   1.800   0.245  12.653  0.2586 -0.3676  0.4442
 4578TIP3    H235150   1.841   0.369  12.730  0.9724 -1.1757  1.3903
 4579TIP3   OH235151   4.102   3.753  10.883 -0.3968  0.3245 -0.3129
 4579TIP3    H135152   4.139   3.841  10.892  0.4695  0.0966 -1.3629
 4579TIP3    H235153   4.161   3.709  10.822 -0.1687 -1.3645  1.0629
 4580TIP3   OH235154   6.465   4.081   6.697 -0.7647 -0.2180 -0.6250
 4580TIP3    H135155   6.416   4.155   6.661  0.2114 -0.8729 -3.6726
 4580TIP3    H235156   6.552   4.117   6.716 -0.7231 -0.2477 -0.7518
 4581TIP3   OH235157   0.433   6.566   4.350 -0.6021  0.0676 -0.4001
 4581TIP3    H135158   0.343   6.547   4.324 -0.5980 -0.9687  0.2921
 4581TIP3    H235159   0.427   6.650   4.396 -1.6132 -1.0344  1.6087
 4582TIP3   OH235160   2.259   3.815   5.528  0.0807  0.2293 -0.2363
 4582TIP3    H135161   2.214   3.898   5.542  1.5359  1.0539 -0.2032
 4582TIP3    H235162   2.245   3.766   5.609 -2.0759 -0.2376 -0.8344
 4583TIP3   OH235163   2.164   4.591  10.371 -0.4178 -0.3622  0.2685
 4583TIP3    H135164   2.209   4.648  10.433 -0.6687  0.6483 -0.4481
 4583TIP3    H235165   2.215   4.510  10.370 -0.3655 -0.3637  1.7157
 4584TIP3   OH235166   1.408   5.235  16.473  0.3727  0.0215 -0.1571
 4584TIP3    H135167   1.466   5.222  16.398  0.4560 -0.7244  0.0289
 4584TIP3    H235168   1.352   5.157  16.473 -0.5518  0.6646 -0.2549
 4585TIP3   OH235169   4.492   6.296   6.348  0.0853  0.8252 -0.6039
 4585TIP3    H135170   4.543   6.308   6.268 -1.0644  0.5095 -1.4252
 4585TIP3    H235171   4.455   6.382   6.366  0.9925  1.0846  0.0661
 4586TIP3   OH235172   3.659   4.687   2.386 -0.2056  0.5877  0.2148
 4586TIP3    H135173   3.720   4.614   2.396 -0.1111  0.8409  1.7271
 4586TIP3    H235174   3.585   4.650   2.338 -0.0147 -0.4215  0.6780
 4587TIP3   OH235175   1.816   6.631  14.766  0.1265 -0.4292  0.1664
 4587TIP3    H135176   1.769   6.671  14.693  0.6749  0.6487  0.3898
 4587TIP3    H235177   1.855   6.551  14.729  3.4353  1.8494 -1.8131
 4588TIP3   OH235178   2.620   0.815   6.107 -0.2737  0.4245 -0.0828
 4588TIP3    H135179   2.544   0.855   6.064 -2.7359  1.0308  4.2468
 4588TIP3    H235180   2.640   0.874   6.179  0.8086 -2.4409  2.1486
 4589TIP3   OH235181   0.687   4.501  12.824  0.5176  0.1338  0.2618
 4589TIP3    H135182   0.659   4.493  12.915 -1.0372  0.3904 -0.1702
 4589TIP3    H235183   0.761   4.441  12.817 -0.9162 -1.8488  1.0782
 4590TIP3   OH235184   5.844   0.495  12.570 -0.0152 -0.3009 -0.0971
 4590TIP3    H135185   5.856   0.511  12.476  3.1683 -2.1173 -0.1196
 4590TIP3    H235186   5.757   0.456  12.576 -0.0731 -0.6801 -2.3657
 4591TIP3   OH235187   2.681   5.839   6.605  0.0552  0.5695  0.1228
 4591TIP3    H135188   2.620   5.894   6.556 -0.8015 -0.5785 -0.1410
 4591TIP3    H235189   2.627   5.793   6.668  0.7072 -0.1704  0.1535
 4592TIP3   OH235190   0.234   5.131  16.976 -0.2923 -0.0423 -0.2449
 4592TIP3    H135191   0.271   5.070  16.913 -0.6415 -0.0452 -0.4506
 4592TIP3    H235192   0.255   5.093  17.061  0.2812  0.0195 -0.3535
 4593TIP3   OH235193   1.647   0.297   2.398  0.3033 -0.3997  0.4518
 4593TIP3    H135194   1.730   0.273   2.358 -0.8599 -1.9103 -1.2163
 4593TIP3    H235195   1.641   0.241   2.476  1.3395  0.5749  1.2657
 4594TIP3   OH235196   1.399   2.054  16.541  0.0135 -0.1718  0.6883
 4594TIP3    H135197   1.478   2.017  16.503 -0.7253 -1.0082 -0.0742
 4594TIP3    H235198   1.346   1.978  16.565 -0.8180  0.3837  0.6502
 4595TIP3   OH235199   4.791   0.514  13.646  0.8145 -0.1850 -0.3575
 4595TIP3    H135200   4.734   0.499  13.571  1.0980 -3.1083 -0.1262
 4595TIP3    H235201   4.732   0.545  13.715 -0.4227 -2.1629 -0.4232
 4596TIP3   OH235202   2.391   4.328  12.821  0.8029  0.4561  0.3034
 4596TIP3    H135203   2.404   4.366  12.735 -0.6350  1.4865  0.5022
 4596TIP3    H235204   2.329   4.387  12.865  0.8482 -0.4912  1.7303
 4597TIP3   OH235205   6.630   1.735   5.690  0.1912 -0.4415  0.3903
 4597TIP3    H135206   6.673   1.821   5.681  1.3104 -0.8890  1.2176
 4597TIP3    H235207   6.617   1.706   5.600  1.0395  0.0113  0.1073
 4598TIP3   OH235208   1.359   0.729  15.138 -0.5130 -0.3658 -0.5246
 4598TIP3    H135209   1.352   0.824  15.135  0.4097 -0.2993 -1.2970
 4598TIP3    H235210   1.288   0.698  15.081  0.2744 -0.0474 -1.7341
 4599TIP3   OH235211   0.190   5.546   0.909  0.6747  0.1391  0.2025
 4599TIP3    H135212   0.166   5.510   0.823  2.2573  0.1801 -0.2896
 4599TIP3    H235213   0.276   5.584   0.895  0.6435  0.7883  1.6571
 4600TIP3   OH235214   4.036   6.766  15.002 -0.4176  0.3349 -0.1125
 4600TIP3    H135215   4.027   6.757  14.907 -3.1526  0.1154  0.0944
 4600TIP3    H235216   3.968   6.829  15.026  0.3691  0.5432  1.6966
 4601TIP3   OH235217   2.680   3.248   6.396  0.2938  0.1057  0.4968
 4601TIP3    H135218   2.613   3.308   6.430 -1.4876 -1.1071 -0.7056
 4601TIP3    H235219   2.682   3.176   6.459  0.6034  0.2259  0.6252
 4602TIP3   OH235220   0.905   6.686  14.434  0.1624 -0.1546  0.3639
 4602TIP3    H135221   0.874   6.609  14.481 -1.1075  0.1902  0.1297
 4602TIP3    H235222   0.920   6.752  14.502  0.6625 -0.4083  0.5049
 4603TIP3   OH235223   0.865   5.476   0.617 -0.7482  0.3163  0.6429
 4603TIP3    H135224   0.855   5.435   0.703  1.6663 -2.5581 -0.2622
 4603TIP3    H235225   0.952   5.515   0.619 -0.9907  0.9290 -0.2349
 4604TIP3   OH235226   6.808   5.960   0.619 -0.0895 -0.4684 -0.0322
 4604TIP3    H135227   6.827   5.915   0.702  0.8593 -1.5325 -0.8000
 4604TIP3    H235228   6.828   6.052   0.637  1.4247 -0.8788  0.5524
 4605TIP3   OH235229   0.823   0.495   0.806  0.3555  0.2320 -0.1748
 4605TIP3    H135230   0.843   0.410   0.766  1.5536  0.1590  0.5442
 4605TIP3    H235231   0.752   0.477   0.867  0.9328 -0.3494  0.3282
 4606TIP3   OH235232   1.647   1.700  12.406 -0.0871  0.2005 -0.0647
 4606TIP3    H135233   1.637   1.767  12.473 -0.6652  0.4993 -0.4430
 4606TIP3    H235234   1.574   1.640  12.420 -1.0151  0.9927 -1.2360
 4607TIP3   OH235235   4.337   0.950  15.633  0.8660 -0.4316  0.0370
 4607TIP3    H135236   4.363   1.029  15.586  0.8121 -0.4491 -0.0238
 4607TIP3    H235237   4.302   0.893  15.565 -0.4178  0.0392  0.2749
 4608TIP3   OH235238   2.738   5.709  16.745 -0.3154  0.0171 -0.1975
 4608TIP3    H135239   2.661   5.730  16.691 -0.3897  1.2829  0.3714
 4608TIP3    H235240   2.808   5.762  16.707  0.0319 -0.3392 -0.0577
 4609TIP3   OH235241   0.873   6.665   5.518 -0.0896  0.5299 -0.2438
 4609TIP3    H135242   0.863   6.588   5.573  0.9899 -0.9780 -2.0268
 4609TIP3    H235243   0.952   6.707   5.549 -0.3225  0.5573  0.3212
 4610TIP3   OH235244   1.425   4.921   5.647  0.0976  0.1173 -0.2015
 4610TIP3    H135245   1.432   4.826   5.641 -0.2435  0.0672  0.0995
 4610TIP3    H235246   1.491   4.954   5.587  0.6610 -0.3097  0.1659
 4611TIP3   OH235247   2.655   3.760   2.504 -0.2455  0.1013 -0.2614
 4611TIP3    H135248   2.670   3.833   2.444 -0.4778 -0.7283 -1.3623
 4611TIP3    H235249   2.741   3.719   2.515 -0.2076  0.2377 -0.0405
 4612TIP3   OH235250   2.671   4.154   1.347  0.7340 -0.7992  0.1571
 4612TIP3    H135251   2.700   4.098   1.275 -0.4705 -0.0071 -0.9961
 4612TIP3    H235252   2.600   4.105   1.389  0.5430 -0.6993 -0.0451
 4613TIP3   OH235253   2.502   4.405   2.413  0.2656 -0.6939 -0.1311
 4613TIP3    H135254   2.597   4.408   2.425  0.0640 -2.0090  2.7849
 4613TIP3    H235255   2.489   4.342   2.342  1.5438 -0.3998 -0.6599
 4614TIP3   OH235256   5.598   3.438  12.481  0.5043 -0.6686 -0.5122
 4614TIP3    H135257   5.573   3.510  12.539  0.1253 -1.6565  0.5836
 4614TIP3    H235258   5.666   3.390  12.529 -0.6184 -2.1736 -0.3504
 4615TIP3   OH235259   1.426   0.653   0.117  0.9622 -0.5238  0.0055
 4615TIP3    H135260   1.391   0.721   0.059 -1.6465  1.9317  3.9500
 4615TIP3    H235261   1.403   0.571   0.074  0.4477  1.0355 -3.0108
 4616TIP3   OH235262   5.334   0.442  13.687  0.4040  0.2607  0.0763
 4616TIP3    H135263   5.399   0.511  13.679  1.3513 -0.4834  1.1083
 4616TIP3    H235264   5.311   0.441  13.780 -0.6187  0.0794 -0.1601
 4617TIP3   OH235265   2.278   0.912   0.776  0.0247 -0.2607  0.3526
 4617TIP3    H135266   2.286   0.991   0.830  0.2381 -0.0948  0.0852
 4617TIP3    H235267   2.354   0.915   0.718 -0.5344 -0.0914 -0.3934
 4618TIP3   OH235268   3.374   1.859   3.331 -0.3998  0.0834 -0.0578
 4618TIP3    H135269   3.317   1.905   3.393 -0.0299  2.2671 -1.2596
 4618TIP3    H235270   3.328   1.862   3.248 -0.1657 -1.4263 -0.2816
 4619TIP3   OH235271   4.615   5.958  16.747 -0.0177 -0.1760  0.3380
 4619TIP3    H135272   4.582   5.870  16.766 -1.0005  0.0688 -0.2096
 4619TIP3    H235273   4.569   6.015  16.809 -0.2928  0.1057 -0.1223
 4620TIP3   OH235274   5.220   3.580  16.854  0.7550  0.2828 -0.3620
 4620TIP3    H135275   5.272   3.586  16.773  1.0418  1.2336 -0.1224
 4620TIP3    H235276   5.183   3.492  16.852  1.7687 -0.1468 -0.9178
 4621TIP3   OH235277   2.941   3.572   4.866 -0.1478 -0.2064 -0.1462
 4621TIP3    H135278   2.911   3.547   4.779  1.7393  1.6582 -1.4110
 4621TIP3    H235279   2.932   3.492   4.918 -0.3947 -1.6502 -2.2899
 4622TIP3   OH235280   3.521   5.178   2.115  0.1249  0.1344 -0.2608
 4622TIP3    H135281   3.511   5.231   2.036  1.3863  1.3404  0.3557
 4622TIP3    H235282   3.613   5.185   2.138  0.3257 -2.2469 -0.0555
 4623TIP3   OH235283   2.805   3.723  12.352  0.2113  0.6175 -0.0275
 4623TIP3    H135284   2.790   3.689  12.440 -0.3621 -0.1449 -0.4108
 4623TIP3    H235285   2.864   3.798  12.365  1.4531 -0.4666  0.8262
 4624TIP3   OH235286   5.259   4.059   4.502 -0.1573  0.2751 -0.3078
 4624TIP3    H135287   5.226   4.129   4.558 -0.6303  0.6509 -1.0416
 4624TIP3    H235288   5.353   4.057   4.519 -0.0752  1.3664 -0.5791
 4625TIP3   OH235289   2.553   6.129  14.815 -0.4237  0.4319 -0.2699
 4625TIP3    H135290   2.476   6.076  14.794  0.3549 -0.2182 -1.5401
 4625TIP3    H235291   2.519   6.196  14.875 -1.2787 -1.9122  2.0369
 4626TIP3   OH235292   1.126   5.842   3.830 -0.1659  0.0318  0.3546
 4626TIP3    H135293   1.045   5.807   3.793 -0.0388  1.5740 -1.5003
 4626TIP3    H235294   1.194   5.780   3.801 -0.1591  0.8777 -1.5653
 4627TIP3   OH235295   4.502   4.198   5.176  0.2712  0.1233  0.1638
 4627TIP3    H135296   4.511   4.174   5.268 -0.5682 -2.6500 -0.3880
 4627TIP3    H235297   4.426   4.256   5.174 -0.0660 -0.2602  1.1628
 4628TIP3   OH235298   4.154   2.022  11.209 -0.7990  0.1868 -0.5492
 4628TIP3    H135299   4.137   1.992  11.298 -1.7414  2.6295  0.1840
 4628TIP3    H235300   4.166   2.117  11.218  0.3775  0.3210 -2.8674
 4629TIP3   OH235301   5.236   5.255  13.376 -0.0532  0.1748 -0.0695
 4629TIP3    H135302   5.298   5.251  13.303  0.0727 -1.7109  0.0926
 4629TIP3    H235303   5.151   5.244  13.335 -0.1662  1.1413 -0.1186
 4630TIP3   OH235304   5.564   2.564  10.612  0.2391  0.2649 -0.5591
 4630TIP3    H135305   5.557   2.659  10.611 -0.3420  0.2289 -0.8662
 4630TIP3    H235306   5.510   2.536  10.538 -0.6015 -0.3552  0.2531
 4631TIP3   OH235307   5.512   2.496  15.165 -0.0015  0.3725 -0.6722
 4631TIP3    H135308   5.592   2.467  15.208 -1.0441  0.3753  1.3864
 4631TIP3    H235309   5.516   2.592  15.169 -0.2112  0.3690 -0.3566
 4632TIP3   OH235310   0.623   5.847   2.317  0.2980  1.2460  0.1041
 4632TIP3    H135311   0.693   5.846   2.252  0.4870 -0.2020  0.2932
 4632TIP3    H235312   0.554   5.792   2.280  0.6263 -0.0565  1.3206
 4633TIP3   OH235313   2.522   1.558   2.441  0.1612  0.7452  0.5505
 4633TIP3    H135314   2.498   1.466   2.434  0.3512  0.8063 -1.9522
 4633TIP3    H235315   2.613   1.557   2.469  0.0891  0.1826  0.7755
 4634TIP3   OH235316   2.672   0.034   2.145 -0.2663 -0.0985 -0.1814
 4634TIP3    H135317   2.735   0.072   2.084 -0.1522  2.2630  1.2500
 4634TIP3    H235318   2.607  -0.009   2.089  1.2748 -0.4311 -1.7986
 4635TIP3   OH235319   2.036   2.577  12.292  0.2080 -0.4751 -0.2527
 4635TIP3    H135320   2.094   2.608  12.362 -1.8588  0.3403  1.2117
 4635TIP3    H235321   2.035   2.482  12.302  1.4593 -0.5272 -0.4731
 4636TIP3   OH235322   3.898   1.712   3.951  0.1476 -0.0029 -0.3307
 4636TIP3    H135323   3.972   1.658   3.981  0.5147  0.9400  0.5248
 4636TIP3    H235324   3.933   1.761   3.877  0.4871  0.6410  0.2392
 4637TIP3   OH235325   1.657   4.985   5.993 -0.7168  0.2399 -0.8891
 4637TIP3    H135326   1.627   5.072   5.967 -2.6060 -1.0028 -3.2092
 4637TIP3    H235327   1.579   4.943   6.028  0.2209 -0.5355  0.3710
 4638TIP3   OH235328   2.349   3.079  14.319  0.1224 -0.2343 -0.3468
 4638TIP3    H135329   2.256   3.101  14.324  0.3877  1.2728 -1.5542
 4638TIP3    H235330   2.383   3.132  14.248  1.0716 -3.8509 -2.8753
 4639TIP3   OH235331   1.818   6.072  15.402 -0.2699 -0.1480  0.0723
 4639TIP3    H135332   1.819   6.103  15.311  2.5329  0.3991  0.1950
 4639TIP3    H235333   1.780   6.145  15.451 -3.1224 -0.9642 -0.6909
 4640TIP3   OH235334   3.448   4.959  12.431  0.0513 -0.0005 -0.2002
 4640TIP3    H135335   3.474   4.896  12.498  1.3277 -1.0322 -1.6084
 4640TIP3    H235336   3.399   4.907  12.367 -0.1175  0.7329 -0.6796
 4641TIP3   OH235337   1.354   4.735  12.153 -0.5814  0.2026 -0.3317
 4641TIP3    H135338   1.290   4.679  12.198 -0.1103  0.1562  0.2996
 4641TIP3    H235339   1.437   4.689  12.163  0.0569  1.6127  1.3338
 4642TIP3   OH235340   6.542   0.345  12.988  0.7007 -0.2579 -0.1915
 4642TIP3    H135341   6.636   0.364  12.995  0.9808 -0.5596 -2.4077
 4642TIP3    H235342   6.533   0.298  12.905 -1.5885  0.8675 -0.6565
 4643TIP3   OH235343   3.225   1.763   3.668 -0.1387  0.5617  0.5338
 4643TIP3    H135344   3.312   1.749   3.705  0.6176  3.2864 -0.0199
 4643TIP3    H235345   3.206   1.856   3.684 -1.1777  1.0740 -2.8725
 4644TIP3   OH235346   1.777   0.847  16.719  0.1082 -0.7730 -0.0501
 4644TIP3    H135347   1.779   0.887  16.806  1.0090  1.1987 -0.9123
 4644TIP3    H235348   1.847   0.781  16.721  2.0735  1.2240 -0.1103
 4645TIP3   OH235349   4.573   2.536   4.245 -0.5149  0.0498  0.0586
 4645TIP3    H135350   4.511   2.498   4.183  0.6988 -0.5742 -0.8130
 4645TIP3    H235351   4.576   2.473   4.317  0.2238 -0.6979 -0.6027
 4646TIP3   OH235352   1.638   0.630  13.158  0.2835  0.5435  0.6868
 4646TIP3    H135353   1.592   0.634  13.074  0.3037  1.1753  0.7001
 4646TIP3    H235354   1.570   0.617  13.223  0.3843 -1.5811  0.4643
 4647TIP3   OH235355   2.612   5.797  13.820 -0.0086  0.1353  0.3909
 4647TIP3    H135356   2.546   5.810  13.751 -0.7338  1.2071  1.2504
 4647TIP3    H235357   2.589   5.861  13.887  1.6718  0.2241  0.9103
 4648TIP3   OH235358   2.863   0.512   3.602  0.0421  0.0334 -0.3078
 4648TIP3    H135359   2.826   0.557   3.525 -1.1683  1.6628  1.1492
 4648TIP3    H235360   2.839   0.568   3.676 -0.4129 -2.3959  1.4867
 4649TIP3   OH235361   4.657   2.351  16.796  0.2222 -0.0984  0.1222
 4649TIP3    H135362   4.651   2.290  16.870  3.8163 -0.9405 -0.0915
 4649TIP3    H235363   4.669   2.294  16.720  0.7167  0.8020 -0.4932
 4650TIP3   OH235364   6.609   2.527   3.665  0.6276 -0.2780  0.0774
 4650TIP3    H135365   6.540   2.575   3.712  0.2369 -0.5702 -0.1973
 4650TIP3    H235366   6.689   2.547   3.714  0.3884  0.2458  0.2683
 4651TIP3   OH235367   6.710   1.521  11.010  0.0097 -0.2430  0.1113
 4651TIP3    H135368   6.746   1.436  10.986 -1.4639 -0.9702  0.4334
 4651TIP3    H235369   6.781   1.583  10.990  1.0107 -1.4997 -0.3450
 4652TIP3   OH235370   5.769   0.900  11.908 -0.2124  0.1569 -0.5307
 4652TIP3    H135371   5.816   0.830  11.864  1.7619  2.1029 -1.7417
 4652TIP3    H235372   5.745   0.961  11.837 -1.7148  0.8264  0.4880
 4653TIP3   OH235373   0.440   5.195   2.038  0.4974  0.4667 -0.1018
 4653TIP3    H135374   0.500   5.138   1.989  0.4972  2.0207 -2.0673
 4653TIP3    H235375   0.360   5.197   1.985  0.3882  1.9900  0.0650
 4654TIP3   OH235376   3.385   3.132  14.766  0.4236 -0.2170 -0.0445
 4654TIP3    H135377   3.464   3.096  14.805 -0.5954 -2.5073  0.0787
 4654TIP3    H235378   3.345   3.185  14.836  1.8167  1.0211 -0.1365
 4655TIP3   OH235379   3.490   0.335  16.455  0.0026 -0.1891  0.2135
 4655TIP3    H135380   3.444   0.335  16.539 -0.1220 -0.1753  0.1446
 4655TIP3    H235381   3.423   0.313  16.391 -0.4861  2.2375 -0.2187
 4656TIP3   OH235382   0.253   3.079  14.663  0.0132  0.3275 -0.1195
 4656TIP3    H135383   0.160   3.062  14.648  0.0988 -0.3765  0.0859
 4656TIP3    H235384   0.287   2.996  14.698  0.0656  1.5135  2.9285
 4657TIP3   OH235385   3.372   3.808   3.092  0.2050  0.2258  0.0577
 4657TIP3    H135386   3.429   3.885   3.088  1.9564 -0.9828  0.6990
 4657TIP3    H235387   3.416   3.748   3.152 -1.8165 -0.7482  0.6699
 4658TIP3   OH235388   4.515   6.608  13.465  0.1979 -0.4430 -0.4096
 4658TIP3    H135389   4.568   6.676  13.508  1.3166 -1.9121  0.6549
 4658TIP3    H235390   4.508   6.539  13.530 -0.8572 -1.3900 -1.4883
 4659TIP3   OH235391   3.468   4.718   0.412  0.1302 -0.4331  0.6887
 4659TIP3    H135392   3.383   4.741   0.449  0.1841 -1.4047  1.4460
 4659TIP3    H235393   3.462   4.744   0.320 -0.5618  0.5777  1.0025
 4660TIP3   OH235394   0.723   1.463  16.673  0.3212 -0.2060 -0.2591
 4660TIP3    H135395   0.809   1.423  16.661  0.8685  0.5602  0.9341
 4660TIP3    H235396   0.691   1.427  16.756  0.2892  0.8781  0.2174
 4661TIP3   OH235397   1.527   5.473  11.146 -0.4441  0.3139 -0.7392
 4661TIP3    H135398   1.619   5.501  11.139 -0.0671 -0.9385 -0.9804
 4661TIP3    H235399   1.502   5.449  11.057 -0.4741 -0.9186 -0.4196
 4662TIP3   OH235400   6.249   6.148   4.045  0.3130 -0.1484 -0.0806
 4662TIP3    H135401   6.263   6.055   4.064 -0.3264 -0.3061 -0.3425
 4662TIP3    H235402   6.260   6.191   4.130 -2.8733 -0.8887  0.8431
 4663TIP3   OH235403   1.700   3.138  16.149  0.0067 -0.6106 -0.4054
 4663TIP3    H135404   1.775   3.122  16.205  1.1753  1.4323 -1.2886
 4663TIP3    H235405   1.710   3.076  16.077 -0.0361 -1.4152  0.2672
 4664TIP3   OH235406   1.642   4.998  15.946 -0.2676 -0.2962  0.4822
 4664TIP3    H135407   1.688   4.934  15.892 -1.1079  0.1644 -0.8220
 4664TIP3    H235408   1.550   4.974  15.938 -0.3981 -0.5099  2.1369
 4665TIP3   OH235409   3.674   6.217  11.856  0.2058  0.2479  0.8306
 4665TIP3    H135410   3.653   6.207  11.949  1.4301  0.3387  1.1313
 4665TIP3    H235411   3.591   6.243  11.816 -0.0650  1.4334  2.0918
 4666TIP3   OH235412   2.241   3.280   5.594  0.2341  0.4688 -0.0208
 4666TIP3    H135413   2.146   3.268   5.585  0.3931  0.8798 -3.0027
 4666TIP3    H235414   2.266   3.336   5.521  2.9807 -0.6792 -0.0882
 4667TIP3   OH235415   3.612   2.304  14.400  0.0941 -0.0062  0.4483
 4667TIP3    H135416   3.555   2.237  14.362 -1.1363  1.0967  0.2740
 4667TIP3    H235417   3.555   2.380  14.412  2.0294  1.9608 -1.9141
 4668TIP3   OH235418   2.569   5.389   1.642 -0.3991 -0.1283 -0.4515
 4668TIP3    H135419   2.643   5.330   1.637 -0.9974 -0.9192 -0.1462
 4668TIP3    H235420   2.540   5.385   1.733  1.0355  2.5243  0.2519
 4669TIP3   OH235421   0.045   2.522   5.010  0.3675  0.7718  0.1200
 4669TIP3    H135422   0.068   2.555   5.097 -0.3652  0.3847  0.4622
 4669TIP3    H235423   0.024   2.430   5.023 -0.1018  0.7961 -0.4070
 4670TIP3   OH235424   2.491   5.113   4.031 -0.3182 -0.6760  0.3280
 4670TIP3    H135425   2.575   5.137   4.070 -1.5538  1.1302  2.0135
 4670TIP3    H235426   2.480   5.175   3.959  0.7457 -2.3536 -1.3982
 4671TIP3   OH235427   5.098   1.861  16.605 -0.3792 -0.1614  0.3986
 4671TIP3    H135428   5.120   1.790  16.665 -1.1255 -0.9997 -0.3054
 4671TIP3    H235429   5.009   1.842  16.575 -0.6697  1.1780  0.3470
 4672TIP3   OH235430   4.718   5.980  15.069 -0.0257  0.3505 -0.8536
 4672TIP3    H135431   4.686   6.061  15.030 -0.4714  1.4656  1.6310
 4672TIP3    H235432   4.810   5.999  15.091 -0.6111  0.9480  1.3901
 4673TIP3   OH235433   0.464   1.240   2.399 -0.3921  0.2467  0.1981
 4673TIP3    H135434   0.371   1.221   2.382 -0.5250  2.3535 -1.8508
 4673TIP3    H235435   0.463   1.294   2.478 -0.7538 -0.6368  0.8321
 4674TIP3   OH235436   4.375   0.739   1.224 -0.2513  0.4916 -0.1032
 4674TIP3    H135437   4.312   0.781   1.283 -0.0504  0.9507 -0.2152
 4674TIP3    H235438   4.395   0.805   1.158 -0.0797  0.1554 -0.3912
 4675TIP3   OH235439   4.249   5.513  16.078 -0.2150  0.0172 -0.5276
 4675TIP3    H135440   4.214   5.525  16.166  2.8400 -1.5009  1.0760
 4675TIP3    H235441   4.265   5.419  16.071  1.2448  0.3307 -1.9845
 4676TIP3   OH235442   0.717   1.845   4.569  0.4797 -0.3821  0.1927
 4676TIP3    H135443   0.704   1.850   4.474 -0.3829 -1.1265  0.2531
 4676TIP3    H235444   0.778   1.772   4.580  0.3283 -0.5019  0.2321
 4677TIP3   OH235445   4.249   6.650  15.095  0.1541 -0.4168 -0.3301
 4677TIP3    H135446   4.255   6.645  15.190  1.3021  0.4778 -0.3428
 4677TIP3    H235447   4.172   6.705  15.079  0.1199 -0.3451  0.0767
 4678TIP3   OH235448   3.737   1.707   2.532 -0.6448  0.3194  0.7106
 4678TIP3    H135449   3.821   1.682   2.493 -0.7850 -0.2988  0.7916
 4678TIP3    H235450   3.746   1.801   2.548 -0.3678  0.4690 -0.2470
 4679TIP3   OH235451   3.003   1.072   2.672 -0.1358 -0.2968 -0.2793
 4679TIP3    H135452   3.010   1.016   2.749 -0.2470 -1.9368 -1.4237
 4679TIP3    H235453   3.067   1.141   2.687  0.0491 -0.7454  1.1389
 4680TIP3   OH235454   1.157   4.990  15.869 -0.4681  1.0181  0.0548
 4680TIP3    H135455   1.174   4.948  15.785 -1.1508 -1.3588  1.0161
 4680TIP3    H235456   1.243   4.996  15.910 -0.2781  1.1330 -0.3509
 4681TIP3   OH235457   0.172   2.904   1.363  0.4363  0.0332 -0.6392
 4681TIP3    H135458   0.206   2.931   1.448 -3.0259  0.1094  0.8994
 4681TIP3    H235459   0.191   2.810   1.359  0.3891 -0.0315  0.3594
 4682TIP3   OH235460   2.982   2.004   3.165  0.1781  0.1723  0.7971
 4682TIP3    H135461   3.007   2.035   3.252  0.6709  0.0010  0.7218
 4682TIP3    H235462   2.941   2.080   3.123  0.7527  0.5205  0.8587
 4683TIP3   OH235463   5.273   4.357   1.067  0.0226 -0.4415  0.3831
 4683TIP3    H135464   5.233   4.443   1.077 -1.2056 -0.6511 -1.8720
 4683TIP3    H235465   5.267   4.317   1.154 -3.6000  0.0691  0.5270
 4684TIP3   OH235466   3.938   3.793  12.958  0.4834  0.4358  0.1167
 4684TIP3    H135467   3.880   3.719  12.977  0.0141  0.2031 -2.0353
 4684TIP3    H235468   3.932   3.848  13.037 -0.6259 -0.8637  0.9904
 4685TIP3   OH235469   4.742   6.715  14.649  0.1675  0.0206 -0.5871
 4685TIP3    H135470   4.749   6.810  14.637 -1.2215  0.3053  0.6480
 4685TIP3    H235471   4.691   6.704  14.729 -0.1609 -1.7818 -0.9968
 4686TIP3   OH235472   1.135   3.761  15.133 -0.0180 -0.1049  0.3539
 4686TIP3    H135473   1.074   3.689  15.151  0.7710 -0.8753 -0.0072
 4686TIP3    H235474   1.080   3.830  15.095 -0.7798 -0.5151  0.6910
 4687TIP3   OH235475   4.025   4.699  16.472  0.5026  0.4766  0.2723
 4687TIP3    H135476   4.017   4.788  16.436  1.0593  0.3167 -0.2626
 4687TIP3    H235477   4.034   4.643  16.395  0.8090  0.0248  0.6355
 4688TIP3   OH235478   4.566   0.939  11.791  0.2986  0.2870  0.5463
 4688TIP3    H135479   4.660   0.958  11.797  0.9282 -2.6746  2.6271
 4688TIP3    H235480   4.538   0.929  11.882 -1.4360 -1.4136 -0.1100
 4689TIP3   OH235481   5.378   0.979  14.219 -0.1583  0.0307  0.0958
 4689TIP3    H135482   5.290   0.943  14.207 -1.0028  1.2534  2.2263
 4689TIP3    H235483   5.383   1.050  14.155 -0.8111  0.1259  0.1418
 4690TIP3   OH235484   2.056   5.382   5.199 -0.5901  0.2522 -0.2299
 4690TIP3    H135485   2.136   5.353   5.156 -0.3321 -1.1378  1.0692
 4690TIP3    H235486   1.998   5.306   5.196 -1.2380  0.7114  0.2760
 4691TIP3   OH235487   6.105   3.409   4.306  0.0050 -0.1858  0.1594
 4691TIP3    H135488   6.185   3.432   4.259 -0.4629 -1.2875 -1.2750
 4691TIP3    H235489   6.037   3.461   4.264 -0.1196  0.3150  0.9820
 4692TIP3   OH235490   1.721   1.733  16.746  0.9144 -0.1795 -0.5988
 4692TIP3    H135491   1.784   1.736  16.818 -0.1595 -0.0647  0.3687
 4692TIP3    H235492   1.704   1.824  16.724  0.3721 -0.1768 -0.1953
 4693TIP3   OH235493   5.524   6.014   3.872  0.4208 -0.3241 -0.0584
 4693TIP3    H135494   5.606   6.059   3.888  0.5793 -1.1948  1.8269
 4693TIP3    H235495   5.457   6.080   3.887  0.7117 -0.2607  1.0923
 4694TIP3   OH235496   5.067   2.742   0.625 -0.1919 -0.4452 -0.5855
 4694TIP3    H135497   4.982   2.703   0.646 -1.1337  0.7242 -2.0144
 4694TIP3    H235498   5.059   2.833   0.654  0.9751 -0.5860  0.2172
 4695TIP3   OH235499   1.392   0.707   0.799 -0.4713 -0.6813 -0.0318
 4695TIP3    H135500   1.371   0.787   0.848 -0.3510 -0.1277 -0.8585
 4695TIP3    H235501   1.487   0.698   0.809 -0.3194 -0.0823 -0.8675
 4696TIP3   OH235502   4.523   5.858   3.497  0.2920  0.4361  0.1606
 4696TIP3    H135503   4.513   5.834   3.589  0.4918  0.9825  0.3247
 4696TIP3    H235504   4.566   5.782   3.457  2.6263  1.2075  1.0563
 4697TIP3   OH235505   5.437   3.017  12.962 -0.3918  0.1991  0.5582
 4697TIP3    H135506   5.352   3.060  12.961 -0.7444 -0.3905  2.1053
 4697TIP3    H235507   5.448   2.988  13.052 -0.1166 -2.8436 -0.3638
 4698TIP3   OH235508   6.130   3.238   4.915 -0.0134  0.0727  0.8218
 4698TIP3    H135509   6.184   3.317   4.919  0.4489 -0.1281 -0.7779
 4698TIP3    H235510   6.120   3.220   4.822 -1.0937 -1.1048  1.1299
 4699TIP3   OH235511   3.596   3.782   1.057  0.2904  0.0728 -0.2772
 4699TIP3    H135512   3.532   3.712   1.043  0.4027  0.4092 -3.0839
 4699TIP3    H235513   3.550   3.846   1.111 -0.6863 -1.0286  0.2429
 4700TIP3   OH235514   4.549   2.908   5.249 -0.0461  1.0655 -0.0485
 4700TIP3    H135515   4.644   2.911   5.248 -0.0321  0.5352 -0.7183
 4700TIP3    H235516   4.522   2.999   5.234  0.3634  1.0527 -0.9209
 4701TIP3   OH235517   3.934   6.740   0.767 -0.1548 -0.6681 -0.2721
 4701TIP3    H135518   3.887   6.822   0.751 -1.6397 -1.0994  1.5942
 4701TIP3    H235519   4.026   6.764   0.757 -0.5032  1.3962  0.7882
 4702TIP3   OH235520   0.178   6.348   4.001  0.4797  0.0771 -0.3161
 4702TIP3    H135521   0.087   6.317   4.006  0.8254 -0.8475  0.4201
 4702TIP3    H235522   0.225   6.277   3.958  1.0419  0.1214  0.2238
 4703TIP3   OH235523   4.220   0.780  14.342 -0.4963 -0.1327 -0.2588
 4703TIP3    H135524   4.255   0.702  14.384 -0.1613 -0.5786 -1.3260
 4703TIP3    H235525   4.280   0.850  14.367  1.3657 -0.9235 -2.2403
 4704TIP3   OH235526   1.758   3.588  12.468  0.2997 -0.4442  0.4223
 4704TIP3    H135527   1.745   3.508  12.518  2.3277 -0.8695  0.3522
 4704TIP3    H235528   1.738   3.659  12.530 -1.6776 -0.9691  0.4295
 4705TIP3   OH235529   6.615   1.731  11.135 -0.2657 -0.7180 -0.1201
 4705TIP3    H135530   6.628   1.650  11.085  0.4487 -1.5168  1.2692
 4705TIP3    H235531   6.700   1.747  11.177 -0.5785  0.4128  0.1010
 4706TIP3   OH235532   3.156   3.251  11.612  0.0482  0.2641  0.0404
 4706TIP3    H135533   3.224   3.318  11.622  1.4632 -0.8406 -1.6038
 4706TIP3    H235534   3.074   3.299  11.622  1.0236  2.0677 -0.1430
 4707TIP3   OH235535   3.704   3.111  11.021 -0.1392 -0.1500  0.3407
 4707TIP3    H135536   3.697   3.136  10.929 -2.1567 -0.1720  0.4364
 4707TIP3    H235537   3.638   3.165  11.065  0.9457  0.0176  1.8223
 4708TIP3   OH235538   4.492   6.804  15.551 -0.0513  0.1217 -0.1074
 4708TIP3    H135539   4.549   6.838  15.482  0.3100 -1.0231 -0.4035
 4708TIP3    H235540   4.538   6.727  15.584 -1.2069 -0.5628 -0.0349
 4709TIP3   OH235541   1.143   3.038   2.698  0.4357  0.1777 -0.1705
 4709TIP3    H135542   1.146   3.100   2.625 -2.2476  0.7218  0.0797
 4709TIP3    H235543   1.095   3.084   2.766 -0.5335 -1.7358  0.4950
 4710TIP3   OH235544   4.464   2.662  13.935  0.3287 -0.0897  0.4480
 4710TIP3    H135545   4.509   2.730  13.985 -1.1524  0.8140  0.6176
 4710TIP3    H235546   4.379   2.700  13.913  0.1629 -1.2079 -1.0603
 4711TIP3   OH235547   6.511   1.087  11.850  0.2437 -0.0336 -0.1753
 4711TIP3    H135548   6.440   1.117  11.907  1.4152  1.3081  0.6635
 4711TIP3    H235549   6.551   1.015  11.899  0.6285  0.4708  0.2782
 4712TIP3   OH235550   5.472   5.287   3.711  0.8017  0.0352  0.4810
 4712TIP3    H135551   5.401   5.339   3.750 -0.0441 -0.7729  0.0631
 4712TIP3    H235552   5.540   5.286   3.777  0.0927  0.1487  1.2277
 4713TIP3   OH235553   6.807   3.764  16.443 -0.4415  1.1393  0.6699
 4713TIP3    H135554   6.852   3.788  16.362  0.6289 -0.0057  0.8994
 4713TIP3    H235555   6.877   3.738  16.502 -1.4180 -2.3383  0.5022
 4714TIP3   OH235556   6.264   2.521  11.100 -0.4064 -0.5486  0.3440
 4714TIP3    H135557   6.281   2.452  11.036 -1.4022 -0.7059  0.2274
 4714TIP3    H235558   6.169   2.536  11.094 -0.2437  0.6536  0.5446
 4715TIP3   OH235559   0.456   5.890  11.701 -0.3576 -0.7594  0.0791
 4715TIP3    H135560   0.550   5.873  11.706 -0.2058  0.0358  0.0829
 4715TIP3    H235561   0.421   5.856  11.784 -0.1261 -1.3397 -0.0587
 4716TIP3   OH235562   5.118   1.186  11.833  0.2644  0.3205  0.3065
 4716TIP3    H135563   5.192   1.150  11.785  0.1196 -3.3689  2.5207
 4716TIP3    H235564   5.153   1.267  11.872  3.2842 -1.2882  1.3219
 4717TIP3   OH235565   6.229   0.732   1.860 -0.2952  0.6999  0.5369
 4717TIP3    H135566   6.143   0.772   1.848  0.2341  1.6305 -0.2960
 4717TIP3    H235567   6.286   0.776   1.796 -0.0541 -2.6403 -1.8386
 4718TIP3   OH235568   1.977   1.811  13.979 -0.1185 -0.3231 -0.0338
 4718TIP3    H135569   1.943   1.782  14.063 -1.9614  0.2587 -0.5497
 4718TIP3    H235570   2.069   1.830  13.997  0.0874 -2.2409  1.3303
 4719TIP3   OH235571   1.530   3.107   1.287 -0.7621 -0.2459 -0.1922
 4719TIP3    H135572   1.563   3.139   1.203  1.2434  0.7985  0.9226
 4719TIP3    H235573   1.606   3.071   1.332 -1.3476  0.9669  1.9509
 4720TIP3   OH235574   6.269   2.458   5.444 -0.7650 -0.8345 -0.0385
 4720TIP3    H135575   6.230   2.456   5.531 -0.1592  0.0291  0.2740
 4720TIP3    H235576   6.358   2.425   5.456 -0.0927  0.8754  0.0311
 4721TIP3   OH235577   6.245   5.830   0.864  0.2482  0.5471  0.3684
 4721TIP3    H135578   6.271   5.742   0.891 -0.3480  0.1969 -0.1739
 4721TIP3    H235579   6.313   5.857   0.803 -1.3385 -0.9664 -2.2267
 4722TIP3   OH235580   6.748   1.611   1.858 -0.2638 -0.1763  0.7405
 4722TIP3    H135581   6.699   1.600   1.940 -0.3144 -1.9048  0.5089
 4722TIP3    H235582   6.807   1.685   1.875 -2.1785  1.2703  1.3795
 4723TIP3   OH235583   1.787   0.344   1.788 -0.1099 -0.0041 -0.1756
 4723TIP3    H135584   1.710   0.398   1.770 -0.4175 -0.8895 -1.6917
 4723TIP3    H235585   1.855   0.406   1.815 -0.9241  0.9465 -0.2710
 4724TIP3   OH235586   5.024   0.745   2.133 -0.6194 -0.0177  0.3039
 4724TIP3    H135587   5.018   0.650   2.139  2.6086 -0.4025 -0.9901
 4724TIP3    H235588   5.002   0.765   2.042 -1.1157  0.4775  0.5260
 4725TIP3   OH235589   1.596   2.025   4.915  0.1490  0.1007 -0.1392
 4725TIP3    H135590   1.574   1.995   5.003  0.5690  1.1202  0.3245
 4725TIP3    H235591   1.520   2.078   4.889  0.4725  0.6539  0.0298
 4726TIP3   OH235592   4.153   6.789  11.703 -0.5272  0.2765 -0.0479
 4726TIP3    H135593   4.210   6.754  11.635 -1.5337 -1.3635 -0.1138
 4726TIP3    H235594   4.074   6.818  11.657 -0.3948  1.0795  0.2100
 4727TIP3   OH235595   0.388   5.454  16.094 -0.1436 -0.5922 -0.1824
 4727TIP3    H135596   0.387   5.528  16.033  3.5870 -1.5252 -1.6120
 4727TIP3    H235597   0.427   5.491  16.174 -0.6012 -0.4902  0.0009
 4728TIP3   OH235598   3.965   3.550  14.773 -0.7267  0.0573  0.1136
 4728TIP3    H135599   3.968   3.487  14.701  0.5369 -1.1840  1.1936
 4728TIP3    H235600   3.977   3.635  14.731 -0.2827 -0.6078 -1.1654
 4729TIP3   OH235601   5.010   0.155   1.447  0.6014  0.1584  0.0406
 4729TIP3    H135602   5.027   0.067   1.414  0.3956 -0.6942  2.0705
 4729TIP3    H235603   5.096   0.191   1.466  0.6782  0.3313 -0.6327
 4730TIP3   OH235604   1.921   4.417  14.480 -0.0027 -0.5738 -0.2119
 4730TIP3    H135605   1.844   4.453  14.524  0.6202  1.0652 -0.3590
 4730TIP3    H235606   1.979   4.391  14.552  0.3385  0.5871 -0.0323
 4731TIP3   OH235607   4.202   5.112   4.614 -0.5101  0.0894  0.3150
 4731TIP3    H135608   4.222   5.100   4.707 -2.2959 -1.1577  0.5839
 4731TIP3    H235609   4.264   5.055   4.568  0.2912  0.6088  0.7254
 4732TIP3   OH235610   3.004   5.355   0.505  0.0220 -0.2546 -0.2528
 4732TIP3    H135611   2.936   5.341   0.440 -0.3591 -2.3363  0.5350
 4732TIP3    H235612   2.984   5.294   0.575  1.4138  0.7005  1.0461
 4733TIP3   OH235613   3.376   5.392   2.254 -0.3806  0.6444 -0.5884
 4733TIP3    H135614   3.385   5.378   2.348 -0.6040  0.5198 -0.5873
 4733TIP3    H235615   3.434   5.326   2.215  0.0362  0.9676 -0.5287
 4734TIP3   OH235616   4.788   1.629   4.512  0.0899  0.2452  0.0830
 4734TIP3    H135617   4.858   1.568   4.536 -0.2070  0.2379  0.9878
 4734TIP3    H235618   4.796   1.639   4.417  1.1434  0.0409  0.1366
 4735TIP3   OH235619   3.587   3.980  14.447 -0.0505 -0.5271  0.5316
 4735TIP3    H135620   3.554   4.054  14.497 -2.7710 -0.1486 -1.5928
 4735TIP3    H235621   3.533   3.906  14.474  0.2508 -0.9226  0.0782
 4736TIP3   OH235622   5.692   5.163  11.072  0.3270  0.1305 -0.7004
 4736TIP3    H135623   5.617   5.111  11.041  0.9392 -0.9504 -0.4174
 4736TIP3    H235624   5.724   5.208  10.994 -0.8712  0.9689 -0.7483
 4737TIP3   OH235625   1.564   6.307   4.422  0.2168 -0.1566  0.0743
 4737TIP3    H135626   1.492   6.370   4.409 -0.5994 -0.4532  2.5517
 4737TIP3    H235627   1.541   6.233   4.366 -0.0041  0.7989 -1.1493
 4738TIP3   OH235628   3.294   6.605  12.234 -0.1245 -0.2076  0.5629
 4738TIP3    H135629   3.274   6.640  12.321 -2.2001 -0.2098  0.1481
 4738TIP3    H235630   3.324   6.515  12.251  1.1783  0.3499  1.3578
 4739TIP3   OH235631   1.819   2.543   5.811  0.0607 -0.0087  0.1108
 4739TIP3    H135632   1.763   2.466   5.813  0.3413 -0.2542 -0.8264
 4739TIP3    H235633   1.895   2.520   5.865 -0.1832 -0.1224  0.4049
 4740TIP3   OH235634   5.083   5.930  13.564 -0.0910  0.0778  0.1366
 4740TIP3    H135635   4.998   5.972  13.566 -0.0393  0.3951 -2.0114
 4740TIP3    H235636   5.065   5.838  13.584 -1.1438 -0.0963 -1.4468
 4741TIP3   OH235637   4.820   4.707   0.279 -0.4646  0.5855 -0.6154
 4741TIP3    H135638   4.875   4.628   0.282 -0.1708  0.8136  0.1952
 4741TIP3    H235639   4.861   4.767   0.341 -1.2415  1.0198 -0.5125
 4742TIP3   OH235640   0.648   2.837   3.675 -0.2072 -0.3630 -0.1467
 4742TIP3    H135641   0.715   2.780   3.637  0.5183 -0.0857  0.6809
 4742TIP3    H235642   0.576   2.778   3.697  0.2861 -0.8671  0.1342
 4743TIP3   OH235643   3.894   4.750  11.842  0.5171 -0.3567  0.1746
 4743TIP3    H135644   3.939   4.815  11.896  0.5353 -1.1558  1.1687
 4743TIP3    H235645   3.954   4.735  11.769  0.9021  0.1271  0.3798
 4744TIP3   OH235646   6.469   0.126   1.981 -0.6206 -0.1793 -0.5730
 4744TIP3    H135647   6.455   0.179   2.059 -2.2349  0.6517 -1.3815
 4744TIP3    H235648   6.562   0.138   1.960 -0.2661 -0.0627  0.9302
 4745TIP3   OH235649   1.490   3.322  16.510 -0.2767 -0.4582  0.4545
 4745TIP3    H135650   1.473   3.410  16.475  1.6090 -0.1936  0.0912
 4745TIP3    H235651   1.468   3.328  16.603  1.0732  0.8072  0.7282
 4746TIP3   OH235652   5.676   1.484  14.748  0.3917 -0.5296  0.0892
 4746TIP3    H135653   5.652   1.550  14.683 -1.0201  0.0655  1.1654
 4746TIP3    H235654   5.619   1.502  14.823  0.7396 -2.2997  0.8276
 4747TIP3   OH235655   0.673   3.056  13.106 -0.6388  0.0024  0.5569
 4747TIP3    H135656   0.618   3.048  13.184 -1.0556  0.8718  0.3579
 4747TIP3    H235657   0.718   2.972  13.101 -0.9553 -0.2405  1.4694
 4748TIP3   OH235658   4.016   0.925   6.256 -1.1262 -0.1718 -0.1184
 4748TIP3    H135659   4.043   1.017   6.246 -1.4742  0.0906  1.2009
 4748TIP3    H235660   4.077   0.889   6.320 -0.7219 -1.0036 -0.9494
 4749TIP3   OH235661   5.992   5.299   2.610 -0.3096  0.5120 -0.0541
 4749TIP3    H135662   5.941   5.242   2.552  0.8489 -0.8858  0.2493
 4749TIP3    H235663   5.999   5.382   2.562 -0.4651 -0.1876 -1.3322
 4750TIP3   OH235664   3.061   5.992   5.758  0.5728  0.5123  0.2241
 4750TIP3    H135665   3.097   6.081   5.760 -1.2791  1.2822  0.6731
 4750TIP3    H235666   3.083   5.955   5.843 -0.1745  1.1764  0.7134
 4751TIP3   OH235667   6.015   2.423  13.438  0.0570  0.3001 -0.3108
 4751TIP3    H135668   6.043   2.505  13.397  0.2061 -0.1630 -1.1441
 4751TIP3    H235669   6.081   2.406  13.505  1.3190 -0.3225 -1.6705
 4752TIP3   OH235670   5.360   1.414  16.874 -0.0107 -0.0190  0.1115
 4752TIP3    H135671   5.398   1.424  16.962  3.2549 -1.7106 -0.9265
 4752TIP3    H235672   5.333   1.322  16.870 -1.9394  0.5148 -0.1000
 4753TIP3   OH235673   4.858   6.540  15.654 -0.0408  0.5445  0.6599
 4753TIP3    H135674   4.860   6.514  15.745 -0.8265  3.6787  1.7224
 4753TIP3    H235675   4.767   6.526  15.627  0.5568 -1.9949 -0.2743
 4754TIP3   OH235676   1.392   3.146  11.333  0.3915  0.2841  0.1209
 4754TIP3    H135677   1.443   3.104  11.263  0.7309 -1.9324  1.6096
 4754TIP3    H235678   1.437   3.230  11.347  0.4227  0.7112 -2.1381
 4755TIP3   OH235679   3.587   4.768   3.084  0.1744 -0.5985 -0.3481
 4755TIP3    H135680   3.524   4.808   3.145  1.1843  0.3334  0.1215
 4755TIP3    H235681   3.621   4.841   3.033 -0.4424 -1.3352 -1.8709
 4756TIP3   OH235682   3.520   4.489   3.105 -0.2428 -0.2401  0.1449
 4756TIP3    H135683   3.477   4.488   3.020 -2.4376  1.4252  1.1427
 4756TIP3    H235684   3.566   4.573   3.108  0.4770 -0.6309  0.3179
 4757TIP3   OH235685   2.437   6.364  10.738 -0.3178  0.1443  0.2188
 4757TIP3    H135686   2.503   6.380  10.670  0.9743 -0.7775  1.2021
 4757TIP3    H235687   2.487   6.360  10.819 -1.7860  0.7882  1.1879
 4758TIP3   OH235688   1.947   4.986   4.046  0.1742  0.2376  0.8697
 4758TIP3    H135689   2.028   4.986   3.996 -0.3950  0.3905 -0.0644
 4758TIP3    H235690   1.962   4.920   4.114  0.6395 -0.6138 -0.0280
 4759TIP3   OH235691   5.292   5.387   5.814 -0.4932  0.5107 -0.3200
 4759TIP3    H135692   5.385   5.379   5.796 -0.7493  0.8948 -1.9932
 4759TIP3    H235693   5.258   5.298   5.803 -0.0586 -0.0510  2.2947
 4760TIP3   OH235694   6.408   1.876  11.039 -0.9929 -0.5989  0.3002
 4760TIP3    H135695   6.372   1.835  10.961 -0.4860  0.2406 -0.3959
 4760TIP3    H235696   6.486   1.824  11.060 -2.0206 -1.7982  1.2115
 4761TIP3   OH235697   4.358   3.988   3.825  0.2390 -0.3113  0.4529
 4761TIP3    H135698   4.335   3.938   3.904 -0.6139 -0.2634  0.2492
 4761TIP3    H235699   4.395   3.923   3.765  1.4019 -0.2512  1.0825
 4762TIP3   OH235700   5.824   2.568  14.164 -0.8638 -0.1433  0.6554
 4762TIP3    H135701   5.896   2.560  14.226 -0.9875 -1.8566  0.6147
 4762TIP3    H235702   5.748   2.533  14.210 -1.0594 -0.9741 -0.2700
 4763TIP3   OH235703   3.093   4.548  11.894  0.0956 -0.2324  0.4552
 4763TIP3    H135704   3.137   4.566  11.812  1.3893 -1.2684  0.8948
 4763TIP3    H235705   3.009   4.509  11.869  0.6097 -0.8099 -0.3587
 4764TIP3   OH235706   3.599   2.097  16.412 -0.1382  0.6150 -0.7828
 4764TIP3    H135707   3.616   2.043  16.335  0.8169 -0.2740  0.0194
 4764TIP3    H235708   3.686   2.122  16.443 -0.3778 -0.8535  1.2469
 4765TIP3   OH235709   2.510   2.983   6.940  0.5246 -0.2011  0.0689
 4765TIP3    H135710   2.569   2.917   6.904 -0.2584 -0.2836 -1.0892
 4765TIP3    H235711   2.425   2.939   6.946  0.1715  0.4692  0.0148
 4766TIP3   OH235712   0.899   5.704   0.193 -0.2004  0.2978 -0.1663
 4766TIP3    H135713   0.943   5.735   0.114  0.7320  2.2958  1.0594
 4766TIP3    H235714   0.951   5.628   0.220  0.1434  0.2772 -0.8556
 4767TIP3   OH235715   3.318   6.726  16.349 -0.3667 -0.3320  0.1947
 4767TIP3    H135716   3.312   6.657  16.416  0.5972 -0.1658  0.4605
 4767TIP3    H235717   3.409   6.753  16.350 -0.5627  0.3951 -0.4804
 4768TIP3   OH235718   5.522   2.784   5.681 -0.2251 -0.2856 -0.3835
 4768TIP3    H135719   5.548   2.725   5.611 -1.2498  0.5403 -1.4886
 4768TIP3    H235720   5.577   2.861   5.668 -1.4288  0.4632 -1.2103
 4769TIP3   OH235721   6.454   2.418   5.894  0.4547 -0.7353  0.1800
 4769TIP3    H135722   6.545   2.431   5.920  0.3704 -0.3636  0.2994
 4769TIP3    H235723   6.424   2.344   5.947  0.6980 -0.8796  0.1137
 4770TIP3   OH235724   6.506   1.689  14.295 -0.6835 -0.2446  0.2154
 4770TIP3    H135725   6.413   1.681  14.318 -1.2844 -1.0004 -2.2078
 4770TIP3    H235726   6.551   1.634  14.359 -1.8700  0.1313  1.4407
 4771TIP3   OH235727   3.850   3.224  12.620  0.3476 -0.7692  0.0183
 4771TIP3    H135728   3.929   3.227  12.565 -0.1095 -1.3933 -0.6973
 4771TIP3    H235729   3.795   3.158  12.578  0.1244 -1.5212  1.4349
 4772TIP3   OH235730   0.024   4.484  16.826 -0.5642  0.1720  0.6787
 4772TIP3    H135731   0.028   4.395  16.792  0.2121  0.5644 -0.3181
 4772TIP3    H235732  -0.051   4.524  16.782  0.0461  0.4791 -0.1130
 4773TIP3   OH235733   1.283   4.987  14.064  0.1162 -0.2587  0.5023
 4773TIP3    H135734   1.278   4.980  14.159 -0.6052 -3.4530  0.3184
 4773TIP3    H235735   1.376   4.989  14.045  0.2729 -0.4318  1.2214
 4774TIP3   OH235736   1.128   0.761   3.989  0.5038 -0.1169  0.1375
 4774TIP3    H135737   1.156   0.844   3.951 -0.9589  0.3997  0.1344
 4774TIP3    H235738   1.126   0.700   3.915 -4.6147  1.4255 -1.4377
 4775TIP3   OH235739   2.620   3.736   0.491  0.3124 -0.0510 -0.3180
 4775TIP3    H135740   2.598   3.694   0.574 -3.7649 -1.4019 -1.8408
 4775TIP3    H235741   2.679   3.673   0.448  0.3527 -0.5866  0.4907
 4776TIP3   OH235742   0.511   4.802   1.359 -0.3353 -0.5376  0.0961
 4776TIP3    H135743   0.465   4.804   1.443  1.9862  0.0060  1.4279
 4776TIP3    H235744   0.554   4.717   1.357  0.8494  0.0433  0.1802
 4777TIP3   OH235745   4.835   3.966  16.428 -0.0713  0.5146 -0.8364
 4777TIP3    H135746   4.761   3.921  16.467 -0.8199  2.1908 -0.2091
 4777TIP3    H235747   4.910   3.938  16.480 -0.3978 -0.4783 -0.8808
 4778TIP3   OH235748   0.366   0.515   1.758  0.4092 -0.1092 -0.0463
 4778TIP3    H135749   0.405   0.433   1.727 -1.3081 -0.6417 -0.9485
 4778TIP3    H235750   0.295   0.488   1.816  0.4070  0.7652  0.3763
 4779TIP3   OH235751   2.355   4.593  15.890 -0.1167  0.8201 -0.0524
 4779TIP3    H135752   2.319   4.674  15.856 -2.3971 -0.0026  0.2276
 4779TIP3    H235753   2.357   4.605  15.984 -0.0401  0.7052 -0.0390
 4780TIP3   OH235754   5.647   3.054   5.164  0.0206  0.2692 -0.0523
 4780TIP3    H135755   5.694   3.016   5.090 -0.9065 -0.0434 -0.5006
 4780TIP3    H235756   5.572   2.995   5.177 -0.5378  1.0409  0.2876
 4781TIP3   OH235757   5.462   4.676   5.349 -0.4489 -0.0660 -0.0600
 4781TIP3    H135758   5.509   4.657   5.268 -1.3155  0.9267 -0.8210
 4781TIP3    H235759   5.521   4.646   5.418  0.2055 -1.1523 -1.0475
 4782TIP3   OH235760   2.953   3.675  12.121 -0.5072 -0.3239 -0.2663
 4782TIP3    H135761   2.891   3.702  12.188  0.2340  0.4449  0.1175
 4782TIP3    H235762   3.034   3.721  12.141  0.0925 -1.0071 -0.9849
 4783TIP3   OH235763   4.414   1.180   0.578 -0.2051  0.0409  0.2662
 4783TIP3    H135764   4.376   1.202   0.663  1.2785 -0.2979  1.0726
 4783TIP3    H235765   4.355   1.115   0.541 -0.5219 -0.3168  1.3629
 4784TIP3   OH235766   0.819   0.514   3.226  0.4239 -0.0816 -0.1795
 4784TIP3    H135767   0.744   0.465   3.192  0.2807  0.2798 -0.3913
 4784TIP3    H235768   0.896   0.464   3.196  0.2653 -0.7540  0.4992
 4785TIP3   OH235769   5.023   0.218   0.204 -0.0459 -0.7632 -0.5023
 4785TIP3    H135770   4.965   0.197   0.277  1.4916  2.8288  2.1117
 4785TIP3    H235771   4.987   0.299   0.167  2.7568  1.2904  0.8830
 4786TIP3   OH235772   6.535   6.576   1.175  0.5476 -0.4212  0.1179
 4786TIP3    H135773   6.515   6.523   1.098  3.8995 -1.0057 -0.5159
 4786TIP3    H235774   6.537   6.513   1.247 -1.0009 -0.1363  0.4457
 4787TIP3   OH235775   4.686   1.183  11.621  0.1887  0.1445  0.6943
 4787TIP3    H135776   4.668   1.175  11.715 -0.5683 -0.0155  0.5372
 4787TIP3    H235777   4.754   1.250  11.616 -1.2351  1.6957  1.2068
 4788TIP3   OH235778   2.686   5.714  12.397  0.3667 -0.2675 -0.4646
 4788TIP3    H135779   2.638   5.659  12.459  1.4212 -1.6926 -0.8558
 4788TIP3    H235780   2.619   5.766  12.354 -0.4740  0.1638  1.2739
 4789TIP3   OH235781   1.528   5.374   5.621 -0.6126 -0.8547 -0.2962
 4789TIP3    H135782   1.481   5.457   5.632 -1.1815 -0.9016 -2.0483
 4789TIP3    H235783   1.459   5.310   5.602 -0.1499 -1.6775  0.7454
 4790TIP3   OH235784   0.909   0.287  11.218 -0.3303  0.3380  0.2829
 4790TIP3    H135785   0.932   0.308  11.128 -0.9911  1.4985  0.3643
 4790TIP3    H235786   0.901   0.372  11.261 -0.4900 -0.1876  1.3115
 4791TIP3   OH235787   4.704   1.832   3.281  0.0174  0.4580  0.3164
 4791TIP3    H135788   4.759   1.768   3.236 -1.5114 -0.1033 -0.8666
 4791TIP3    H235789   4.665   1.884   3.211 -2.2620 -0.2958  0.9200
 4792TIP3   OH235790   1.011   0.509   4.901 -0.0400 -0.3998 -0.8576
 4792TIP3    H135791   0.966   0.591   4.923 -0.4858 -0.5421 -1.2346
 4792TIP3    H235792   0.942   0.444   4.895  0.3575 -0.8935 -0.1789
 4793TIP3   OH235793   6.010   1.676  12.650 -0.0098  0.0502  0.3609
 4793TIP3    H135794   5.972   1.734  12.584 -0.1327  0.6235  0.9285
 4793TIP3    H235795   5.936   1.647  12.702  0.0425 -0.6897  0.0320
 4794TIP3   OH235796   6.451   5.539  13.611  0.0623 -0.1538  0.2641
 4794TIP3    H135797   6.489   5.522  13.697  1.7694  1.1066 -0.1818
 4794TIP3    H235798   6.524   5.574  13.560 -1.4743  1.3875 -0.9748
 4795TIP3   OH235799   0.081   1.770  11.706  0.0581 -0.2674  0.9364
 4795TIP3    H135800  -0.012   1.789  11.718  0.3015  1.1008  0.8212
 4795TIP3    H235801   0.095   1.782  11.612  0.2228 -1.1418  0.8402
 4796TIP3   OH235802   1.055   1.491   1.546  0.0364 -0.2539 -0.0857
 4796TIP3    H135803   1.107   1.504   1.625  0.0798 -0.9497  0.0139
 4796TIP3    H235804   1.003   1.570   1.538  0.4378  0.0574  0.3334
 4797TIP3   OH235805   1.780   2.413   2.277 -0.7934 -0.1760 -0.1921
 4797TIP3    H135806   1.783   2.438   2.369 -1.5472  0.5485 -0.3488
 4797TIP3    H235807   1.747   2.322   2.278 -1.4794  0.0668  0.2258
 4798TIP3   OH235808   4.280   5.860   2.273 -0.4357  0.1626  0.1886
 4798TIP3    H135809   4.287   5.817   2.188 -1.2372  1.5872 -0.6413
 4798TIP3    H235810   4.360   5.834   2.320 -0.4687 -1.4577 -0.5959
 4799TIP3   OH235811   3.472   2.739  16.620 -0.2019 -0.0157 -0.2420
 4799TIP3    H135812   3.493   2.661  16.673  0.5176  0.0971 -0.3462
 4799TIP3    H235813   3.514   2.723  16.536  1.7911  1.3803  0.3958
 4800TIP3   OH235814   3.175   3.059  13.917  0.2801 -0.0948  0.0708
 4800TIP3    H135815   3.119   3.134  13.934  0.5394  0.7408 -2.3803
 4800TIP3    H235816   3.243   3.092  13.858  1.3908 -1.8670  0.2828
 4801TIP3   OH235817   4.453   5.230  13.446  0.1422  0.5816  0.4558
 4801TIP3    H135818   4.509   5.225  13.524 -0.3201 -1.9219  0.7360
 4801TIP3    H235819   4.364   5.217  13.480 -0.0399 -0.8236 -0.4793
 4802TIP3   OH235820   6.561   4.827   1.018 -0.8893 -0.0621  0.2052
 4802TIP3    H135821   6.559   4.735   0.992 -2.1163 -0.6372  2.1436
 4802TIP3    H235822   6.482   4.839   1.069 -0.3364  1.8796  0.6808
 4803TIP3   OH235823   0.474   2.075  12.241 -0.3431 -0.0273  0.4226
 4803TIP3    H135824   0.538   2.145  12.228 -0.2122  0.0074  1.1991
 4803TIP3    H235825   0.406   2.092  12.175 -0.9171  1.5479  1.3477
 4804TIP3   OH235826   4.880   1.633   4.979  0.0065  0.0212  0.1531
 4804TIP3    H135827   4.945   1.630   4.909 -1.3299  1.2380 -1.2042
 4804TIP3    H235828   4.809   1.576   4.949 -1.3490  1.8832 -0.3631
 4805TIP3   OH235829   6.613   2.020  14.725  0.1766  0.2024  0.0601
 4805TIP3    H135830   6.657   1.944  14.687  0.3151 -0.3389  1.2279
 4805TIP3    H235831   6.598   1.994  14.816 -1.6842  0.7608 -0.0524
 4806TIP3   OH235832   5.088   4.489   0.512 -0.1485 -0.8290  0.0605
 4806TIP3    H135833   5.008   4.517   0.556  0.4961 -1.5524  1.7954
 4806TIP3    H235834   5.158   4.534   0.558  0.7803 -3.7555  1.8137
 4807TIP3   OH235835   3.162   3.928  10.949  0.0284  0.4449  0.3320
 4807TIP3    H135836   3.162   4.022  10.967  0.1186  0.4547  0.2841
 4807TIP3    H235837   3.176   3.922  10.854  2.3819  0.3440  0.6052
 4808TIP3   OH235838   1.190   6.699  12.645 -0.0450  0.7376  0.1592
 4808TIP3    H135839   1.146   6.763  12.701 -1.0272  0.9950 -0.8719
 4808TIP3    H235840   1.243   6.647  12.706 -2.5683 -0.2794  1.6630
 4809TIP3   OH235841   0.667   5.177   4.402 -0.5461  0.2916  0.2566
 4809TIP3    H135842   0.582   5.168   4.360 -0.2511 -1.2984 -0.0405
 4809TIP3    H235843   0.687   5.090   4.437  0.4723  0.8981  1.2705
 4810TIP3   OH235844   5.092   4.300  13.120  0.3421 -0.1104  0.3909
 4810TIP3    H135845   5.031   4.226  13.111 -1.0734  0.5865  3.0578
 4810TIP3    H235846   5.036   4.377  13.116  1.2597  0.6287  1.3192
 4811TIP3   OH235847   0.100   5.701   4.619  0.4121 -0.1065 -0.5010
 4811TIP3    H135848   0.118   5.779   4.671 -1.7098  0.5699 -0.7147
 4811TIP3    H235849   0.044   5.647   4.674 -0.2555 -0.2798 -1.3303
 4812TIP3   OH235850   6.758   3.698   5.280 -0.1100  0.1411 -0.3703
 4812TIP3    H135851   6.696   3.673   5.212  0.1216  1.2614 -1.0171
 4812TIP3    H235852   6.706   3.750   5.341 -0.6905 -2.1271  1.1922
 4813TIP3   OH235853   0.350   3.729   1.081 -0.3186 -0.1870  0.0031
 4813TIP3    H135854   0.356   3.639   1.049 -0.2952 -0.3043  0.3305
 4813TIP3    H235855   0.389   3.726   1.169  1.3507  0.4953 -0.6750
 4814TIP3   OH235856   6.350   1.705  12.908  0.5697 -0.2432  0.1042
 4814TIP3    H135857   6.289   1.721  12.980  1.9102 -0.8516  1.4314
 4814TIP3    H235858   6.369   1.612  12.913  2.4975  0.1354  0.5066
 4815TIP3   OH235859   1.207   2.500   1.553  0.0170 -0.1882 -0.0816
 4815TIP3    H135860   1.186   2.407   1.541  0.2180 -0.2999  0.3949
 4815TIP3    H235861   1.298   2.508   1.523  0.2274 -0.2907  0.5011
 4816TIP3   OH235862   0.559   0.711   1.766 -0.6084  0.0465 -0.1152
 4816TIP3    H135863   0.560   0.693   1.860  0.3190  1.0346  0.0798
 4816TIP3    H235864   0.486   0.659   1.732 -3.1105  2.1388  1.6510
 4817TIP3   OH235865   4.381   1.054   3.794 -0.1932 -0.1464 -0.4562
 4817TIP3    H135866   4.354   1.121   3.731  0.2020  1.0197  0.5821
 4817TIP3    H235867   4.472   1.077   3.815 -1.0157  0.9130  2.2841
 4818TIP3   OH235868   2.488   5.745  10.550 -0.4008 -0.1813  0.0362
 4818TIP3    H135869   2.506   5.651  10.560  0.9818  0.0286 -0.2247
 4818TIP3    H235870   2.452   5.753  10.461  0.4670 -0.3506 -0.3406
 4819TIP3   OH235871   4.006   5.335  12.471 -0.3905 -0.2331 -0.3487
 4819TIP3    H135872   3.955   5.258  12.446 -1.8660  0.3744  0.6280
 4819TIP3    H235873   4.000   5.393  12.396  0.4411 -0.9100 -0.9560
 4820TIP3   OH235874   1.024   3.583  13.785  0.3873 -0.1580  0.3545
 4820TIP3    H135875   0.965   3.611  13.715  1.1818  1.0819  0.1553
 4820TIP3    H235876   1.105   3.560  13.740  1.2126  1.5202  0.9148
 4821TIP3   OH235877   4.776   4.872   1.880 -0.6555 -0.5632 -0.2355
 4821TIP3    H135878   4.843   4.804   1.886 -2.2782 -2.3225 -0.9342
 4821TIP3    H235879   4.763   4.900   1.971 -0.6040 -1.8879  0.2103
 4822TIP3   OH235880   4.955   5.780  15.595 -0.4659 -0.0642  0.0536
 4822TIP3    H135881   5.045   5.751  15.607 -0.7269 -0.7709  0.3882
 4822TIP3    H235882   4.917   5.778  15.683 -1.3262 -1.5875 -0.3111
 4823TIP3   OH235883   0.315   3.862   4.030 -0.6206  0.2506 -0.6336
 4823TIP3    H135884   0.391   3.861   4.088 -1.9301  0.3599  1.2000
 4823TIP3    H235885   0.317   3.776   3.987 -0.1291 -0.2274  0.3120
 4824TIP3   OH235886   5.206   3.071   5.945  0.1269 -0.0564 -0.2166
 4824TIP3    H135887   5.176   2.980   5.942  0.6040 -0.2576  0.7913
 4824TIP3    H235888   5.275   3.071   6.012  0.4421  0.9553 -0.5348
 4825TIP3   OH235889   0.326   3.144  10.195  0.2789 -0.4649  0.2665
 4825TIP3    H135890   0.314   3.214  10.131  1.0069  0.0492  0.6787
 4825TIP3    H235891   0.240   3.104  10.203 -0.0925  0.2276 -0.1575
 4826TIP3   OH235892   4.531   3.177   5.223  0.4053 -0.0847 -0.3941
 4826TIP3    H135893   4.495   3.262   5.246  1.2575  0.3692 -0.7099
 4826TIP3    H235894   4.572   3.191   5.137 -0.5787 -1.1295 -1.0773
 4827TIP3   OH235895   3.457   2.566  10.288  0.4724 -0.2118 -0.1604
 4827TIP3    H135896   3.442   2.511  10.212  1.0188 -0.1910 -0.2850
 4827TIP3    H235897   3.494   2.647  10.253  1.2306 -0.4110  0.1739
 4828TIP3   OH235898   4.589   3.784   5.577 -0.1318  0.6741 -0.7198
 4828TIP3    H135899   4.606   3.846   5.649 -0.8004  0.6493 -0.5251
 4828TIP3    H235900   4.589   3.698   5.619 -3.5980  0.8403 -0.0756
 4829TIP3   OH235901   3.722   0.136  14.606 -0.0280 -0.0926 -0.3475
 4829TIP3    H135902   3.633   0.111  14.581 -0.7475  0.3989  1.4965
 4829TIP3    H235903   3.775   0.120  14.528 -2.2699  2.6138 -2.6494
 4830TIP3   OH235904   1.778   0.212   4.515  0.4320  0.1912 -0.6200
 4830TIP3    H135905   1.847   0.252   4.569 -0.7837 -0.3979  1.4835
 4830TIP3    H235906   1.705   0.273   4.520 -0.6319 -1.1170  0.7052
 4831TIP3   OH235907   2.247   0.377   4.226 -0.4876  0.0223  0.0763
 4831TIP3    H135908   2.278   0.444   4.288 -1.6368 -0.0688  0.7670
 4831TIP3    H235909   2.174   0.418   4.181  0.1462 -0.0292 -1.0282
 4832TIP3   OH235910   4.599   4.844   5.815  0.0012  0.0776 -0.0737
 4832TIP3    H135911   4.525   4.841   5.754 -1.2603  1.3783  1.3062
 4832TIP3    H235912   4.636   4.932   5.803  1.5735 -0.6847 -0.9975
 4833TIP3   OH235913   3.947   4.576  10.925 -0.2327 -0.2375 -0.5086
 4833TIP3    H135914   3.933   4.666  10.895 -0.0061 -0.6873 -2.1064
 4833TIP3    H235915   3.895   4.569  11.005  1.1842  1.8231  0.6894
 4834TIP3   OH235916   2.116   1.085   1.546  0.4933  0.5615  0.4690
 4834TIP3    H135917   2.069   1.047   1.471  1.2570 -0.2059  0.3606
 4834TIP3    H235918   2.180   1.018   1.570 -0.0208  0.6154  2.0900
 4835TIP3   OH235919   2.619   6.372  13.535 -0.4437 -0.8099 -0.1778
 4835TIP3    H135920   2.577   6.427  13.469 -0.7153 -0.7730  0.0207
 4835TIP3    H235921   2.565   6.385  13.614  1.1448  0.9521  0.7242
 4836TIP3   OH235922   0.113   2.715  11.652 -0.3533 -0.2992  0.4680
 4836TIP3    H135923   0.145   2.768  11.579 -1.1334 -2.3039 -1.4621
 4836TIP3    H235924   0.191   2.678  11.692  0.0724  0.4806  0.3637
 4837TIP3   OH235925   1.225   3.869   1.019  0.0071  0.3203  0.2587
 4837TIP3    H135926   1.171   3.918   1.082  0.2095  0.2929  0.4548
 4837TIP3    H235927   1.178   3.878   0.936 -0.7455 -0.4003  0.5919
 4838TIP3   OH235928   6.576   5.138   1.320 -0.5037 -0.1552  0.2203
 4838TIP3    H135929   6.661   5.130   1.276 -0.7209 -1.0718 -0.0650
 4838TIP3    H235930   6.560   5.232   1.326  0.1911  0.0073 -0.3970
 4839TIP3   OH235931   0.534   5.718  13.410  0.2342 -0.1413  0.0634
 4839TIP3    H135932   0.583   5.659  13.467  1.1109 -1.5897 -2.0697
 4839TIP3    H235933   0.555   5.805  13.442  3.4813 -0.7302 -0.1166
 4840TIP3   OH235934   1.206   2.144   3.933 -0.0814 -0.0537  0.5442
 4840TIP3    H135935   1.204   2.239   3.923 -1.7769 -0.1522 -0.6178
 4840TIP3    H235936   1.126   2.114   3.889 -0.2039 -1.9268  1.9211
 4841TIP3   OH235937   2.972   2.115  13.625  0.1964 -0.0418  0.7047
 4841TIP3    H135938   2.885   2.100  13.661 -0.7038  1.2218 -0.8119
 4841TIP3    H235939   3.002   2.029  13.597 -0.0770 -0.6652  2.2541
 4842TIP3   OH235940   2.355   0.281   6.163  0.4072 -0.1300  0.0836
 4842TIP3    H135941   2.339   0.375   6.175  0.1878 -0.2857  1.1284
 4842TIP3    H235942   2.295   0.239   6.225  1.2558 -0.9219  0.3899
 4843TIP3   OH235943   3.045   3.878   5.346  0.0613 -0.5767 -0.4007
 4843TIP3    H135944   2.969   3.921   5.386 -0.0107 -1.9639  1.0531
 4843TIP3    H235945   3.010   3.841   5.264 -0.7250 -0.8092  0.0253
 4844TIP3   OH235946   3.500   3.270   6.473 -0.0161 -0.3239 -0.3249
 4844TIP3    H135947   3.508   3.180   6.504 -0.7629 -1.1921 -2.4663
 4844TIP3    H235948   3.438   3.265   6.400 -0.9479  2.1141  0.1943
 4845TIP3   OH235949   2.977   6.796  14.243  0.7065 -0.5770  0.1197
 4845TIP3    H135950   3.007   6.706  14.259  2.8891  0.2915  1.2822
 4845TIP3    H235951   2.902   6.807  14.301 -0.1215 -1.8712 -0.6443
 4846TIP3   OH235952   3.111   3.986   5.055 -0.2317  0.5958 -0.1320
 4846TIP3    H135953   3.085   3.895   5.041  0.7978  0.1865  0.4444
 4846TIP3    H235954   3.200   3.980   5.090  0.5870  1.8947 -1.8522
 4847TIP3   OH235955   0.850   5.899   0.389  0.0427 -0.2856  0.4692
 4847TIP3    H135956   0.757   5.912   0.406 -0.3131  1.8907 -2.4072
 4847TIP3    H235957   0.852   5.831   0.321  0.8193 -2.3057  2.3942
 4848TIP3   OH235958   4.139   5.088  14.218  0.4494  0.2216  0.3179
 4848TIP3    H135959   4.190   5.131  14.287  0.9635  0.5611 -0.2607
 4848TIP3    H235960   4.126   4.999  14.250  4.1608 -0.9167 -0.8320
 4849TIP3   OH235961   2.812   5.460  14.722  0.2896 -0.0143 -0.2045
 4849TIP3    H135962   2.810   5.407  14.801  2.6732 -0.5211 -0.4255
 4849TIP3    H235963   2.719   5.477  14.703 -0.4105 -1.3620  1.6576
 4850TIP3   OH235964   3.387   2.902  13.734 -0.9153 -0.7488 -0.0821
 4850TIP3    H135965   3.432   2.981  13.705  0.7932 -1.4085  0.6276
 4850TIP3    H235966   3.450   2.831  13.717 -1.9052 -1.7907  0.4510
 4851TIP3   OH235967   3.232   6.705  11.307  0.6199  0.3340 -0.4442
 4851TIP3    H135968   3.186   6.625  11.283  0.4538  0.1819  0.3608
 4851TIP3    H235969   3.163   6.771  11.316  0.6548  0.3345 -0.1688
 4852TIP3   OH235970   2.767   0.222   3.819  0.3685 -0.7287 -0.5462
 4852TIP3    H135971   2.804   0.276   3.749 -0.1936 -0.1730 -0.4291
 4852TIP3    H235972   2.704   0.165   3.775 -1.5807  1.0955 -0.2651
 4853TIP3   OH235973   5.758   6.234  14.000  0.3225  0.0477 -0.1986
 4853TIP3    H135974   5.847   6.201  13.991  0.0406 -0.7041 -0.3296
 4853TIP3    H235975   5.708   6.186  13.933 -0.4024 -0.3585  0.6186
 4854TIP3   OH235976   4.225   0.402  12.272  0.0082 -0.2928 -0.1348
 4854TIP3    H135977   4.307   0.382  12.227  1.9987 -1.6870  3.6430
 4854TIP3    H235978   4.185   0.316  12.289  0.9375 -0.1937  3.2100
 4855TIP3   OH235979   2.398   2.791   1.285  0.0778 -0.1476 -0.2092
 4855TIP3    H135980   2.338   2.746   1.225  1.3495  0.1058 -1.7370
 4855TIP3    H235981   2.403   2.733   1.361  1.4810 -2.5952 -2.0107
 4856TIP3   OH235982   0.849   5.461  13.775 -0.5385  0.5943  0.0848
 4856TIP3    H135983   0.904   5.429  13.703 -2.1559  0.4992 -1.1564
 4856TIP3    H235984   0.786   5.390  13.789 -1.9956  1.7746 -0.3338
 4857TIP3   OH235985   1.839   1.635   0.041  0.0133  0.4058 -0.1831
 4857TIP3    H135986   1.873   1.632  -0.048 -0.1328 -2.3882 -0.2362
 4857TIP3    H235987   1.915   1.621   0.097 -0.3873 -1.7418 -0.1092
 4858TIP3   OH235988   2.877   1.265  10.938 -0.1345 -0.0017 -0.1379
 4858TIP3    H135989   2.818   1.223  11.001 -0.0686 -1.1127 -0.7923
 4858TIP3    H235990   2.893   1.198  10.871  2.8712 -0.1962  0.6353
 4859TIP3   OH235991   2.656   4.611   1.956  0.0186 -0.1442 -0.1501
 4859TIP3    H135992   2.738   4.564   1.967  0.7275  0.9414 -0.6734
 4859TIP3    H235993   2.681   4.697   1.921 -1.3666  0.0533 -0.7317
 4860TIP3   OH235994   5.591   6.521  17.027 -0.1810 -0.0338  0.4235
 4860TIP3    H135995   5.597   6.473  17.109  0.9528  1.2379  1.1336
 4860TIP3    H235996   5.501   6.555  17.025 -0.7750 -1.5370  0.2404
 4861TIP3   OH235997   3.215   5.687  10.867  0.0093  0.0049 -0.0004
 4861TIP3    H135998   3.227   5.759  10.928  1.0791  1.5495 -1.9329
 4861TIP3    H235999   3.223   5.727  10.781  0.3795 -2.3883 -1.1563
 4862TIP3   OH236000   0.993   5.117  14.547 -0.4763 -1.0038  0.0147
 4862TIP3    H136001   1.087   5.103  14.536  0.0412  1.4169  0.6648
 4862TIP3    H236002   0.956   5.098  14.461  0.5699 -2.1306 -0.2143
 4863TIP3   OH236003   5.342   3.777  11.944  0.1895 -0.2043 -0.0757
 4863TIP3    H136004   5.308   3.775  12.034 -0.0482  0.5586 -0.1437
 4863TIP3    H236005   5.416   3.716  11.946 -0.9538 -1.6626  0.1514
 4864TIP3   OH236006   0.707   1.211   5.919  0.0411  0.0118  0.3160
 4864TIP3    H136007   0.644   1.233   5.987 -0.9938  0.4003 -0.7369
 4864TIP3    H236008   0.654   1.183   5.845  1.1030  0.4891 -0.6505
 4865TIP3   OH236009   2.414   1.881   4.551  0.6878 -0.5328  0.5152
 4865TIP3    H136010   2.331   1.875   4.597  1.0543 -0.9133  1.1494
 4865TIP3    H236011   2.416   1.969   4.515 -0.8610 -1.1588 -1.2365
 4866TIP3   OH236012   5.543   5.674  14.672  0.0902  0.2462 -0.7137
 4866TIP3    H136013   5.492   5.740  14.719  1.9866  0.6037  0.9538
 4866TIP3    H236014   5.569   5.612  14.740  1.4082 -0.2140 -1.6153
 4867TIP3   OH236015   4.942   4.374   4.563 -0.0489 -0.0460 -0.2468
 4867TIP3    H136016   5.035   4.396   4.567 -0.0710 -0.0142  0.0899
 4867TIP3    H236017   4.930   4.340   4.474  0.6461 -1.6699  0.2442
 4868TIP3   OH236018   1.635   1.157  14.082 -0.1140 -0.0231 -0.1079
 4868TIP3    H136019   1.595   1.170  14.169 -0.0545 -2.1816  0.2904
 4868TIP3    H236020   1.588   1.082  14.046 -0.7893  1.4113 -2.3965
 4869TIP3   OH236021   2.893   3.156   3.357 -0.3839 -0.3483 -0.6678
 4869TIP3    H136022   2.870   3.154   3.450  1.2832 -0.1291 -0.2117
 4869TIP3    H236023   2.861   3.241   3.326  0.4799  0.2838  0.1268
 4870TIP3   OH236024   5.935   6.305  13.438 -0.3263 -0.0158 -0.2883
 4870TIP3    H136025   5.877   6.310  13.514  1.1928 -0.6508  0.9757
 4870TIP3    H236026   6.020   6.335  13.471  0.5858 -1.1621 -1.4830
 4871TIP3   OH236027   5.653   4.851   2.339 -0.1832 -0.0183 -0.7010
 4871TIP3    H136028   5.717   4.803   2.392 -0.1326 -0.5537 -1.2351
 4871TIP3    H236029   5.570   4.807   2.354 -0.4881  0.8212  0.1747
 4872TIP3   OH236030   0.786   6.288   5.673 -0.3529 -0.3519 -0.0494
 4872TIP3    H136031   0.851   6.297   5.604 -0.3910  1.9298  0.1452
 4872TIP3    H236032   0.835   6.304   5.754 -0.7570 -0.7306  0.2757
 4873TIP3   OH236033   6.204   1.089   4.336  0.2047  0.1411  0.1682
 4873TIP3    H136034   6.282   1.066   4.387 -0.3709  0.3849  1.1834
 4873TIP3    H236035   6.216   1.182   4.316 -0.2231  0.3996  1.0699
 4874TIP3   OH236036   2.196   1.882  14.116 -0.4511 -0.3757 -0.5161
 4874TIP3    H136037   2.221   1.824  14.188  0.4698 -0.8976 -1.2390
 4874TIP3    H236038   2.190   1.969  14.157 -0.9805 -0.8188  0.3912
 4875TIP3   OH236039   3.991   1.562  13.288 -0.5773 -0.2152 -0.6083
 4875TIP3    H136040   3.923   1.619  13.323  1.0118  1.1171  0.4869
 4875TIP3    H236041   4.024   1.608  13.211 -0.7537 -0.7483 -1.0087
 4876TIP3   OH236042   4.910   5.346  14.087  0.6442 -0.1866  0.4314
 4876TIP3    H136043   4.953   5.297  14.158  1.0499  0.7716  0.8696
 4876TIP3    H236044   4.922   5.438  14.111  0.4066  0.1452 -0.6725
 4877TIP3   OH236045   4.720   2.196  13.606  0.1086  0.9440 -0.4243
 4877TIP3    H136046   4.746   2.139  13.534 -0.7836 -0.8715  0.6131
 4877TIP3    H236047   4.798   2.247  13.626  1.1230 -0.3207 -1.0453
 4878TIP3   OH236048   2.856   1.088   4.538  0.1905  0.0435 -0.1646
 4878TIP3    H136049   2.831   1.048   4.621 -0.7806  0.3185 -0.3121
 4878TIP3    H236050   2.935   1.040   4.511  0.5252 -0.0405  0.9110
 4879TIP3   OH236051   5.806   3.472  10.416  0.5658 -0.2655 -0.4509
 4879TIP3    H136052   5.758   3.396  10.383  1.3943 -0.8729 -0.3141
 4879TIP3    H236053   5.752   3.505  10.488  0.0932 -0.6027 -0.6446
 4880TIP3   OH236054   1.328   2.394  11.878  0.5832  0.4258  0.4817
 4880TIP3    H136055   1.313   2.401  11.784 -1.4276 -1.4594  0.5754
 4880TIP3    H236056   1.246   2.421  11.918  0.9086 -0.1833  1.6210
 4881TIP3   OH236057   3.141   3.956  13.399  0.1010  0.3235 -0.1234
 4881TIP3    H136058   3.075   3.896  13.366 -1.4272  1.1436  1.2762
 4881TIP3    H236059   3.212   3.900  13.431 -0.1318 -0.5856 -1.1487
 4882TIP3   OH236060   1.390   5.733  15.890 -0.4409  0.0187  0.1976
 4882TIP3    H136061   1.334   5.775  15.824  0.5923  2.0704  0.5343
 4882TIP3    H236062   1.453   5.682  15.840 -1.7324 -1.2112 -0.2331
 4883TIP3   OH236063   2.025   5.503  13.179 -0.4571  0.1398 -0.9632
 4883TIP3    H136064   2.049   5.461  13.096 -1.6075  3.4100 -3.1692
 4883TIP3    H236065   1.929   5.504  13.178 -0.4793  0.6000  0.1922
 4884TIP3   OH236066   5.553   1.841  13.663 -0.1092  0.1078  0.5246
 4884TIP3    H136067   5.506   1.858  13.581 -2.1601  1.5102  1.8777
 4884TIP3    H236068   5.493   1.786  13.714  0.2463  0.9106  1.8460
 4885TIP3   OH236069   6.308   3.285  17.000  0.0130  0.3210  0.0012
 4885TIP3    H136070   6.380   3.324  17.049  0.8889  0.4175 -1.2846
 4885TIP3    H236071   6.244   3.356  16.990  0.4287  0.6848 -0.1214
 4886TIP3   OH236072   0.086   0.499   2.702 -0.0663 -0.2058 -0.4775
 4886TIP3    H136073   0.147   0.425   2.707 -0.3230 -0.6755 -2.9793
 4886TIP3    H236074   0.142   0.576   2.699  0.3280 -0.4980 -0.6887
 4887TIP3   OH236075   1.680   1.729   6.399 -0.1331  0.1931  0.4121
 4887TIP3    H136076   1.768   1.762   6.380 -0.2916  0.8413  0.7575
 4887TIP3    H236077   1.677   1.723   6.494  0.5718 -2.8043  0.3412
 4888TIP3   OH236078   1.538   2.044   4.050 -0.0083  0.4839  0.0803
 4888TIP3    H136079   1.517   2.103   4.123  0.8967  0.4650  0.3632
 4888TIP3    H236080   1.501   1.959   4.076  0.4781  0.4299  0.6131
 4889TIP3   OH236081   2.348   6.713  12.775  0.7599 -0.5055 -0.1243
 4889TIP3    H136082   2.421   6.682  12.721  2.5030  0.9133  1.2794
 4889TIP3    H236083   2.388   6.775  12.836 -1.8657  1.4339 -0.1956
 4890TIP3   OH236084   2.168   2.588   5.074 -0.3162  0.0545 -0.0192
 4890TIP3    H136085   2.251   2.623   5.043 -0.2731 -0.5012 -0.5615
 4890TIP3    H236086   2.135   2.535   5.000 -1.7427  1.2433 -0.2897
 4891TIP3   OH236087   3.276   2.013   0.418 -0.5752  0.6090 -0.2873
 4891TIP3    H136088   3.297   1.956   0.343 -0.6942  0.0499  0.0950
 4891TIP3    H236089   3.331   2.090   0.406  0.5114 -0.1221 -0.1610
 4892TIP3   OH236090   0.519   0.826  10.888  0.2596 -0.0629 -0.1222
 4892TIP3    H136091   0.515   0.896  10.823 -1.6935  0.5934  0.6365
 4892TIP3    H236092   0.609   0.829  10.921  0.1511  2.3372  0.1264
 4893TIP3   OH236093   4.385   0.860   6.055  0.4822  0.3961  0.2881
 4893TIP3    H136094   4.333   0.930   6.094  1.2454  0.7363  0.7108
 4893TIP3    H236095   4.372   0.869   5.961 -1.2618 -0.3410  0.4275
 4894TIP3   OH236096   1.160   4.298  16.811  0.3971 -0.0779 -0.0046
 4894TIP3    H136097   1.161   4.390  16.838  0.5016 -0.6640  2.1788
 4894TIP3    H236098   1.234   4.259  16.856 -0.8716 -1.6611  0.7999
 4895TIP3   OH236099   5.785   2.526  12.858 -0.0890  0.0847  0.6737
 4895TIP3    H136100   5.806   2.536  12.951 -3.6164 -1.0824  1.7530
 4895TIP3    H236101   5.705   2.577  12.846  1.6463  2.3926 -2.4918
 4896TIP3   OH236102   2.844   2.486  15.523  0.0275  0.9118  0.0059
 4896TIP3    H136103   2.812   2.443  15.444 -0.8382  0.6852  0.4657
 4896TIP3    H236104   2.891   2.417  15.570  1.2142  1.2383 -0.6577
 4897TIP3   OH236105   4.659   4.272   0.553 -0.1207  1.0976  0.4195
 4897TIP3    H136106   4.715   4.283   0.476 -0.5977 -1.7787 -0.4808
 4897TIP3    H236107   4.582   4.326   0.535  0.9351  2.5725  0.1839
 4898TIP3   OH236108   6.057   1.463  16.910  0.4440 -0.5508 -0.5555
 4898TIP3    H136109   6.099   1.382  16.879  1.7618 -0.5269  1.0399
 4898TIP3    H236110   6.112   1.533  16.877  0.6413 -0.4272  0.0289
 4899TIP3   OH236111   5.258   0.254   3.455 -0.6522 -0.6376  0.0631
 4899TIP3    H136112   5.263   0.243   3.360 -2.2044  1.2170 -0.3027
 4899TIP3    H236113   5.336   0.210   3.489 -0.9007 -2.7844 -1.9038
 4900TIP3   OH236114   4.267   4.002   1.203 -0.4590 -0.4437  0.0207
 4900TIP3    H136115   4.189   4.053   1.182  0.2157  0.9729  0.8735
 4900TIP3    H236116   4.304   3.979   1.117 -1.0527  0.0427 -0.3700
 4901TIP3   OH236117   4.232   1.288   5.550  0.7239 -0.3287 -0.0091
 4901TIP3    H136118   4.203   1.268   5.461 -2.1679  3.1150 -0.0723
 4901TIP3    H236119   4.179   1.231   5.606  0.0593 -0.1220 -0.4167
 4902TIP3   OH236120   0.584   1.709  13.114  0.1866 -0.2446 -0.4585
 4902TIP3    H136121   0.641   1.708  13.192  2.7217 -1.3633 -2.1881
 4902TIP3    H236122   0.498   1.734  13.148  1.7072  1.8222  2.2989
 4903TIP3   OH236123   6.796   2.596  11.225 -0.2646 -0.0529 -0.0107
 4903TIP3    H136124   6.881   2.553  11.212  0.6331  1.7746 -0.5880
 4903TIP3    H236125   6.772   2.628  11.138 -1.0551  0.3192  0.3336
 4904TIP3   OH236126   0.247   0.181   4.267 -0.0181 -0.2354  0.4138
 4904TIP3    H136127   0.183   0.235   4.312  0.3451 -1.2210  2.1848
 4904TIP3    H236128   0.285   0.125   4.335  3.1625  0.7041 -0.3803
 4905TIP3   OH236129   5.223   0.736   1.849  0.1188  0.2610  0.3767
 4905TIP3    H136130   5.129   0.740   1.865  0.1026 -1.1554  0.7799
 4905TIP3    H236131   5.263   0.757   1.933  0.1215 -0.5908  0.6031
 4906TIP3   OH236132   3.087   2.483   5.682 -0.5109 -0.4902 -0.0281
 4906TIP3    H136133   3.096   2.576   5.701 -1.5618  0.1069 -2.1099
 4906TIP3    H236134   3.168   2.459   5.637 -0.4870 -0.4460 -0.0084
 4907TIP3   OH236135   2.038   5.659   2.281  0.2925 -0.5688 -0.0637
 4907TIP3    H136136   2.103   5.652   2.211 -0.7520 -0.2250 -1.1094
 4907TIP3    H236137   2.007   5.750   2.276 -1.9646 -1.3054 -1.2233
 4908TIP3   OH236138   4.994   6.170  14.940  0.4859 -0.4177  0.2826
 4908TIP3    H136139   4.971   6.133  15.025  1.3422  1.1116  1.2348
 4908TIP3    H236140   5.072   6.224  14.958 -0.3627  1.3853 -1.0899
 4909TIP3   OH236141   0.529   2.959  13.322 -0.0994 -0.2033  0.7346
 4909TIP3    H136142   0.455   2.978  13.380 -0.5795  0.0258  0.0475
 4909TIP3    H236143   0.509   2.872  13.287 -1.0971  0.6794 -1.0328
 4910TIP3   OH236144   4.213   6.552   2.722  0.4549  0.0347  0.5046
 4910TIP3    H136145   4.256   6.472   2.692 -0.0515 -0.9458  2.2312
 4910TIP3    H236146   4.262   6.578   2.800 -0.2017  0.6588  0.7252
 4911TIP3   OH236147   1.223   2.018  15.986 -0.6877  0.1799  0.2391
 4911TIP3    H136148   1.167   2.093  15.969 -0.1016  0.8554  1.1891
 4911TIP3    H236149   1.269   2.040  16.067  1.1500 -0.2376 -0.6362
 4912TIP3   OH236150   2.264   5.734   2.819  0.1743  0.4950 -0.3703
 4912TIP3    H136151   2.242   5.755   2.728  0.0402  1.8327 -0.0565
 4912TIP3    H236152   2.255   5.639   2.825 -0.1659  0.4244 -1.6560
 4913TIP3   OH236153   4.619   6.053  11.662  0.7631 -0.1832  0.0325
 4913TIP3    H136154   4.611   6.035  11.568  0.2735  0.0166  0.0331
 4913TIP3    H236155   4.614   5.967  11.703 -1.4697 -0.1153  0.0276
 4914TIP3   OH236156   4.320   0.645  11.358 -0.5027 -0.0475 -0.2465
 4914TIP3    H136157   4.269   0.703  11.302 -0.5079 -0.7842 -1.0250
 4914TIP3    H236158   4.351   0.576  11.300  2.4159  0.9875 -0.0890
 4915TIP3   OH236159   3.813   3.399   3.568  0.4924  0.1998  0.1633
 4915TIP3    H136160   3.737   3.428   3.618  0.7954 -0.1503  0.8399
 4915TIP3    H236161   3.784   3.318   3.526  0.1425  0.6502 -0.4816
 4916TIP3   OH236162   1.822   2.340   2.754 -0.1094 -0.3097  0.0120
 4916TIP3    H136163   1.776   2.280   2.695 -1.3358 -0.5957  1.1996
 4916TIP3    H236164   1.762   2.350   2.828  1.4657 -0.1389  1.3030
 4917TIP3   OH236165   2.167   2.792   4.156 -0.6573  0.0790 -0.3185
 4917TIP3    H136166   2.115   2.723   4.197  0.6659 -0.6335  0.2166
 4917TIP3    H236167   2.169   2.768   4.063  0.0036 -0.7618 -0.0989
 4918TIP3   OH236168   3.012   1.501   0.035 -0.2982 -0.5576 -0.0357
 4918TIP3    H136169   2.953   1.528  -0.036 -1.4255  0.6541  1.3059
 4918TIP3    H236170   3.032   1.582   0.082  0.9082 -1.2503  0.6950
 4919TIP3   OH236171   2.705   2.230  15.663 -0.1762 -0.5314 -0.1363
 4919TIP3    H136172   2.736   2.177  15.590  1.5608 -0.9818  0.8591
 4919TIP3    H236173   2.654   2.170  15.717  0.3602 -0.7764  0.1107
 4920TIP3   OH236174   0.750   1.747  11.020  0.2677  0.2879  0.0067
 4920TIP3    H136175   0.738   1.716  10.930 -0.5413 -0.7953  0.4603
 4920TIP3    H236176   0.667   1.725  11.064  0.6882  0.7076  1.0446
 4921TIP3   OH236177   3.137   5.397   3.578  0.1554  0.2500  0.0049
 4921TIP3    H136178   3.199   5.428   3.645 -0.1090  0.7452  0.0301
 4921TIP3    H236179   3.182   5.326   3.534  0.8023  0.7043 -0.0734
 4922TIP3   OH236180   6.127   4.377  14.419 -0.2135 -0.1023 -0.6336
 4922TIP3    H136181   6.209   4.420  14.442  0.0453 -0.5072 -0.7924
 4922TIP3    H236182   6.151   4.313  14.353 -0.3301 -1.5120  0.6206
 4923TIP3   OH236183   5.821   3.486   3.397  0.4668 -0.0086  0.4424
 4923TIP3    H136184   5.898   3.447   3.356  0.1735 -1.0533  0.8719
 4923TIP3    H236185   5.774   3.413   3.436 -1.3206  0.4710 -0.7048
 4924TIP3   OH236186   0.869   4.116  10.460 -0.1835 -0.1048  0.2983
 4924TIP3    H136187   0.893   4.145  10.372 -0.3103 -0.6173  0.0901
 4924TIP3    H236188   0.871   4.195  10.513  1.4008 -0.0199  0.1684
 4925TIP3   OH236189   6.141   4.387   1.572 -0.7110 -0.0980 -0.4782
 4925TIP3    H136190   6.215   4.354   1.621 -0.6590 -2.6092 -2.0950
 4925TIP3    H236191   6.180   4.450   1.510  0.0992 -1.2593 -1.1947
 4926TIP3   OH236192   0.465   0.684  11.339 -0.3435 -0.2409 -0.1222
 4926TIP3    H136193   0.503   0.696  11.252  0.0516 -1.4622 -0.1361
 4926TIP3    H236194   0.481   0.767  11.384  0.1025  0.1433 -0.9643
 4927TIP3   OH236195   1.843   6.118  15.825 -0.6363  0.0879 -0.4809
 4927TIP3    H136196   1.865   6.083  15.912 -0.9405 -2.3479 -1.3011
 4927TIP3    H236197   1.913   6.180  15.806 -2.2726  3.4052  2.8374
 4928TIP3   OH236198   3.253   4.581  16.357 -0.1315 -0.2444  0.3961
 4928TIP3    H136199   3.199   4.611  16.431  0.9460  0.6783  0.8435
 4928TIP3    H236200   3.229   4.640  16.285 -1.2890 -1.2374 -0.0651
 4929TIP3   OH236201   4.778   6.191   2.324  0.5990  0.6850 -0.4371
 4929TIP3    H136202   4.787   6.247   2.247 -2.2252  1.5633 -0.2244
 4929TIP3    H236203   4.809   6.245   2.397 -3.4651  2.7836 -0.0078
 4930TIP3   OH236204   5.615   3.693  13.499  0.4106 -0.5633 -0.4298
 4930TIP3    H136205   5.524   3.721  13.512 -0.0066 -1.8134 -0.4818
 4930TIP3    H236206   5.656   3.705  13.584  1.1685  3.1761 -1.1651
 4931TIP3   OH236207   3.497   4.330   5.662 -0.6619  0.2160  0.6953
 4931TIP3    H136208   3.508   4.340   5.567 -0.2328  0.4150  0.7679
 4931TIP3    H236209   3.483   4.236   5.674 -0.1353  0.1116  0.4950
 4932TIP3   OH236210   1.938   3.717  11.605  0.3339 -0.7551 -0.6102
 4932TIP3    H136211   2.012   3.751  11.656 -0.5183  0.7004 -0.2819
 4932TIP3    H236212   1.864   3.719  11.666 -0.2606 -0.9095 -1.3139
 4933TIP3   OH236213   4.619   6.178   5.490 -0.2806  0.3142 -0.7841
 4933TIP3    H136214   4.714   6.182   5.502 -0.3198  0.4764 -0.5093
 4933TIP3    H236215   4.590   6.108   5.548 -0.3333  0.2841 -0.8460
 4934TIP3   OH236216   2.668   1.659   2.773  0.4456  0.4711  0.1256
 4934TIP3    H136217   2.574   1.665   2.757  0.2221 -0.5370  0.9348
 4934TIP3    H236218   2.676   1.654   2.868  1.2994  0.2534  0.0515
 4935TIP3   OH236219   1.935   4.520  14.030 -0.4543 -0.2234  0.0954
 4935TIP3    H136220   1.939   4.607  13.990 -1.9240  0.3289  1.0603
 4935TIP3    H236221   2.000   4.523  14.100  0.6068 -0.4559 -0.8622
 4936TIP3   OH236222   1.655   1.612   5.626  0.2669 -0.0843 -0.3316
 4936TIP3    H136223   1.729   1.605   5.565  0.5177  1.9091 -0.3228
 4936TIP3    H236224   1.696   1.637   5.709 -0.4386  2.0770 -0.5708
 4937TIP3   OH236225   0.702   0.736   0.612 -0.1897 -0.2771 -0.8260
 4937TIP3    H136226   0.740   0.728   0.699  0.8223 -1.2890 -1.3321
 4937TIP3    H236227   0.624   0.680   0.615  0.2973 -0.9635 -0.8030
 4938TIP3   OH236228   4.906   0.864   4.423 -0.3470 -0.2763  0.1761
 4938TIP3    H136229   4.843   0.926   4.461 -0.0802 -0.2302  0.5479
 4938TIP3    H236230   4.967   0.920   4.374 -0.4981 -0.3054 -0.0442
 4939TIP3   OH236231   2.353   1.981   5.086  0.3671  0.6995  0.1648
 4939TIP3    H136232   2.341   1.925   5.163  0.3357  0.4460 -0.0216
 4939TIP3    H236233   2.371   2.068   5.122  1.3700  0.3779  0.4602
 4940TIP3   OH236234   0.518   5.867  14.936 -0.2679  0.0683 -0.3910
 4940TIP3    H136235   0.466   5.865  15.017  0.6562  1.3288  0.2627
 4940TIP3    H236236   0.557   5.779  14.931  0.7301  0.3614  1.2852
 4941TIP3   OH236237   2.087   1.709   3.421  0.1341 -0.1318 -0.7523
 4941TIP3    H136238   2.149   1.645   3.456 -0.3316 -1.3818 -2.0998
 4941TIP3    H236239   2.001   1.674   3.443 -0.1329 -0.1615 -1.7744
 4942TIP3   OH236240   1.130   6.354  11.339  0.0698  0.3928 -0.2706
 4942TIP3    H136241   1.151   6.272  11.383  1.3392  0.5962 -0.4344
 4942TIP3    H236242   1.163   6.422  11.398  0.9657  0.6955 -1.0773
 4943TIP3   OH236243   6.576   2.567   0.559  0.6134  0.0584  0.2446
 4943TIP3    H136244   6.525   2.495   0.597  1.0561 -0.2683  0.2306
 4943TIP3    H236245   6.511   2.635   0.541 -0.3608 -1.4411 -2.5229
 4944TIP3   OH236246   0.629   1.285  13.698 -0.0454  0.2759 -1.3473
 4944TIP3    H136247   0.705   1.280  13.757 -0.8166  1.0619 -0.2529
 4944TIP3    H236248   0.629   1.201  13.652 -0.0083 -0.8065  0.5278
 4945TIP3   OH236249   3.724   2.876   1.547 -0.3187  0.1486 -0.0075
 4945TIP3    H136250   3.710   2.863   1.641 -2.4585  0.2556 -0.2708
 4945TIP3    H236251   3.651   2.932   1.520  0.6941  0.7491 -1.6111
 4946TIP3   OH236252   6.287   0.335   3.759 -0.4051  0.4555 -0.2694
 4946TIP3    H136253   6.341   0.367   3.831 -1.3857  0.9090  0.2945
 4946TIP3    H236254   6.293   0.240   3.764 -1.7681  0.4044  1.5005
 4947TIP3   OH236255   4.609   6.521   1.009 -0.0582  0.0202 -0.4178
 4947TIP3    H136256   4.595   6.534   0.915  0.6810 -0.4609 -0.6110
 4947TIP3    H236257   4.643   6.432   1.016  0.2359  0.1741  0.2638
 4948TIP3   OH236258   1.378   3.621   4.869 -0.5540  0.5055 -0.1930
 4948TIP3    H136259   1.331   3.538   4.865 -0.2183  0.3431 -0.8833
 4948TIP3    H236260   1.470   3.598   4.854 -0.7696  1.2652 -3.2364
 4949TIP3   OH236261   3.894   6.706  11.048  0.3726 -0.2830 -0.1366
 4949TIP3    H136262   3.963   6.667  11.100  0.5384 -1.3959 -1.1604
 4949TIP3    H236263   3.933   6.720  10.961 -1.2686 -3.0872 -1.4496
 4950TIP3   OH236264   4.893   4.047  11.328  0.2433 -0.1406  0.0237
 4950TIP3    H136265   4.884   4.128  11.379 -1.7765 -0.4104  0.1768
 4950TIP3    H236266   4.863   4.071  11.240 -1.9033 -1.0426  0.4555
 4951TIP3   OH236267   2.323   6.597  11.059 -0.1376  0.1689  0.9927
 4951TIP3    H136268   2.300   6.584  10.967 -0.3374 -2.2420  1.3243
 4951TIP3    H236269   2.243   6.632  11.099  0.0428  1.5251  0.2457
 4952TIP3   OH236270   1.800   2.223  13.782  0.5853 -0.7532 -0.0183
 4952TIP3    H136271   1.866   2.255  13.843  1.9938  1.8293 -2.6748
 4952TIP3    H236272   1.716   2.245  13.824  1.4844  2.9414  0.1866
 4953TIP3   OH236273   2.311   6.080  11.733  0.3112 -0.1211 -0.0875
 4953TIP3    H136274   2.394   6.111  11.697 -1.2095  1.9476 -2.0837
 4953TIP3    H236275   2.336   6.013  11.796  3.4173 -0.5928 -1.6230
 4954TIP3   OH236276   5.323   0.712   2.126  0.1560  0.3463 -0.2305
 4954TIP3    H136277   5.406   0.757   2.145  0.2300  0.0554  0.1476
 4954TIP3    H236278   5.320   0.640   2.189 -0.4779  0.4663 -0.1152
 4955TIP3   OH236279   1.588   2.675   2.470  0.5795 -0.5219  0.9558
 4955TIP3    H136280   1.530   2.641   2.402  0.9652  0.4588  0.1021
 4955TIP3    H236281   1.532   2.732   2.523  0.9581  1.4739 -0.6480
 4956TIP3   OH236282   2.089   1.278   4.305 -0.4035 -0.7425  0.1159
 4956TIP3    H136283   2.164   1.333   4.281  0.4957 -1.4960  1.0981
 4956TIP3    H236284   2.077   1.220   4.230 -0.3927 -0.2323 -0.2892
 4957TIP3   OH236285   4.181   0.043   1.435  0.1970  0.2195  0.0530
 4957TIP3    H136286   4.153   0.133   1.450  0.3098  0.1603  0.6396
 4957TIP3    H236287   4.101  -0.003   1.409  0.4006  0.8003 -1.7481
 4958TIP3   OH236288   4.540   1.107  14.214 -0.1949 -0.0720  0.1742
 4958TIP3    H136289   4.502   1.181  14.167 -0.9126 -0.7021 -0.2692
 4958TIP3    H236290   4.634   1.124  14.213 -0.4036  1.2200  0.7735
 4959TIP3   OH236291   2.076   5.924   0.288  0.3542  0.0817 -0.1312
 4959TIP3    H136292   2.156   5.932   0.236  0.3811  0.0882 -0.0891
 4959TIP3    H236293   2.051   6.014   0.308  0.3195  0.0806 -0.1697
 4960TIP3   OH236294   5.529   5.316   2.551 -0.1809  0.1739  0.2086
 4960TIP3    H136295   5.534   5.411   2.542  0.8375  0.0470 -0.9737
 4960TIP3    H236296   5.561   5.298   2.639 -0.0282  0.9139  0.3099
 4961TIP3   OH236297   3.209   4.752   1.193 -0.2547  0.2725 -0.4261
 4961TIP3    H136298   3.231   4.782   1.105  0.7393 -2.6958 -1.3377
 4961TIP3    H236299   3.288   4.770   1.245  0.0178  0.0109 -0.7418
 4962TIP3   OH236300   2.760   6.202   0.106 -0.3761 -0.2148 -0.1731
 4962TIP3    H136301   2.844   6.239   0.133 -0.4218 -0.3561  0.1729
 4962TIP3    H236302   2.695   6.255   0.152 -0.7304  2.5255 -3.4259
 4963TIP3   OH236303   4.368   1.659   0.188 -0.0017 -0.0053  0.1430
 4963TIP3    H136304   4.383   1.580   0.241  0.4951  0.5975  0.9138
 4963TIP3    H236305   4.451   1.673   0.142 -1.1845 -1.9989 -2.8790
 4964TIP3   OH236306   3.829   0.648   0.052 -0.7205 -0.2308  0.1321
 4964TIP3    H136307   3.825   0.716  -0.015  1.3226 -0.9889 -0.8519
 4964TIP3    H236308   3.760   0.586   0.028 -1.4991  0.6411  0.0760
 4965TIP3   OH236309   5.665   6.693  11.406 -0.9669 -0.2324  0.2546
 4965TIP3    H136310   5.592   6.755  11.399 -1.9640 -1.2823  0.9261
 4965TIP3    H236311   5.623   6.607  11.402  0.2408 -0.8594  0.7187
 4966TIP3   OH236312   1.936   4.133   2.281 -0.0218  0.1918 -0.0787
 4966TIP3    H136313   1.913   4.190   2.208  3.6456  1.1185 -0.7227
 4966TIP3    H236314   1.912   4.183   2.359  1.1497  1.7807 -0.6731
 4967TIP3   OH236315   5.130   0.533   3.544 -0.0188  0.3403 -0.1257
 4967TIP3    H136316   5.224   0.535   3.564 -0.2153  0.9542  0.7748
 4967TIP3    H236317   5.091   0.485   3.617 -0.6541  1.8836  0.5802
 4968TIP3   OH236318   4.698   1.402  14.017  0.1333 -0.1015 -0.3210
 4968TIP3    H136319   4.616   1.352  14.013  0.1678 -0.2089  0.2441
 4968TIP3    H236320   4.763   1.340  14.049  0.1363  0.3531  0.5673
 4969TIP3   OH236321   3.313   2.479   0.163  0.1733  0.1770 -0.2455
 4969TIP3    H136322   3.291   2.515   0.076 -0.1515  0.3858 -0.0780
 4969TIP3    H236323   3.259   2.400   0.170  0.5479 -0.1006 -0.4237
 4970TIP3   OH236324   4.231   2.370   3.628  0.2255  0.1361 -0.3065
 4970TIP3    H136325   4.296   2.372   3.558  0.7382 -0.2957  0.1535
 4970TIP3    H236326   4.182   2.452   3.617  1.5712  1.0165  0.0237
 4971TIP3   OH236327   3.452   0.148  14.590  0.2063 -0.2829 -0.1554
 4971TIP3    H136328   3.460   0.243  14.598  3.7055 -0.4948  0.6934
 4971TIP3    H236329   3.374   0.134  14.536 -0.3937  3.0260 -0.3469
 4972TIP3   OH236330   6.775   3.195   3.312 -0.4836  0.0360  0.1597
 4972TIP3    H136331   6.736   3.281   3.323 -0.0750  0.0124  2.1850
 4972TIP3    H236332   6.701   3.135   3.309 -0.7059  0.2098  1.6192
 4973TIP3   OH236333   0.896   1.198  12.256 -0.1339 -0.1344  0.4941
 4973TIP3    H136334   0.880   1.181  12.163  0.3364  0.9371  0.2059
 4973TIP3    H236335   0.946   1.122  12.286 -3.3980 -2.3646  0.8277
 4974TIP3   OH236336   2.954   0.793   0.194 -0.4836  0.1763 -0.2398
 4974TIP3    H136337   2.965   0.702   0.168 -0.5644 -0.4155  1.6149
 4974TIP3    H236338   2.882   0.825   0.140 -1.3286 -1.2750 -0.0390
 4975TIP3   OH236339   4.238   0.729  13.313  0.0994 -0.1290  0.5552
 4975TIP3    H136340   4.164   0.667  13.314  1.5816 -2.0193 -0.3147
 4975TIP3    H236341   4.250   0.749  13.220 -0.3615  1.5526  0.8264
 4976TIP3   OH236342   3.859   6.462   3.093 -0.4071 -0.3514 -0.7113
 4976TIP3    H136343   3.821   6.404   3.027 -1.8006 -1.7767  1.2622
 4976TIP3    H236344   3.876   6.406   3.168  2.0467  1.0402 -0.1175
 4977TIP3   OH236345   2.981   0.796  14.981 -0.0711 -0.4541  0.4937
 4977TIP3    H136346   2.961   0.728  15.046 -0.4247 -0.3357  0.5096
 4977TIP3    H236347   2.896   0.834  14.960  0.2174  0.5687  1.1278
 4978TIP3   OH236348   0.117   2.055   0.783 -0.0407  0.0252 -0.4908
 4978TIP3    H136349   0.151   1.969   0.809  2.1785  0.5671 -1.3473
 4978TIP3    H236350   0.055   2.078   0.852  1.5113 -0.9856  1.3508
 4979TIP3   OH236351   3.125   5.371  12.986  0.5511  0.1158  0.4908
 4979TIP3    H136352   3.165   5.327  12.910  1.3958  0.5474  0.6772
 4979TIP3    H236353   3.078   5.446  12.948 -0.3135 -0.5277  0.2461
 4980TIP3   OH236354   4.892   2.061  14.993  0.0804  0.1786 -0.4334
 4980TIP3    H136355   4.846   1.978  14.994  0.5868 -0.1105  0.5700
 4980TIP3    H236356   4.849   2.112  14.924 -1.3467 -0.2945  0.0550
 4981TIP3   OH236357   2.716   4.106  13.289 -0.0656  0.0677  0.2498
 4981TIP3    H136358   2.651   4.100  13.218  1.0442  0.6322 -0.8418
 4981TIP3    H236359   2.717   4.018  13.327 -0.5307 -0.3079 -0.5688
 4982TIP3   OH236360   0.383   2.545   2.359  0.4719 -0.0375 -0.3709
 4982TIP3    H136361   0.460   2.595   2.331  0.7470  0.0254  0.4840
 4982TIP3    H236362   0.419   2.464   2.395  0.0748 -0.4686 -0.9247
 4983TIP3   OH236363   4.921   4.605   4.143 -0.1074 -0.0467  0.1884
 4983TIP3    H136364   4.992   4.560   4.098  2.1775  0.7863  2.6869
 4983TIP3    H236365   4.933   4.697   4.121 -0.2342  0.1260  0.8140
 4984TIP3   OH236366   0.664   0.648   5.406 -0.1409  0.1369 -0.2601
 4984TIP3    H136367   0.601   0.642   5.478 -0.2961  0.0731 -0.4005
 4984TIP3    H236368   0.749   0.648   5.448 -0.2581  2.0165  0.0642
 4985TIP3   OH236369   2.090   3.044  11.676  0.1852 -0.4931 -0.7241
 4985TIP3    H136370   2.039   3.049  11.595  1.4296  2.4092 -1.4449
 4985TIP3    H236371   2.025   3.045  11.746 -0.8568 -1.5911 -1.6398
 4986TIP3   OH236372   2.352   3.733  15.024  0.2911 -0.0106  0.0303
 4986TIP3    H136373   2.366   3.701  14.935  1.9352 -1.8783  0.9042
 4986TIP3    H236374   2.298   3.666  15.065  0.7907  0.0984  0.8753
 4987TIP3   OH236375   5.110   3.087  16.110  0.2255 -0.3509 -0.2444
 4987TIP3    H136376   5.044   3.115  16.173  0.3264 -1.3543  0.3251
 4987TIP3    H236377   5.180   3.049  16.163  0.5001 -0.8313 -0.9342
 4988TIP3   OH236378   0.140   0.492   0.341 -0.1851  0.2871  0.1943
 4988TIP3    H136379   0.163   0.400   0.348 -0.0464  0.3097  0.0410
 4988TIP3    H236380   0.044   0.493   0.342 -0.2210  0.0193 -1.2303
 4989TIP3   OH236381   6.002   2.805   2.856  0.1201 -0.4235  0.2291
 4989TIP3    H136382   6.032   2.786   2.945 -0.6419  0.5475  0.7045
 4989TIP3    H236383   5.907   2.813   2.864  0.1339  0.6092 -0.4943
 4990TIP3   OH236384   3.846   0.578   3.737  0.3316 -0.1596 -0.3790
 4990TIP3    H136385   3.798   0.650   3.696 -0.5679 -0.8906 -0.6561
 4990TIP3    H236386   3.820   0.501   3.686  1.8325 -0.5813 -0.5421
 4991TIP3   OH236387   5.054   6.033   4.832  0.1660  0.1019 -0.0329
 4991TIP3    H136388   4.974   5.991   4.798  0.1838 -1.5716  1.8307
 4991TIP3    H236389   5.054   6.012   4.925  2.9533 -0.1946 -0.0333
 4992TIP3   OH236390   3.373   1.222   1.798 -0.5499 -0.0584 -0.0609
 4992TIP3    H136391   3.388   1.170   1.877 -0.1911 -1.1228 -0.7986
 4992TIP3    H236392   3.280   1.245   1.802 -0.7068 -0.7125  0.3180
 4993TIP3   OH236393   2.473   0.741  15.335  0.1006  0.4445  0.2010
 4993TIP3    H136394   2.526   0.730  15.414 -0.2953  0.3855  0.4637
 4993TIP3    H236395   2.390   0.698  15.356  0.2451 -0.1957 -0.5096
 4994TIP3   OH236396   1.316   5.140  11.454 -0.2593 -0.2636 -0.6832
 4994TIP3    H136397   1.329   5.051  11.486 -0.2502 -0.7064 -1.8787
 4994TIP3    H236398   1.402   5.167  11.422 -0.2648  0.1781 -0.3371
 4995TIP3   OH236399   1.169   0.044   1.430  0.0063 -0.3656 -0.0805
 4995TIP3    H136400   1.220  -0.037   1.421  0.7560 -0.0806  1.2779
 4995TIP3    H236401   1.115   0.030   1.508  1.6099  1.1365  1.3867
 4996TIP3   OH236402   6.335   1.575  16.664 -0.2946  0.2024 -0.0069
 4996TIP3    H136403   6.389   1.654  16.660 -1.5772  1.2327  1.4313
 4996TIP3    H236404   6.283   1.587  16.744 -3.1995 -0.3203 -1.7003
 4997TIP3   OH236405   6.818   3.587  11.398 -0.3414  0.1892  0.3262
 4997TIP3    H136406   6.909   3.571  11.424  0.1546  0.3392 -1.2023
 4997TIP3    H236407   6.801   3.523  11.329 -1.6992 -0.4100  1.1710
 4998TIP3   OH236408   4.516   2.762  12.498  0.2539 -0.1666 -0.3078
 4998TIP3    H136409   4.425   2.770  12.468  0.4341  0.1126 -0.7802
 4998TIP3    H236410   4.543   2.674  12.469  0.9323  0.6675 -2.3957
 4999TIP3   OH236411   2.144   4.418  16.458  1.1491  0.0397 -0.4485
 4999TIP3    H136412   2.195   4.351  16.504  1.8538  0.2843 -0.8508
 4999TIP3    H236413   2.170   4.407  16.366 -0.8434 -0.9984 -0.9401
 5000TIP3   OH236414   1.098   4.580   0.139  0.0945  0.0994  0.2908
 5000TIP3    H136415   1.011   4.599   0.104 -0.2374 -1.0036  0.4659
 5000TIP3    H236416   1.153   4.568   0.061  0.5308  2.5358  0.1680
 5001TIP3   OH236417   0.128   1.587   1.243 -0.3862  0.4256 -0.3271
 5001TIP3    H136418   0.068   1.630   1.303 -0.9247 -0.2375 -0.3817
 5001TIP3    H236419   0.084   1.505   1.219 -0.0145  0.5052 -1.3307
 5002TIP3   OH236420   5.164   5.568  11.446 -0.5875 -0.1700  0.3322
 5002TIP3    H136421   5.239   5.573  11.387 -0.8778 -1.1425 -0.1340
 5002TIP3    H236422   5.091   5.540  11.390 -1.1150 -0.0462  0.9416
 5003TIP3   OH236423   0.068   0.092   1.542 -0.9031  0.1591  0.1355
 5003TIP3    H136424   0.100   0.177   1.569  1.6658 -0.3392 -1.0624
 5003TIP3    H236425  -0.003   0.111   1.481 -1.7469  1.3515  1.4427
 5004TIP3   OH236426   3.168   2.737   2.658  0.3609 -0.3162 -0.0366
 5004TIP3    H136427   3.082   2.723   2.697 -0.1353 -1.6252 -1.5469
 5004TIP3    H236428   3.158   2.714   2.566  1.8122  1.5530 -0.7226
 5005TIP3   OH236429   6.769   4.323   5.539  0.5075 -0.4538 -0.2495
 5005TIP3    H136430   6.861   4.332   5.511  0.2361 -1.3947 -1.5580
 5005TIP3    H236431   6.762   4.232   5.568  0.5048  0.2143  1.9903
 5006TIP3   OH236432   4.975   0.142   1.752 -0.5633  0.3011  0.0320
 5006TIP3    H136433   4.888   0.183   1.757 -0.5543  0.6029 -1.7750
 5006TIP3    H236434   4.987   0.122   1.659 -0.7389 -4.2366  0.7698
 5007TIP3   OH236435   5.248   6.205  14.764  0.7127  0.5038  0.5648
 5007TIP3    H136436   5.222   6.220  14.855 -1.8839  0.3848 -0.0971
 5007TIP3    H236437   5.197   6.268  14.714  0.7407 -0.6409 -0.9605
 5008TIP3   OH236438   4.218   1.794  15.176  0.0347 -0.3224 -0.5382
 5008TIP3    H136439   4.228   1.785  15.271  1.4385 -0.3461 -0.6659
 5008TIP3    H236440   4.204   1.888  15.163  1.0647 -0.1389 -0.3886
 5009TIP3   OH236441   5.205   2.136   5.744 -0.0167 -0.1756  0.4715
 5009TIP3    H136442   5.137   2.201   5.764  0.1523 -0.2011  1.1604
 5009TIP3    H236443   5.180   2.060   5.796  0.6019 -0.1472  0.8114
 5010TIP3   OH236444   4.332   5.848   5.117  0.2158 -0.4953  0.4924
 5010TIP3    H136445   4.307   5.915   5.180 -0.4091 -0.2398 -0.0119
 5010TIP3    H236446   4.386   5.787   5.167 -1.6565 -1.2444  1.7539
 5011TIP3   OH236447   3.361   1.872  13.964 -0.1028 -0.2876 -0.3398
 5011TIP3    H136448   3.421   1.934  13.921 -0.6666  0.0399 -0.6685
 5011TIP3    H236449   3.278   1.885  13.919  0.2293 -2.7100 -1.7931
 5012TIP3   OH236450   3.796   0.660   0.667 -0.2771  0.0477 -0.3868
 5012TIP3    H136451   3.712   0.706   0.674  0.3133  1.5187 -2.0775
 5012TIP3    H236452   3.778   0.586   0.609 -0.3485  0.5825 -1.0614
 5013TIP3   OH236453   3.174   4.906  14.930 -0.3381  0.3411 -0.0421
 5013TIP3    H136454   3.105   4.965  14.962  0.7760  1.0942  1.0447
 5013TIP3    H236455   3.174   4.833  14.992 -0.1293  0.3733 -0.0030
 5014TIP3   OH236456   0.596   3.927   6.003  0.1279 -0.1219 -0.1751
 5014TIP3    H136457   0.649   3.983   5.947 -0.2656  0.3065 -0.1205
 5014TIP3    H236458   0.601   3.967   6.090 -0.4672  0.0541 -0.2152
 5015TIP3   OH236459   4.718   6.049   6.184  0.0940  0.5089 -0.5050
 5015TIP3    H136460   4.700   6.125   6.129 -2.1261 -0.8326 -1.7904
 5015TIP3    H236461   4.794   6.008   6.143 -0.8411  0.1495 -1.9751
 5016TIP3   OH236462   3.208   6.816   1.074 -0.5357  0.0798 -0.1904
 5016TIP3    H136463   3.298   6.811   1.043 -0.4852  2.0837 -0.5482
 5016TIP3    H236464   3.167   6.735   1.044  1.1788 -0.9413  0.1304
 5017TIP3   OH236465   6.284   1.366  16.476  0.5455  0.6192  0.2413
 5017TIP3    H136466   6.314   1.418  16.551  1.3814  0.2354  0.1823
 5017TIP3    H236467   6.358   1.366  16.415  0.7917 -1.1227  0.4918
 5018TIP3   OH236468   2.019   6.085  13.905  0.1473  0.6956 -0.2317
 5018TIP3    H136469   2.055   6.136  13.832  1.6266  0.3904  0.2473
 5018TIP3    H236470   1.949   6.140  13.939  0.2020  1.3735 -1.1542
 5019TIP3   OH236471   5.781   2.796  12.190  0.4155 -0.1102 -0.1827
 5019TIP3    H136472   5.752   2.876  12.147 -1.3180 -1.3629 -1.5372
 5019TIP3    H236473   5.868   2.816  12.223 -0.6777  2.9191  1.2399
 5020TIP3   OH236474   2.907   6.785   5.437  0.0350  0.7926  0.0246
 5020TIP3    H136475   2.831   6.836   5.466 -1.2855 -0.0940 -1.7138
 5020TIP3    H236476   2.969   6.851   5.406 -1.4533  1.4643 -1.7356
 5021TIP3   OH236477   3.197   3.162  12.304 -0.1891 -0.1923 -0.1310
 5021TIP3    H136478   3.111   3.124  12.288 -0.0929  0.3700 -2.3566
 5021TIP3    H236479   3.200   3.178  12.398 -1.5306 -2.5037  0.3729
 5022TIP3   OH236480   5.003   0.572   0.549 -1.0458 -0.2270  0.3770
 5022TIP3    H136481   5.038   0.653   0.586 -1.2859  0.7916 -1.4968
 5022TIP3    H236482   4.951   0.600   0.474 -0.2519 -2.1714 -0.9889
 5023TIP3   OH236483   2.311   6.285  12.246  0.3431 -0.4346  0.6577
 5023TIP3    H136484   2.252   6.361  12.249  0.0449 -0.6908  1.4390
 5023TIP3    H236485   2.252   6.209  12.249  0.7000 -0.6943  1.2511
 5024TIP3   OH236486   3.615   0.197  13.257 -0.4969 -0.2474  0.4548
 5024TIP3    H136487   3.630   0.256  13.332 -1.2217 -1.0113  1.2264
 5024TIP3    H236488   3.546   0.138  13.287 -1.4578 -0.0015 -1.1555
 5025TIP3   OH236489   3.141   0.677   2.202 -0.2249 -0.0712  0.8301
 5025TIP3    H136490   3.102   0.600   2.159  1.4942 -1.2631  1.3147
 5025TIP3    H236491   3.106   0.674   2.291 -0.6704  0.1138  0.6684
 5026TIP3   OH236492   5.348   0.045   4.074  0.3818 -0.7065  0.3977
 5026TIP3    H136493   5.414   0.060   4.006 -1.2088  0.1397 -1.0382
 5026TIP3    H236494   5.375   0.100   4.147  0.5016  0.7661 -0.7185
 5027TIP3   OH236495   6.078   1.818   5.885  0.5389  0.3276 -0.0677
 5027TIP3    H136496   6.173   1.813   5.879  0.5203  0.1301 -0.1777
 5027TIP3    H236497   6.060   1.821   5.979  0.4210 -4.0150  0.2450
 5028TIP3   OH236498   4.178   2.785  17.025 -0.0988  0.3275  0.1469
 5028TIP3    H136499   4.205   2.701  16.988 -0.6367 -0.0791  0.6616
 5028TIP3    H236500   4.232   2.850  16.980 -0.4687 -0.1928 -1.0764
 5029TIP3   OH236501   0.403   5.548  14.643  0.4400  0.5213 -0.3596
 5029TIP3    H136502   0.458   5.626  14.652 -1.2196  1.5042  2.2021
 5029TIP3    H236503   0.459   5.476  14.670  1.2749  1.1298 -0.4146
 5030TIP3   OH236504   3.511   5.368   0.207  0.4675 -0.1197 -0.2468
 5030TIP3    H136505   3.554   5.451   0.226  0.1108 -0.3033  1.5163
 5030TIP3    H236506   3.582   5.303   0.213  0.3519 -0.1789  0.5058
 5031TIP3   OH236507   2.393   2.693  16.403 -0.5964  0.1011  0.1785
 5031TIP3    H136508   2.304   2.712  16.432 -0.6299  1.0879 -0.5219
 5031TIP3    H236509   2.446   2.696  16.483 -1.1051  0.0230  0.5229
 5032TIP3   OH236510   6.335   5.287  12.229 -0.4265 -0.2557 -0.3968
 5032TIP3    H136511   6.304   5.375  12.248  1.3262  0.6058 -1.2633
 5032TIP3    H236512   6.259   5.241  12.195 -1.5201  0.7096  0.6492
 5033TIP3   OH236513   4.108   1.742   3.791  0.2720  0.1063  0.3312
 5033TIP3    H136514   4.179   1.777   3.845  0.9345 -0.8299  0.0920
 5033TIP3    H236515   4.112   1.794   3.711  0.3560  0.3999  0.5247
 5034TIP3   OH236516   0.309   6.465   0.469 -0.2111 -0.1724 -0.1709
 5034TIP3    H136517   0.219   6.478   0.499 -0.4853 -1.9050 -0.1918
 5034TIP3    H236518   0.305   6.390   0.410  1.4239 -1.0381  0.7392
 5035TIP3   OH236519   3.451   4.601   2.220  0.1901  0.2498 -0.6882
 5035TIP3    H136520   3.453   4.605   2.125  0.2275 -0.6665 -0.7328
 5035TIP3    H236521   3.372   4.550   2.241  0.1577  0.4817 -0.2295
 5036TIP3   OH236522   3.075   0.592  15.555 -0.6374  0.0646 -0.0002
 5036TIP3    H136523   3.084   0.683  15.582 -0.6052  1.2895 -3.6246
 5036TIP3    H236524   3.143   0.579  15.489 -0.4190 -2.7417  0.6288
 5037TIP3   OH236525   1.723   5.319  16.487  0.1640 -0.1515  0.1918
 5037TIP3    H136526   1.719   5.406  16.526 -1.5132  0.2208 -0.6888
 5037TIP3    H236527   1.634   5.304  16.455  1.1305 -0.9155 -2.3871
 5038TIP3   OH236528   3.946   0.076   2.225  0.4003  0.8188  0.0769
 5038TIP3    H136529   3.993   0.004   2.183 -0.6870 -0.0755  0.3525
 5038TIP3    H236530   3.909   0.037   2.304 -0.4823  1.6014  0.0634
 5039TIP3   OH236531   1.247   0.170   1.200  0.0393 -0.8625 -0.6353
 5039TIP3    H136532   1.195   0.250   1.207  3.1670  1.3630 -0.4658
 5039TIP3    H236533   1.225   0.120   1.278  1.1757  2.0250  1.7564
 5040TIP3   OH236534   3.049   1.063   3.792 -0.0492  0.1425 -0.1854
 5040TIP3    H136535   2.996   0.991   3.758 -2.3801  0.3235  2.7336
 5040TIP3    H236536   3.128   1.020   3.825  0.3474 -0.5126 -1.8558
 5041TIP3   OH236537   5.803   2.736  15.857  0.1216 -0.1149  0.0620
 5041TIP3    H136538   5.839   2.748  15.769  0.6290 -0.3623  0.2318
 5041TIP3    H236539   5.715   2.702  15.842  0.7893 -1.7641 -0.3460
 5042TIP3   OH236540   3.524   3.280  14.263 -0.6939 -0.1873 -0.1486
 5042TIP3    H136541   3.457   3.347  14.252 -0.5520  0.0477  0.4158
 5042TIP3    H236542   3.510   3.220  14.189 -0.3506  0.8615 -1.1010
 5043TIP3   OH236543   2.594   0.466   2.080 -0.1102  0.0265  0.2872
 5043TIP3    H136544   2.661   0.425   2.025 -1.1343 -2.6505  0.8780
 5043TIP3    H236545   2.547   0.525   2.021  1.1887  0.1093 -0.7193
 5044TIP3   OH236546   2.877   6.654  16.376  0.1245 -0.1328 -0.1287
 5044TIP3    H136547   2.871   6.565  16.342 -0.6506  1.2608 -4.0705
 5044TIP3    H236548   2.812   6.657  16.446 -1.0022 -2.2334 -0.9853
 5045TIP3   OH236549   2.362   2.363  16.972 -0.1486  0.3442 -0.0735
 5045TIP3    H136550   2.269   2.345  16.958 -0.8623  2.2134  1.8480
 5045TIP3    H236551   2.376   2.448  16.931  0.2939  0.8553  1.1182
 5046TIP3   OH236552   3.743   4.130  15.338  0.1017 -0.5122 -0.0708
 5046TIP3    H136553   3.727   4.037  15.324  2.2373 -1.0571  0.7730
 5046TIP3    H236554   3.829   4.134  15.380  0.2029  1.8684 -0.3578
 5047TIP3   OH236555   6.798   2.245   5.003 -0.1702  0.1233 -0.1433
 5047TIP3    H136556   6.888   2.215   5.019 -0.1184  0.2452 -0.2083
 5047TIP3    H236557   6.745   2.193   5.063  0.1384  1.4489  1.3491
 5048TIP3   OH236558   1.454   1.756   4.565 -0.2340 -0.6127 -0.3849
 5048TIP3    H136559   1.542   1.730   4.537  0.5999  1.4559  0.1134
 5048TIP3    H236560   1.457   1.754   4.660 -0.6322 -0.2141 -0.3616
 5049TIP3   OH236561   6.396   3.162  15.941  0.2327  0.8892 -0.5191
 5049TIP3    H136562   6.339   3.162  15.864  0.5006 -0.0235 -0.7264
 5049TIP3    H236563   6.336   3.155  16.015  0.0665 -2.7864 -0.7988
 5050TIP3   OH236564   1.763   2.659  15.825  0.0044 -0.2588 -0.0548
 5050TIP3    H136565   1.753   2.680  15.732  0.8018 -1.7973 -0.5240
 5050TIP3    H236566   1.677   2.626  15.851 -0.5023  1.0591  0.0316
 5051TIP3   OH236567   2.700   2.661   1.445  0.0310 -0.1815 -0.5639
 5051TIP3    H136568   2.609   2.646   1.467  0.2966  0.0704  0.7684
 5051TIP3    H236569   2.749   2.605   1.505  0.8112  1.0459 -0.0179
 5052TIP3   OH236570   0.610   4.183   3.499  0.7676 -0.3188  0.2183
 5052TIP3    H136571   0.704   4.170   3.512  0.4088 -0.9369  2.7574
 5052TIP3    H236572   0.591   4.143   3.414  2.8811  0.4204 -0.6685
 5053TIP3   OH236573   6.267   3.156  16.609 -0.2751  0.2657  0.0360
 5053TIP3    H136574   6.220   3.186  16.531  0.6696  1.3405 -0.1390
 5053TIP3    H236575   6.342   3.107  16.574 -0.0952  0.3644  0.2827
 5054TIP3   OH236576   4.262   4.804  11.377  0.3913 -0.1195 -0.1512
 5054TIP3    H136577   4.290   4.715  11.357  2.0278  0.1349  0.8069
 5054TIP3    H236578   4.198   4.825  11.310  2.0073 -1.0241 -2.0789
 5055TIP3   OH236579   0.569   2.705  15.593  0.3389  0.2419 -0.0911
 5055TIP3    H136580   0.578   2.704  15.498 -0.0593  0.1682 -0.1271
 5055TIP3    H236581   0.657   2.728  15.625  0.9503 -1.5389 -0.3988
 5056TIP3   OH236582   5.300   6.762   0.901  0.4603  0.2229  0.4192
 5056TIP3    H136583   5.267   6.822   0.969 -0.4854  0.5136 -0.2776
 5056TIP3    H236584   5.231   6.760   0.835  1.8139  0.8122 -1.0904
 5057TIP3   OH236585   1.332   6.252   5.713  0.2476 -0.2472 -0.7739
 5057TIP3    H136586   1.279   6.322   5.675 -0.7128 -1.0337 -0.8923
 5057TIP3    H236587   1.352   6.283   5.801  0.4786  0.5146 -1.0862
 5058TIP3   OH236588   3.937   6.491  14.555 -0.0301  0.2044  0.2186
 5058TIP3    H136589   3.936   6.502  14.650  0.1271  2.4015  0.0162
 5058TIP3    H236590   3.937   6.396  14.542  0.4095 -0.1529  2.4090
 5059TIP3   OH236591   6.264   5.521  16.418 -0.2708 -0.5708 -0.7877
 5059TIP3    H136592   6.253   5.500  16.325  4.5796  0.3655 -1.8425
 5059TIP3    H236593   6.280   5.615  16.420  1.2876 -0.8091  0.6948
 5060TIP3   OH236594   1.258   2.177  15.562  0.2760 -0.1814 -0.5966
 5060TIP3    H136595   1.230   2.093  15.525 -2.1872 -1.5385  3.6931
 5060TIP3    H236596   1.344   2.160  15.599  0.0869 -0.6006 -0.3469
 5061TIP3   OH236597   6.312   1.746  12.107  0.1306  0.3249 -0.1699
 5061TIP3    H136598   6.383   1.723  12.168 -0.5512 -1.1906  0.0955
 5061TIP3    H236599   6.290   1.837  12.128  0.6304  0.1609  1.1163
 5062TIP3   OH236600   2.287   4.802  13.830  0.2321  0.0525  0.2608
 5062TIP3    H136601   2.326   4.885  13.857 -0.6561  0.1399  1.3445
 5062TIP3    H236602   2.342   4.771  13.758 -0.6226  2.6252 -1.6360
 5063TIP3   OH236603   6.318   2.705  13.212 -0.1186 -0.4101  0.0505
 5063TIP3    H136604   6.382   2.659  13.157  0.4474 -0.1771  0.4982
 5063TIP3    H236605   6.274   2.765  13.152  0.0248 -0.6322 -0.2817
 5064TIP3   OH236606   4.709   5.639  13.067  0.9525  0.4723  0.5940
 5064TIP3    H136607   4.746   5.552  13.083 -0.2531  0.1555  1.8636
 5064TIP3    H236608   4.652   5.655  13.142  1.2886  2.4536  0.4853
 5065TIP3   OH236609   0.906   6.327  16.213 -0.0371 -0.1338 -0.4054
 5065TIP3    H136610   0.827   6.354  16.168 -0.5448 -0.1286  0.4731
 5065TIP3    H236611   0.967   6.400  16.202 -1.2985  1.3492  1.7249
 5066TIP3   OH236612   0.663   3.907  12.214  0.2671  0.0153  0.3093
 5066TIP3    H136613   0.583   3.867  12.249  0.8196  0.2541  1.9241
 5066TIP3    H236614   0.645   4.001  12.214 -0.1734 -0.0434 -1.2713
 5067TIP3   OH236615   5.063   4.665  12.272  0.2297  0.1786  0.2977
 5067TIP3    H136616   5.024   4.719  12.340  2.0636  0.6833  0.9975
 5067TIP3    H236617   5.107   4.727  12.213  1.5546 -0.4371  0.5855
 5068TIP3   OH236618   6.619   3.821   1.940 -0.2593  0.5575 -0.0704
 5068TIP3    H136619   6.575   3.739   1.920 -0.2946  0.9548 -1.7967
 5068TIP3    H236620   6.683   3.833   1.869  0.2156  1.6873  0.5082
 5069TIP3   OH236621   1.295   5.183  14.792  0.1087  0.5205  0.4106
 5069TIP3    H136622   1.355   5.256  14.775 -2.5491  3.3715  2.2656
 5069TIP3    H236623   1.316   5.154  14.880  2.6673 -2.7556 -1.0712
 5070TIP3   OH236624   0.467   5.640   2.189  0.4751  0.0437 -0.0163
 5070TIP3    H136625   0.400   5.708   2.179  0.9466  0.7546  1.4648
 5070TIP3    H236626   0.428   5.577   2.250  1.3254  0.7240  1.2614
 5071TIP3   OH236627   2.170   2.576   0.162 -0.1313  0.0715 -0.3077
 5071TIP3    H136628   2.094   2.556   0.108  0.3602 -0.1405 -0.9353
 5071TIP3    H236629   2.207   2.655   0.123  1.2024 -1.0275 -1.3561
 5072TIP3   OH236630   4.029   5.172  13.154  0.3635 -0.7203  0.7116
 5072TIP3    H136631   3.946   5.188  13.198 -0.6045 -0.9413 -0.9356
 5072TIP3    H236632   4.035   5.241  13.088  0.2088 -2.1743 -0.8934
 5073TIP3   OH236633   2.433   0.162  14.079  0.0919  0.5045 -0.2728
 5073TIP3    H136634   2.463   0.108  14.006  0.4904  0.1598  0.1457
 5073TIP3    H236635   2.463   0.251  14.057  1.8653  0.0896  0.3736
 5074TIP3   OH236636   3.114   3.529  12.380 -0.7720  0.5292 -0.1111
 5074TIP3    H136637   3.115   3.623  12.396  0.1944  0.5462 -0.2410
 5074TIP3    H236638   3.188   3.513  12.323 -1.4115 -0.2063 -0.7586
 5075TIP3   OH236639   3.679   4.329  11.653  0.1026 -0.2764 -0.1983
 5075TIP3    H136640   3.711   4.245  11.688  0.6364  0.0497  0.1107
 5075TIP3    H236641   3.591   4.338  11.688  0.0931 -0.6451 -0.1227
 5076TIP3   OH236642   5.756   4.892  12.274 -0.5052 -0.0547  0.1107
 5076TIP3    H136643   5.817   4.825  12.306  0.8290  0.4782 -1.1952
 5076TIP3    H236644   5.714   4.925  12.353  0.3370 -0.9811  0.9884
 5077TIP3   OH236645   3.662   3.833  10.993  0.2267  0.4120  0.2226
 5077TIP3    H136646   3.747   3.813  11.031  0.8506  0.2899 -1.1805
 5077TIP3    H236647   3.682   3.883  10.913 -0.8678 -1.3356 -1.2209
 5078TIP3   OH236648   1.968   0.882   3.952  0.8450  0.4729  0.0206
 5078TIP3    H136649   1.887   0.841   3.922  0.7803 -0.0780  0.9108
 5078TIP3    H236650   1.943   0.926   4.034  0.8473  2.5527 -1.0451
 5079TIP3   OH236651   3.603   6.696  14.318  0.6639  0.0511  0.6139
 5079TIP3    H136652   3.668   6.636  14.279 -0.6439 -0.9540 -0.1078
 5079TIP3    H236653   3.615   6.686  14.412  2.3267  0.7671  0.5133
 5080TIP3   OH236654   1.843   1.952   4.040  0.3653 -0.2438 -0.3061
 5080TIP3    H136655   1.880   2.009   4.108 -0.2795 -1.9466  1.5640
 5080TIP3    H236656   1.751   1.977   4.035 -0.2864 -2.0312  1.6138
 5081TIP3   OH236657   2.015   0.561  14.846 -0.5261 -0.3224  0.0262
 5081TIP3    H136658   1.938   0.581  14.793 -0.6925  1.0190  0.7356
 5081TIP3    H236659   2.032   0.468  14.829 -0.1055  0.1895 -2.9357
 5082TIP3   OH236660   0.713   4.963   5.053 -0.5376 -0.2747  0.3357
 5082TIP3    H136661   0.621   4.988   5.060 -0.8317 -0.6700 -1.6367
 5082TIP3    H236662   0.734   4.973   4.960  0.9138 -1.8585  0.4408
 5083TIP3   OH236663   4.180   1.689   5.977 -0.6470  0.6588 -0.1502
 5083TIP3    H136664   4.266   1.653   6.000 -0.5195  0.7492 -0.4828
 5083TIP3    H236665   4.118   1.620   6.001 -0.3697  0.0241 -1.2016
 5084TIP3   OH236666   1.850   0.113  15.763  0.2047  0.3307  0.0209
 5084TIP3    H136667   1.790   0.110  15.838 -0.4916  0.3013 -0.5271
 5084TIP3    H236668   1.934   0.085  15.799 -0.1308  0.2648  0.7817
 5085TIP3   OH236669   1.562   4.750   5.106  0.7249 -0.0262 -0.1154
 5085TIP3    H136670   1.644   4.792   5.131  0.0945  0.9259  0.4227
 5085TIP3    H236671   1.578   4.657   5.118  1.4678  0.2029  0.7907
 5086TIP3   OH236672   2.893   0.824   1.936  0.2303 -0.4010  0.3357
 5086TIP3    H136673   2.853   0.742   1.906 -0.9523  0.5175 -0.7017
 5086TIP3    H236674   2.899   0.814   2.031  2.4375 -2.6816  0.0706
 5087TIP3   OH236675   2.354   5.102  11.879 -0.0287 -0.9753 -0.3109
 5087TIP3    H136676   2.381   5.086  11.970  2.5625  1.8675 -0.4127
 5087TIP3    H236677   2.391   5.030  11.830  1.0613 -1.0384  0.5631
 5088TIP3   OH236678   3.131   6.660   3.118  0.0311 -0.4212 -0.3338
 5088TIP3    H136679   3.069   6.730   3.099  0.6518  0.4691  0.7763
 5088TIP3    H236680   3.130   6.605   3.040 -2.9911 -1.1242  0.1114
 5089TIP3   OH236681   4.628   6.107  16.504  0.4291  0.0001 -0.1668
 5089TIP3    H136682   4.539   6.137  16.483  0.2089  1.1811  2.1289
 5089TIP3    H236683   4.619   6.063  16.589  1.7037 -1.8869 -0.9535
 5090TIP3   OH236684   4.963   5.615  11.689  0.1855  0.4397  0.3316
 5090TIP3    H136685   4.891   5.666  11.651 -1.3745 -0.1790  2.2782
 5090TIP3    H236686   4.980   5.546  11.625 -0.5307  0.9532 -0.4349
 5091TIP3   OH236687   6.129   6.577   2.543  0.1735 -0.2781 -0.1967
 5091TIP3    H136688   6.208   6.624   2.569 -0.0867 -1.0650  2.2216
 5091TIP3    H236689   6.077   6.642   2.496 -0.0756  1.9003  2.7831
 5092TIP3   OH236690   2.720   5.309   4.416 -0.5333  0.1726  0.3519
 5092TIP3    H136691   2.677   5.349   4.492 -2.3683  1.3179 -1.2037
 5092TIP3    H236692   2.701   5.215   4.425  0.9849 -0.0180  2.2943
 5093TIP3   OH236693   0.719   3.578  14.109  0.3515 -0.3427  0.4297
 5093TIP3    H136694   0.693   3.668  14.090  1.5704 -0.0625 -0.0210
 5093TIP3    H236695   0.640   3.537  14.145 -0.2854  0.8315  0.4191
 5094TIP3   OH236696   0.422   3.696   0.542  0.5631  0.4481  0.0936
 5094TIP3    H136697   0.332   3.674   0.568  0.8807 -2.0252 -0.5970
 5094TIP3    H236698   0.455   3.750   0.613 -1.4426  1.3907  0.3842
 5095TIP3   OH236699   2.161   0.039   2.805  0.4500  0.1320  0.2080
 5095TIP3    H136700   2.074   0.008   2.828  1.0004 -1.0055  0.8723
 5095TIP3    H236701   2.169   0.124   2.850 -1.4128  1.8064 -2.3716
 5096TIP3   OH236702   1.553   6.512   0.970 -0.0517 -0.2607  0.0208
 5096TIP3    H136703   1.559   6.529   0.876 -0.3972  0.9304  0.1954
 5096TIP3    H236704   1.599   6.429   0.983  0.6121 -0.0801 -1.0909
 5097TIP3   OH236705   2.322   6.728   1.294  0.9785  0.0548  0.2071
 5097TIP3    H136706   2.312   6.773   1.209 -0.5738  0.4731  0.5711
 5097TIP3    H236707   2.411   6.748   1.321  0.7857  1.8204 -0.2983
 5098TIP3   OH236708   0.588   5.236  12.713 -0.3113  0.6601  0.0637
 5098TIP3    H136709   0.535   5.164  12.746 -0.1769  0.6261  0.2050
 5098TIP3    H236710   0.678   5.202  12.711 -0.2850  0.7341 -0.1249
 5099TIP3   OH236711   1.142   5.451   1.485  0.5704 -0.1803  0.1469
 5099TIP3    H136712   1.070   5.478   1.428 -0.0199 -0.3110  0.8126
 5099TIP3    H236713   1.218   5.497   1.452  0.4201 -0.9184 -1.2826
 5100TIP3   OH236714   4.889   4.923  14.326  0.0391 -0.1355  0.0088
 5100TIP3    H136715   4.899   4.948  14.418  2.3076  0.1089 -0.2470
 5100TIP3    H236716   4.875   5.005  14.280  0.6932 -0.0562 -0.0556
 5101TIP3   OH236717   1.801   2.417  10.380  0.0359 -0.0747 -0.2444
 5101TIP3    H136718   1.833   2.327  10.384 -3.7341 -1.5316  1.1132
 5101TIP3    H236719   1.877   2.470  10.405  2.0010 -2.9734  0.4532
 5102TIP3   OH236720   1.864   4.865  16.509  0.5414 -0.5983 -0.0460
 5102TIP3    H136721   1.897   4.831  16.425  0.4851  0.0438 -0.3336
 5102TIP3    H236722   1.815   4.791  16.547  0.7558 -0.9678 -0.4704
 5103TIP3   OH236723   5.902   4.502   3.400  0.0617  0.2467 -0.9166
 5103TIP3    H136724   5.946   4.587   3.395 -0.8073  0.6684 -1.7139
 5103TIP3    H236725   5.908   4.467   3.311  1.7032 -1.2267 -0.2981
 5104TIP3   OH236726   6.667   1.725   2.500 -0.1331 -0.4659  0.3880
 5104TIP3    H136727   6.580   1.749   2.470  0.7161  0.1765 -1.7774
 5104TIP3    H236728   6.726   1.756   2.431  1.7652 -1.4530  1.4645
 5105TIP3   OH236729   1.889   3.466   3.464  0.8834  0.1766  0.0843
 5105TIP3    H136730   1.841   3.458   3.382 -1.5072 -0.0034  1.4114
 5105TIP3    H236731   1.953   3.536   3.448  1.0949 -0.4597 -2.1517
 5106TIP3   OH236732   0.535   0.758  10.450  0.1086  0.1948 -0.0271
 5106TIP3    H136733   0.591   0.835  10.463 -0.3897  0.9545 -1.9610
 5106TIP3    H236734   0.537   0.712  10.534  0.9842  1.9484  0.9767
 5107TIP3   OH236735   4.828   3.812  16.047 -0.3045 -0.0291  0.3391
 5107TIP3    H136736   4.861   3.774  15.966  0.5320  1.6804 -0.1820
 5107TIP3    H236737   4.907   3.844  16.092 -0.8440 -0.1478  1.3948
 5108TIP3   OH236738   4.592   2.067   4.100  0.4380  0.0797 -0.8052
 5108TIP3    H136739   4.625   2.153   4.124 -0.1018  0.6019 -1.8702
 5108TIP3    H236740   4.663   2.027   4.050  0.3696  0.2473 -1.0372
 5109TIP3   OH236741   0.722   0.333  16.968  0.4124  0.2740 -1.0256
 5109TIP3    H136742   0.768   0.348  16.885 -1.9215  0.7563 -2.3068
 5109TIP3    H236743   0.629   0.341  16.946 -0.2689  1.2058  1.8143
 5110TIP3   OH236744   0.027   5.255   3.309 -0.3428 -0.1964 -0.3791
 5110TIP3    H136745   0.011   5.348   3.290  0.8585 -0.1104 -1.0313
 5110TIP3    H236746  -0.013   5.209   3.235 -1.4317 -0.2538  0.2206
 5111TIP3   OH236747   2.475   3.396   0.404  0.1228  0.1671 -0.0425
 5111TIP3    H136748   2.541   3.347   0.454 -1.8178 -0.3058  2.2853
 5111TIP3    H236749   2.429   3.447   0.471 -0.8552  1.6622 -1.7959
 5112TIP3   OH236750   6.559   5.080   1.603 -0.4695  0.4706 -0.2564
 5112TIP3    H136751   6.550   5.117   1.515 -0.9294  1.6190  0.2563
 5112TIP3    H236752   6.591   5.153   1.656 -0.9312 -0.0009  0.6837
 5113TIP3   OH236753   1.772   5.507  13.694  0.7519 -0.2915  0.3046
 5113TIP3    H136754   1.700   5.560  13.730  1.3781 -1.2125  3.2041
 5113TIP3    H236755   1.751   5.418  13.722  1.6271 -1.0132 -1.2531
 5114TIP3   OH236756   3.776   1.133   2.521 -0.2002  0.6072 -0.0221
 5114TIP3    H136757   3.755   1.129   2.428 -3.1914  1.5888  0.4883
 5114TIP3    H236758   3.751   1.048   2.556 -1.7009  1.1125  0.2471
 5115TIP3   OH236759   2.778   5.098  14.702  0.4754  0.0325 -0.0812
 5115TIP3    H136760   2.745   5.152  14.774 -3.9642  0.1929 -1.8902
 5115TIP3    H236761   2.769   5.008  14.734 -0.1733  0.1508  0.0942
 5116TIP3   OH236762   5.830   0.076   0.271  0.2693 -0.0371  0.1921
 5116TIP3    H136763   5.782   0.032   0.200  0.9510 -0.3246 -0.0992
 5116TIP3    H236764   5.809   0.169   0.260 -1.5837 -0.3023  1.1061
 5117TIP3   OH236765   1.883   0.621   0.961  0.3899  0.0951  0.9947
 5117TIP3    H136766   1.963   0.645   0.914 -0.1044 -0.2431 -0.0703
 5117TIP3    H236767   1.855   0.701   1.005 -0.0156  0.9125 -0.6617
 5118TIP3   OH236768   1.144   1.635   1.760 -0.1377  0.0026 -0.2112
 5118TIP3    H136769   1.140   1.730   1.747  0.8236 -0.0379 -0.8588
 5118TIP3    H236770   1.072   1.617   1.820 -0.6304  1.0797 -0.4430
 5119TIP3   OH236771   3.599   4.761   5.693  0.0965 -0.0161  0.2241
 5119TIP3    H136772   3.654   4.839   5.690  0.7870 -0.4881  0.1568
 5119TIP3    H236773   3.518   4.790   5.734  0.3559  0.7255  0.2289
 5120TIP3   OH236774   0.648   0.594  13.526 -0.2618 -0.6992 -0.5498
 5120TIP3    H136775   0.631   0.687  13.512 -1.2605 -0.4291  2.0561
 5120TIP3    H236776   0.733   0.579  13.483  0.0480  1.4539 -0.8003
 5121TIP3   OH236777   3.584   1.189   1.619  0.4393  0.0484 -0.0403
 5121TIP3    H136778   3.517   1.210   1.685  1.8755 -0.2711  1.5966
 5121TIP3    H236779   3.618   1.104   1.646  0.5951 -0.4162 -1.6269
 5122TIP3   OH236780   2.485   1.326   3.554  0.6202 -0.2669  0.1308
 5122TIP3    H136781   2.449   1.391   3.614  1.0798  0.2083 -0.1013
 5122TIP3    H236782   2.440   1.245   3.577  1.5780 -0.3565  1.8827
 5123TIP3   OH236783   6.261   2.416  15.546 -0.2918 -0.1418 -0.4695
 5123TIP3    H136784   6.258   2.505  15.511  2.9208  1.1068  1.9408
 5123TIP3    H236785   6.231   2.424  15.636  0.0754 -1.5273 -0.1942
 5124TIP3   OH236786   3.496   4.716   3.489 -0.6675  0.5121 -0.1904
 5124TIP3    H136787   3.507   4.623   3.511 -1.6929  0.5714  0.6612
 5124TIP3    H236788   3.517   4.762   3.570 -1.7371  0.9160 -0.1289
 5125TIP3   OH236789   4.188   5.339   0.008  0.4810  0.3462 -0.0216
 5125TIP3    H136790   4.170   5.429   0.037 -0.4549 -0.1725  1.0786
 5125TIP3    H236791   4.272   5.345  -0.038  0.2744  1.8374 -0.2602
 5126TIP3   OH236792   3.824   2.592   5.116  0.3599  0.4173  0.3077
 5126TIP3    H136793   3.810   2.660   5.049 -1.1932  1.6719  1.7971
 5126TIP3    H236794   3.918   2.577   5.116  0.4885  0.9130 -1.6181
 5127TIP3   OH236795   2.731   1.883  11.849  0.6312  0.3776 -0.5752
 5127TIP3    H136796   2.734   1.978  11.866 -2.0131  0.4847 -0.1665
 5127TIP3    H236797   2.693   1.876  11.762 -1.2052 -0.2575  0.2255
 5128TIP3   OH236798   1.947   4.952   1.953 -0.1089 -0.0450  0.2491
 5128TIP3    H136799   1.947   5.013   2.027 -2.0739  2.4365 -1.6025
 5128TIP3    H236800   1.854   4.938   1.934  0.3393 -0.8430 -1.5552
 5129TIP3   OH236801   6.292   3.991  11.732  0.4754 -0.6764 -0.4163
 5129TIP3    H136802   6.253   3.978  11.646 -1.9253 -1.7513  0.7422
 5129TIP3    H236803   6.304   4.086  11.739  0.7578 -0.5820 -1.9303
 5130TIP3   OH236804   4.957   2.278   9.869 -0.0523 -0.3526 -0.0682
 5130TIP3    H136805   4.995   2.217   9.932  1.0062 -0.2675 -0.6052
 5130TIP3    H236806   5.029   2.299   9.809 -0.5931  0.8659 -0.3218
 5131TIP3   OH236807   2.449   4.750   6.034 -0.7690 -0.5363  0.1678
 5131TIP3    H136808   2.516   4.701   6.082  0.6486 -0.5627 -1.7412
 5131TIP3    H236809   2.471   4.737   5.942 -1.2876  2.3640 -0.4531
 5132TIP3   OH236810   6.375   3.766   5.425  0.3193  0.1347  0.4732
 5132TIP3    H136811   6.349   3.834   5.487  2.4866  0.5906  0.9740
 5132TIP3    H236812   6.293   3.725   5.398 -1.1856  3.3734 -0.3736
 5133TIP3   OH236813   1.473   4.939  15.531 -0.0083  0.4766  0.4903
 5133TIP3    H136814   1.500   4.878  15.462 -1.0281 -1.0001  1.3345
 5133TIP3    H236815   1.539   5.008  15.530  1.7018 -1.1064  0.0696
 5134TIP3   OH236816   0.452   2.426   0.469  0.2674  0.1996 -0.2970
 5134TIP3    H136817   0.489   2.477   0.397 -0.3820  0.0537 -0.7359
 5134TIP3    H236818   0.528   2.404   0.524  0.6286  1.1413 -0.4071
 5135TIP3   OH236819   2.480   2.159   5.859  0.1919  0.0018  0.0361
 5135TIP3    H136820   2.523   2.105   5.925 -1.0190 -1.1406 -0.0661
 5135TIP3    H236821   2.443   2.232   5.908  0.6076 -0.0193  0.3911
 5136TIP3   OH236822   5.082   6.052   2.494 -0.9607  0.1162  0.0856
 5136TIP3    H136823   4.992   6.054   2.526 -1.2411 -0.7534 -0.6167
 5136TIP3    H236824   5.101   5.959   2.479 -0.4278  0.3818 -1.0665
 5137TIP3   OH236825   6.290   1.640   6.636  0.4045  0.2800 -0.0274
 5137TIP3    H136826   6.202   1.641   6.675  0.9837  3.1817  1.5592
 5137TIP3    H236827   6.347   1.607   6.706  0.8483  0.6472 -0.2102
 5138TIP3   OH236828   0.398   4.141  10.424  0.5993  0.1872 -0.0190
 5138TIP3    H136829   0.458   4.067  10.428 -0.4510 -0.7107 -0.2735
 5138TIP3    H236830   0.437   4.201  10.361  0.7168 -0.8585 -0.9722
 5139TIP3   OH236831   1.798   6.143  15.131 -0.2801 -0.1610 -0.5965
 5139TIP3    H136832   1.861   6.071  15.127 -1.7686 -1.7212  1.7717
 5139TIP3    H236833   1.829   6.205  15.065  3.0005 -1.3829 -0.3956
 5140TIP3   OH236834   0.785   5.361  16.218 -0.2576  0.2610  0.2974
 5140TIP3    H136835   0.734   5.429  16.173 -0.5300 -1.7417 -2.7595
 5140TIP3    H236836   0.874   5.374  16.187  0.0682  0.3398  1.2290
 5141TIP3   OH236837   1.340   6.457  13.676 -0.1588  0.4885  0.4318
 5141TIP3    H136838   1.316   6.427  13.763  0.1763 -3.0858 -0.5745
 5141TIP3    H236839   1.433   6.479  13.682 -0.1170  0.1666  0.9323
 5142TIP3   OH236840   3.259   3.125  16.229  0.3416 -0.8198 -0.2621
 5142TIP3    H136841   3.306   3.058  16.278 -2.1239 -0.6186  2.6906
 5142TIP3    H236842   3.182   3.080  16.195 -0.3745  0.0421  0.1576
 5143TIP3   OH236843   2.858   5.199   2.512  0.1727  0.2230  0.2484
 5143TIP3    H136844   2.844   5.146   2.590 -0.4805  0.6887  0.4520
 5143TIP3    H236845   2.953   5.214   2.510  0.0720  1.1906  1.6117
 5144TIP3   OH236846   2.441   1.062   1.778 -0.1740 -0.4350  0.1742
 5144TIP3    H136847   2.513   1.046   1.840 -1.1223  0.2812  1.5240
 5144TIP3    H236848   2.481   1.053   1.692  0.9292 -2.7310  0.8447
 5145TIP3   OH236849   3.002   5.438  15.791 -0.1390 -0.1348  0.3361
 5145TIP3    H136850   3.036   5.512  15.740 -1.2116 -0.0795 -0.3431
 5145TIP3    H236851   3.078   5.402  15.835  0.7928  0.0036 -1.0871
 5146TIP3   OH236852   4.011   5.879   3.399  0.2355  0.0844 -0.0304
 5146TIP3    H136853   3.924   5.858   3.367  0.1208  1.1997 -0.5080
 5146TIP3    H236854   4.068   5.810   3.363 -0.3825 -0.4437 -0.0045
 5147TIP3   OH236855   4.448   0.532  10.717 -0.2841 -0.1947  0.3313
 5147TIP3    H136856   4.387   0.598  10.685 -0.8770 -0.3524  1.0958
 5147TIP3    H236857   4.533   0.576  10.719 -0.6893  0.5883  0.9448
 5148TIP3   OH236858   2.579   0.041   5.017  0.1424  0.1015 -0.0471
 5148TIP3    H136859   2.601   0.093   5.094  0.7199 -2.8807  1.9868
 5148TIP3    H236860   2.490   0.008   5.035  0.5005 -1.0708 -0.3480
 5149TIP3   OH236861   0.100   2.439  12.126 -0.2482 -0.1370  0.7533
 5149TIP3    H136862   0.156   2.496  12.074  0.3574  0.0059  1.5481
 5149TIP3    H236863   0.140   2.352  12.119 -0.6394 -0.2891  0.3117
 5150TIP3   OH236864   0.891   2.948   2.343  0.0044 -0.2123 -0.3994
 5150TIP3    H136865   0.953   2.970   2.412 -0.8785 -3.2600  1.5933
 5150TIP3    H236866   0.811   2.996   2.366  0.2418  0.1519 -0.3330
 5151TIP3   OH236867   3.810   1.477   5.023  0.0159  0.6329 -0.1402
 5151TIP3    H136868   3.721   1.488   4.991  0.5041 -0.9897 -2.3034
 5151TIP3    H236869   3.801   1.464   5.117 -1.9660  0.9912 -0.2437
 5152TIP3   OH236870   0.955   0.653  12.300  0.0617 -0.2582 -0.7395
 5152TIP3    H136871   0.894   0.677  12.370  0.4336  2.7210 -1.2961
 5152TIP3    H236872   0.952   0.557  12.297 -2.3013 -0.3403  1.2313
 5153TIP3   OH236873   1.432   1.800   4.089 -0.7450 -0.4765  0.1074
 5153TIP3    H136874   1.400   1.824   4.002 -2.9768  2.4481  1.5748
 5153TIP3    H236875   1.369   1.736   4.121 -1.0788 -0.0423  0.3221
 5154TIP3   OH236876   6.125   2.425  13.933  0.1578 -0.5798 -0.0839
 5154TIP3    H136877   6.036   2.435  13.897  0.3245  0.2900 -0.2648
 5154TIP3    H236878   6.132   2.493  13.999 -0.0505 -2.0166  1.4815
 5155TIP3   OH236879   2.388   0.939  13.449  0.5606  0.3702 -0.1646
 5155TIP3    H136880   2.377   0.851  13.412 -0.3562 -0.5084  2.0380
 5155TIP3    H236881   2.309   0.987  13.422  0.4197  0.0879 -0.2535
 5156TIP3   OH236882   2.215   2.748  15.481  0.1665 -0.4287 -1.0483
 5156TIP3    H136883   2.230   2.842  15.472 -0.3758 -0.2267 -0.0232
 5156TIP3    H236884   2.132   2.733  15.434 -0.4162 -0.1533 -0.1334
 5157TIP3   OH236885   5.653   4.231   1.126  0.6635  0.5172 -0.6397
 5157TIP3    H136886   5.684   4.223   1.216 -1.1334 -0.1912 -0.0394
 5157TIP3    H236887   5.695   4.310   1.093  1.0491  1.0187  0.9632
 5158TIP3   OH236888   1.057   6.808   0.218 -0.6046 -0.5370 -0.5091
 5158TIP3    H136889   1.107   6.727   0.210  2.0268  1.0641 -1.5794
 5158TIP3    H236890   1.032   6.830   0.128 -0.0207  0.5443 -0.4271
 5159TIP3   OH236891   5.775   3.511   2.480  0.7198  0.3916 -0.3534
 5159TIP3    H136892   5.713   3.459   2.430  1.1044  0.1281 -0.5635
 5159TIP3    H236893   5.843   3.535   2.416  0.3185  1.5268 -0.3731
 5160TIP3   OH236894   5.076   5.144   1.129  0.4057  0.6009  0.2679
 5160TIP3    H136895   5.127   5.156   1.209  1.8820  1.2445 -0.7197
 5160TIP3    H236896   5.002   5.203   1.138 -0.3113 -0.4565  1.8023
 5161TIP3   OH236897   0.693   4.651   3.539 -0.8041  0.4178 -0.5062
 5161TIP3    H136898   0.665   4.713   3.606  1.8089  0.9422  0.2307
 5161TIP3    H236899   0.713   4.705   3.462  1.7181  0.6485  0.2167
 5162TIP3   OH236900   1.110   3.090   5.949  0.2005 -0.2827  0.1297
 5162TIP3    H136901   1.090   3.148   6.023  0.7701  0.2758 -0.1404
 5162TIP3    H236902   1.131   3.006   5.989  1.8088  0.3569  0.7154
 5163TIP3   OH236903   3.216   5.655  15.153 -0.2916 -1.0093  0.0328
 5163TIP3    H136904   3.218   5.564  15.123 -3.1783 -2.1183  2.5925
 5163TIP3    H236905   3.192   5.649  15.245 -0.5040  2.3753  0.3251
 5164TIP3   OH236906   4.243   0.425  13.215 -0.4378  0.0995 -0.5869
 5164TIP3    H136907   4.204   0.404  13.130  0.5021 -0.2542 -0.9483
 5164TIP3    H236908   4.323   0.473  13.193 -0.7333  0.9521  0.1379
 5165TIP3   OH236909   6.493   2.403  13.627 -0.2689  0.0859 -0.3819
 5165TIP3    H136910   6.489   2.434  13.537 -2.1185 -3.2138 -1.5997
 5165TIP3    H236911   6.520   2.312  13.621 -0.9688 -0.4203  2.3439
 5166TIP3   OH236912   5.763   4.276   1.368 -0.4872 -0.5155  0.0224
 5166TIP3    H136913   5.713   4.269   1.449 -0.0646  0.1418  0.3479
 5166TIP3    H236914   5.796   4.366   1.367  1.2809 -1.1109  0.1936
 5167TIP3   OH236915   5.169   6.659   1.608  0.5093 -0.2638 -0.4354
 5167TIP3    H136916   5.104   6.688   1.543 -1.5042 -1.5275  0.9151
 5167TIP3    H236917   5.127   6.586   1.653  1.9842  0.3480  2.0809
 5168TIP3   OH236918   3.427   5.732   0.618  0.2492 -0.0867  0.8671
 5168TIP3    H136919   3.427   5.638   0.632 -2.0463 -0.1284  0.9569
 5168TIP3    H236920   3.517   5.759   0.637  0.6859 -2.0865  1.9218
 5169TIP3   OH236921   1.735   3.307  15.630  0.0415 -0.3083 -0.2594
 5169TIP3    H136922   1.747   3.352  15.547 -0.6562 -0.2117 -0.3130
 5169TIP3    H236923   1.766   3.369  15.696  0.8741 -0.5031 -0.4635
 5170TIP3   OH236924   3.247   3.736  13.227 -0.1481 -0.0773 -0.3325
 5170TIP3    H136925   3.273   3.683  13.152 -0.3515  0.2172 -0.6137
 5170TIP3    H236926   3.330   3.764  13.267 -0.0252 -1.8390  0.7127
 5171TIP3   OH236927   6.483   0.165  12.814 -0.2350  0.0074  0.5052
 5171TIP3    H136928   6.549   0.115  12.766 -0.5978 -0.0261  0.0327
 5171TIP3    H236929   6.413   0.102  12.831  0.8246 -0.6124  3.0890
 5172TIP3   OH236930   1.911   5.948   1.776  0.4521  0.2599 -0.4901
 5172TIP3    H136931   1.937   5.985   1.860 -0.6813  2.0942 -0.8882
 5172TIP3    H236932   1.848   5.880   1.799 -1.4826  2.1536  0.1529
 5173TIP3   OH236933   0.469   1.803  15.610 -0.5135  0.5038  0.0384
 5173TIP3    H136934   0.487   1.895  15.629 -2.4694  0.9469 -0.0395
 5173TIP3    H236935   0.522   1.784  15.533 -0.9202  1.9213 -0.6340
 5174TIP3   OH236936   0.940   0.592  15.677  0.4487 -0.0186  0.1429
 5174TIP3    H136937   1.018   0.610  15.731  0.7621  1.7931 -0.8396
 5174TIP3    H236938   0.976   0.561  15.594 -0.0232 -2.4919  0.8059
 5175TIP3   OH236939   5.945   0.867   3.964  0.6090  0.3069 -0.0065
 5175TIP3    H136940   6.008   0.837   3.900 -0.4545  1.4870 -1.6861
 5175TIP3    H236941   5.861   0.868   3.917 -0.3495  0.4934  1.6212
 5176TIP3   OH236942   1.675   6.258   2.593  0.7452  0.1052  0.1188
 5176TIP3    H136943   1.656   6.187   2.532  2.0345  0.0878 -0.2783
 5176TIP3    H236944   1.733   6.219   2.659 -1.1334 -0.0566  1.7807
 5177TIP3   OH236945   6.039   2.688   1.465  0.2649 -1.0120  0.3203
 5177TIP3    H136946   6.010   2.645   1.546 -1.1390 -1.7599 -0.5455
 5177TIP3    H236947   6.102   2.626   1.427  0.6591 -0.8220  0.6554
 5178TIP3   OH236948   1.172   0.117   3.255  0.4687 -0.3560 -0.2647
 5178TIP3    H136949   1.235   0.147   3.320 -2.2605  0.2100  2.3874
 5178TIP3    H236950   1.136   0.036   3.291 -1.5199  0.2652 -0.6858
 5179TIP3   OH236951   4.459   2.453  15.925  1.1406  0.2998 -0.0905
 5179TIP3    H136952   4.409   2.391  15.872  1.2573  0.1405 -0.0123
 5179TIP3    H236953   4.471   2.529  15.868  0.2622  0.5933  0.1021
 5180TIP3   OH236954   1.676   3.783  12.647  0.3142  0.0331  0.0092
 5180TIP3    H136955   1.587   3.748  12.648 -0.7404  2.5648  1.3936
 5180TIP3    H236956   1.701   3.787  12.739  1.6974 -0.1405 -0.3354
 5181TIP3   OH236957   2.823   3.573   0.382 -0.1442 -0.6139  0.6911
 5181TIP3    H136958   2.884   3.620   0.324  0.5631 -1.1889  0.9660
 5181TIP3    H236959   2.789   3.502   0.328 -1.5637  0.4389  0.1266
 5182TIP3   OH236960   5.401   0.779  13.924  0.1437 -1.1052  0.2055
 5182TIP3    H136961   5.446   0.761  13.841 -0.0681 -0.1030 -0.1421
 5182TIP3    H236962   5.309   0.783  13.901 -0.0203 -1.8571  0.6890
 5183TIP3   OH236963   2.972   0.480   0.781  0.0823  0.3998  0.1570
 5183TIP3    H136964   2.955   0.387   0.800 -0.2111  0.9521  3.1910
 5183TIP3    H236965   3.028   0.508   0.853  1.4229  2.2590 -1.5404
 5184TIP3   OH236966   4.616   3.076  10.904 -0.3058 -0.2233 -0.0629
 5184TIP3    H136967   4.598   2.984  10.925  0.5700 -0.8046 -1.6678
 5184TIP3    H236968   4.702   3.093  10.943  0.3484 -0.6642 -1.2376
 5185TIP3   OH236969   2.462   0.878  16.285  0.6784 -0.7502 -0.7271
 5185TIP3    H136970   2.473   0.883  16.380  0.8454  0.1034 -0.7901
 5185TIP3    H236971   2.458   0.784  16.267  0.6214 -0.9206  0.1234
 5186TIP3   OH236972   6.147   6.394  13.826 -0.0948  0.3927 -0.3467
 5186TIP3    H136973   6.093   6.449  13.770 -0.5385  0.4327  0.1167
 5186TIP3    H236974   6.111   6.406  13.914 -0.1918 -0.6266 -0.2307
 5187TIP3   OH236975   5.367   1.805   3.858  0.3900 -0.7354 -0.7246
 5187TIP3    H136976   5.360   1.758   3.940 -1.0172  0.5419 -0.0522
 5187TIP3    H236977   5.436   1.870   3.873  0.1542 -0.5223 -0.5658
 5188TIP3   OH236978   0.401   6.771   0.394 -0.2466  0.0521  0.1738
 5188TIP3    H136979   0.323   6.796   0.345  0.7207  0.5463 -1.1695
 5188TIP3    H236980   0.399   6.676   0.395 -0.2750  0.0322 -0.8694
 5189TIP3   OH236981   0.905   1.837   3.734  0.0372  0.7028 -0.9584
 5189TIP3    H136982   0.884   1.916   3.784  0.4851 -0.0773  0.5314
 5189TIP3    H236983   0.996   1.847   3.708  0.2829  0.4354 -0.2397
 5190TIP3   OH236984   0.067   4.365  12.415  0.9009 -0.7301 -0.7429
 5190TIP3    H136985   0.119   4.421  12.357  0.9173 -0.5384 -0.5450
 5190TIP3    H236986   0.116   4.363  12.497  1.2149 -1.5370 -0.9433
 5191TIP3   OH236987   4.429   1.134   1.628  0.6218 -0.3410  0.0914
 5191TIP3    H136988   4.349   1.177   1.597 -1.6596 -2.1315  2.9859
 5191TIP3    H236989   4.491   1.206   1.640 -0.7810  1.2385 -1.4495
 5192TIP3   OH236990   6.643   3.553  15.286 -0.2199  0.1818 -0.1615
 5192TIP3    H136991   6.645   3.649  15.288  0.4480  0.1650  1.5310
 5192TIP3    H236992   6.711   3.526  15.348  0.6083 -1.4089 -1.6639
 5193TIP3   OH236993   5.177   5.718  16.733 -0.3192 -0.0537  0.2432
 5193TIP3    H136994   5.191   5.811  16.719 -0.3814 -0.1287 -0.3893
 5193TIP3    H236995   5.235   5.675  16.669  0.3737 -0.4715  1.1246
 5194TIP3   OH236996   0.007   4.445  11.677  0.1486  0.3323  0.1119
 5194TIP3    H136997   0.014   4.486  11.763  0.2746  0.5792 -0.0160
 5194TIP3    H236998   0.016   4.517  11.615  0.2290  0.1316 -0.1120
 5195TIP3   OH236999   0.997   1.562  14.717  0.4499  0.0671 -0.3278
 5195TIP3    H137000   0.914   1.585  14.760  0.9612  0.1306  0.6449
 5195TIP3    H237001   0.978   1.479  14.673 -0.1653  0.1450 -0.2262
 5196TIP3   OH237002   0.147   3.929  16.232  0.3271  1.0887  0.3608
 5196TIP3    H137003   0.235   3.908  16.262  0.9445  2.8189 -0.0862
 5196TIP3    H237004   0.161   3.981  16.152 -1.1763 -0.8650 -1.2770
 5197TIP3   OH237005   3.409   4.475  12.297  0.0742 -0.4984 -0.4792
 5197TIP3    H137006   3.378   4.510  12.214  1.1768 -3.0250 -2.0920
 5197TIP3    H237007   3.329   4.459  12.348 -0.5500  2.1782 -0.4978
 5198TIP3   OH237008   0.119   6.391  15.371  0.1185  0.2613 -0.5536
 5198TIP3    H137009   0.066   6.448  15.426  0.0684  1.2576 -1.5972
 5198TIP3    H237010   0.056   6.346  15.314  0.1653 -0.7895  0.1882
 5199TIP3   OH237011   5.335   2.710  14.778 -0.5574 -0.1797 -0.6094
 5199TIP3    H137012   5.403   2.759  14.731  0.2679 -0.2129  0.5092
 5199TIP3    H237013   5.324   2.757  14.861 -2.0331 -0.0814 -0.8350
 5200TIP3   OH237014   5.049   6.740  16.984 -0.2129 -0.0436  0.8523
 5200TIP3    H137015   5.075   6.827  17.014  0.4196 -0.1082  0.4939
 5200TIP3    H237016   5.028   6.752  16.892  0.1050 -0.3176  0.7447
 5201TIP3   OH237017   5.404   3.742  10.768 -0.0601 -0.5704  0.3973
 5201TIP3    H137018   5.343   3.800  10.814  0.9964  0.3953  0.6363
 5201TIP3    H237019   5.440   3.796  10.698  0.6017 -1.0847  0.3332
 5202TIP3   OH237020   1.303   3.273   1.670  0.2629 -0.2504  0.0218
 5202TIP3    H137021   1.210   3.288   1.654  0.4412  0.2223 -0.6024
 5202TIP3    H237022   1.326   3.337   1.737  0.1887 -0.2213  0.0198
 5203TIP3   OH237023   5.812   1.697   2.728  0.4106 -0.5931 -0.6037
 5203TIP3    H137024   5.848   1.774   2.684 -0.1047  0.7991  1.3002
 5203TIP3    H237025   5.878   1.629   2.715  3.2298  1.4633  1.5902
 5204TIP3   OH237026   3.928   4.748  15.811 -0.0695  0.9002  0.2200
 5204TIP3    H137027   3.855   4.775  15.755 -0.4403  0.4260  0.4660
 5204TIP3    H237028   3.938   4.821  15.872  0.3945  1.4559 -0.5079
 5205TIP3   OH237029   2.262   4.245  14.821  0.4707  0.7851  0.3589
 5205TIP3    H137030   2.310   4.201  14.891  0.9828  0.1392 -0.3850
 5205TIP3    H237031   2.303   4.215  14.740 -0.6166  0.9092 -0.2665
 5206TIP3   OH237032   6.540   5.241   4.905 -0.1987  0.8612  0.0410
 5206TIP3    H137033   6.597   5.241   4.828 -0.7096  3.2311 -0.4281
 5206TIP3    H237034   6.593   5.204   4.975  0.6086 -0.4428 -1.2063
 5207TIP3   OH237035   4.524   3.466  12.919 -0.4982  0.1775  0.0992
 5207TIP3    H137036   4.563   3.530  12.860 -1.6347  0.5298 -0.3071
 5207TIP3    H237037   4.551   3.381  12.884  0.9174  0.4061  0.5706
 5208TIP3   OH237038   5.114   6.533  15.520  0.4561  0.4505  0.6356
 5208TIP3    H137039   5.033   6.504  15.563  0.2540 -0.8103 -0.5134
 5208TIP3    H237040   5.090   6.541  15.428  1.5271  0.5432  0.3532
 5209TIP3   OH237041   0.543   2.270  12.461 -0.0612  0.0458  0.4837
 5209TIP3    H137042   0.470   2.315  12.417  0.1942  0.9416  0.9339
 5209TIP3    H237043   0.618   2.285  12.404  0.3281  1.4393  1.3066
 5210TIP3   OH237044   2.639   2.594  15.682 -0.6120  0.9705 -0.2967
 5210TIP3    H137045   2.698   2.663  15.713 -0.4866  1.6422 -1.9477
 5210TIP3    H237046   2.691   2.541  15.622 -1.3670  0.9087 -0.9193
 5211TIP3   OH237047   2.037   0.310   4.643  0.2929 -0.5900  0.2584
 5211TIP3    H137048   2.105   0.255   4.605 -0.0835 -1.0649  0.2720
 5211TIP3    H237049   2.028   0.382   4.580  1.4888  0.0050  0.7366
 5212TIP3   OH237050   6.033   6.544   0.750  0.2070 -0.0362  0.1961
 5212TIP3    H137051   6.039   6.639   0.764 -0.8224  0.1901 -0.7203
 5212TIP3    H237052   5.940   6.527   0.742  0.4325 -0.9764 -0.5968
 5213TIP3   OH237053   5.925   3.425   2.723  0.3487 -0.0716  0.2896
 5213TIP3    H137054   5.895   3.400   2.811  0.9219 -1.8346  0.0224
 5213TIP3    H237055   5.844   3.436   2.673  0.0567 -0.7162  0.6114
 5214TIP3   OH237056   0.803   3.679   2.006 -0.0331  0.4768 -0.2602
 5214TIP3    H137057   0.876   3.717   2.056 -0.4130  1.9893 -0.8135
 5214TIP3    H237058   0.838   3.667   1.918  0.2683 -1.1030  0.0317
 5215TIP3   OH237059   3.263   4.815   2.269  0.0109 -0.1563  0.0418
 5215TIP3    H137060   3.359   4.815   2.266  0.0411 -1.7942 -0.0182
 5215TIP3    H237061   3.237   4.767   2.190 -0.8672  0.1445  0.1402
 5216TIP3   OH237062   4.100   5.283   5.072 -0.6469 -0.3579 -0.0561
 5216TIP3    H137063   4.093   5.293   4.977 -0.9303  1.1186  0.0843
 5216TIP3    H237064   4.192   5.300   5.091  0.0972 -3.5040 -0.2968
 5217TIP3   OH237065   0.248   3.356  16.365 -0.3683 -0.5880  0.8369
 5217TIP3    H137066   0.331   3.352  16.318 -0.5746  1.6975  0.1619
 5217TIP3    H237067   0.272   3.369  16.456  0.0321 -0.0041  0.6546
 5218TIP3   OH237068   1.990   4.062  14.316  0.1588  0.4559 -0.2912
 5218TIP3    H137069   2.053   4.109  14.370 -0.9484 -1.1981  2.6767
 5218TIP3    H237070   1.918   4.123  14.302  0.2631  0.7879  0.5663
 5219TIP3   OH237071   2.966   1.367  16.496  0.2833 -0.2162  0.5584
 5219TIP3    H137072   2.954   1.456  16.462 -0.0712 -0.1241  0.9227
 5219TIP3    H237073   3.019   1.378  16.575  0.0651 -0.3076  0.7175
 5220TIP3   OH237074   3.623   3.970  12.519  0.0704  0.6717 -0.1529
 5220TIP3    H137075   3.550   3.958  12.458  0.8361  1.0817 -1.1860
 5220TIP3    H237076   3.587   3.947  12.604 -1.3977  1.2850 -0.5691
 5221TIP3   OH237077   3.062   3.081  12.567 -0.1179  0.0689  0.3121
 5221TIP3    H137078   2.967   3.092  12.561 -0.1828 -0.9956 -1.1755
 5221TIP3    H237079   3.096   3.171  12.568 -1.0601  0.4831 -1.1373
 5222TIP3   OH237080   6.193   3.953  15.412 -0.3013  0.5791  0.0787
 5222TIP3    H137081   6.140   3.987  15.485 -2.1860 -3.6331  0.9339
 5222TIP3    H237082   6.265   3.907  15.454  0.9249  1.5056 -0.9346
 5223TIP3   OH237083   1.966   2.795   3.619 -0.0812  0.3468  0.1684
 5223TIP3    H137084   1.945   2.720   3.564 -3.7807  1.6739 -0.5488
 5223TIP3    H237085   2.046   2.832   3.581  1.5481 -2.7607  0.2218
 5224TIP3   OH237086   0.549   3.502   4.489 -0.2093  0.3319  1.0728
 5224TIP3    H137087   0.633   3.536   4.520 -0.3092 -0.3583  2.1442
 5224TIP3    H237088   0.503   3.579   4.457  1.3298  0.5530 -0.8179
 5225TIP3   OH237089   6.508   6.012  15.361 -0.4036  0.4072  0.9352
 5225TIP3    H137090   6.454   5.934  15.352 -0.1200  0.3847 -1.0015
 5225TIP3    H237091   6.460   6.068  15.422 -2.6180  0.3573 -0.6326
 5226TIP3   OH237092   0.978   2.153   4.645  0.3147  0.7604 -0.1133
 5226TIP3    H137093   0.886   2.176   4.656  0.8115  2.8540  0.2633
 5226TIP3    H237094   1.019   2.178   4.728  1.1949 -0.2957 -0.2119
 5227TIP3   OH237095   1.682   4.491  14.181  0.1773 -0.3593  0.1663
 5227TIP3    H137096   1.761   4.490  14.127 -0.5126 -1.3485 -0.8826
 5227TIP3    H237097   1.613   4.459  14.123 -0.7060 -0.9534  1.4955
 5228TIP3   OH237098   2.566   4.704   1.290  0.2280 -0.2837  0.0015
 5228TIP3    H137099   2.554   4.797   1.273  0.2021 -0.3593 -0.4103
 5228TIP3    H237100   2.579   4.698   1.384 -0.7161  0.0376  0.1673
 5229TIP3   OH237101   1.242   6.394  13.952 -0.3095  0.0881  0.4922
 5229TIP3    H137102   1.197   6.385  14.035  1.2730  0.3369  1.4291
 5229TIP3    H237103   1.294   6.314  13.943  0.4489  0.5817  0.3437
 5230TIP3   OH237104   4.316   4.463  13.795 -0.0828  0.1614 -0.2576
 5230TIP3    H137105   4.375   4.432  13.727  0.1814  4.0272 -1.9879
 5230TIP3    H237106   4.349   4.422  13.875  0.1467 -3.8115 -2.1544
 5231TIP3   OH237107   6.428   1.073  17.090  0.1420  0.1935 -0.1740
 5231TIP3    H137108   6.358   1.008  17.085  0.7675 -0.4225 -1.7885
 5231TIP3    H237109   6.477   1.062  17.008  0.8067  2.1135 -0.0909
 5232TIP3   OH237110   5.281   0.332  14.934  0.3528 -0.0408 -0.9021
 5232TIP3    H137111   5.235   0.258  14.973 -0.4660  0.6883 -0.4328
 5232TIP3    H237112   5.323   0.375  15.009 -0.0479  0.5558 -1.0111
 5233TIP3   OH237113   0.916   2.545   6.183 -0.2424  0.4412 -0.5443
 5233TIP3    H137114   0.939   2.638   6.180 -0.4679  0.5188  0.1082
 5233TIP3    H237115   0.843   2.540   6.245  0.3846 -0.2964  0.1534
 5234TIP3   OH237116   2.650   6.176  11.331  0.1194 -0.2656 -0.0352
 5234TIP3    H137117   2.599   6.140  11.404  0.1912 -3.0368 -1.1953
 5234TIP3    H237118   2.586   6.219  11.275 -0.6768 -1.8901 -0.4315
 5235TIP3   OH237119   6.109   6.794  14.599  0.2980  0.5552  0.1558
 5235TIP3    H137120   6.197   6.829  14.585  0.8201  0.1969  2.1561
 5235TIP3    H237121   6.124   6.701  14.617 -0.4005  0.6119  1.1130
 5236TIP3   OH237122   2.479   6.055  13.628  0.1592 -0.3283 -0.3900
 5236TIP3    H137123   2.563   6.081  13.668 -0.0401  0.0819 -0.2322
 5236TIP3    H237124   2.496   6.059  13.533  1.1005 -2.8077 -0.4069
 5237TIP3   OH237125   0.413   4.536   2.536  0.0404 -0.5745 -0.3637
 5237TIP3    H137126   0.501   4.537   2.574 -1.1026 -1.2404  2.6300
 5237TIP3    H237127   0.410   4.458   2.482  0.9761 -1.1249  0.3615
 5238TIP3   OH237128   0.233   3.993  12.350 -0.2960  0.6044 -0.0527
 5238TIP3    H137129   0.144   4.025  12.365 -0.6393  0.0813 -0.9066
 5238TIP3    H237130   0.235   3.969  12.257  1.3689  2.6033 -0.6300
 5239TIP3   OH237131   5.477   4.905  11.530 -0.1072  0.4947 -0.3298
 5239TIP3    H137132   5.395   4.924  11.576  1.2536  0.4475  2.3623
 5239TIP3    H237133   5.465   4.941  11.443 -2.5438  1.5502  0.3521
 5240TIP3   OH237134   5.472   2.086   3.745  0.1367  0.4056 -0.2480
 5240TIP3    H137135   5.548   2.029   3.750  0.6190  1.0788  0.1445
 5240TIP3    H237136   5.502   2.162   3.694  0.5774  1.9630  2.1837
 5241TIP3   OH237137   2.443   1.686  16.342  0.1426 -0.2859  0.1809
 5241TIP3    H137138   2.416   1.620  16.278 -0.9099 -1.2080  1.5179
 5241TIP3    H237139   2.535   1.666  16.359  0.3008 -0.3325 -0.6612
 5242TIP3   OH237140   5.782   0.162  11.315  0.5157  0.0577 -0.0214
 5242TIP3    H137141   5.710   0.135  11.258  1.0229  1.0524 -1.1733
 5242TIP3    H237142   5.837   0.083  11.323 -0.3416 -0.5154  0.3372
 5243TIP3   OH237143   2.802   6.482   3.500 -0.3934  1.3748  0.3020
 5243TIP3    H137144   2.890   6.502   3.469 -1.0538  2.0560 -1.2714
 5243TIP3    H237145   2.796   6.386   3.494 -0.4317  1.4606 -1.6430
 5244TIP3   OH237146   3.750   1.520  15.129  0.3373  0.2974 -0.5555
 5244TIP3    H137147   3.754   1.564  15.044  0.5693  1.9683  0.2685
 5244TIP3    H237148   3.683   1.568  15.178  0.8169 -0.0733  0.5050
 5245TIP3   OH237149   2.702   6.506   3.178  0.0398 -0.2868  0.4725
 5245TIP3    H137150   2.676   6.439   3.241  0.2598 -0.0209  0.8535
 5245TIP3    H237151   2.756   6.459   3.114 -0.7508 -0.6905  0.0943
 5246TIP3   OH237152   2.060   1.905  11.123  0.0162  0.0068 -0.6996
 5246TIP3    H137153   2.090   1.882  11.212  0.3265  2.5466 -0.0692
 5246TIP3    H237154   1.970   1.936  11.135 -0.7528 -1.7253 -1.6622
 5247TIP3   OH237155   0.743   5.056  12.319 -0.4528  0.2835 -0.1374
 5247TIP3    H137156   0.738   5.037  12.226 -1.2452  0.2792 -0.1009
 5247TIP3    H237157   0.756   4.971  12.361 -0.9632  0.1721 -0.1913
 5248TIP3   OH237158   0.411   5.262  11.456  0.1656 -0.0349  0.7602
 5248TIP3    H137159   0.424   5.305  11.372  1.2852  0.0225  0.9473
 5248TIP3    H237160   0.499   5.253  11.493 -0.3489  0.6166  2.2550
 5249TIP3   OH237161   1.327   2.157  16.872  0.0794 -0.0955 -0.1487
 5249TIP3    H137162   1.357   2.067  16.882 -0.1063 -0.0238  1.3434
 5249TIP3    H237163   1.243   2.159  16.918  0.2136  0.8974  0.0717
 5250TIP3   OH237164   1.435   3.402  13.500 -0.9214  0.4809 -0.0647
 5250TIP3    H137165   1.381   3.343  13.553  1.1378 -0.0651  1.5458
 5250TIP3    H237166   1.488   3.343  13.446  0.9324  0.7762  1.3364
 5251TIP3   OH237167   6.684   3.711   0.731 -0.0247  0.4084  0.4081
 5251TIP3    H137168   6.682   3.766   0.809  1.1750  2.4587 -0.9028
 5251TIP3    H237169   6.688   3.621   0.765 -1.6872  1.0765  2.6383
 5252TIP3   OH237170   4.847   3.466  12.987 -0.3517 -0.3174  0.2577
 5252TIP3    H137171   4.796   3.547  12.976  1.2089  0.7683  0.6070
 5252TIP3    H237172   4.811   3.426  13.066  1.0112  1.8228  2.1081
 5253TIP3   OH237173   3.924   6.481  12.391  0.3591  0.7260  0.2527
 5253TIP3    H137174   3.919   6.576  12.390  2.2404  0.8893 -1.5738
 5253TIP3    H237175   4.017   6.461  12.391  0.0532 -1.0641 -1.1399
 5254TIP3   OH237176   3.596   4.085  14.187  0.8588  0.2088 -0.3880
 5254TIP3    H137177   3.607   4.043  14.272  1.5239 -0.0181 -0.5817
 5254TIP3    H237178   3.685   4.098  14.155  0.6594  1.3220 -0.5512
 5255TIP3   OH237179   0.467   4.982   3.644  0.3299 -0.3641  0.2939
 5255TIP3    H137180   0.457   5.051   3.710  3.4969 -1.0638  1.6648
 5255TIP3    H237181   0.386   4.931   3.651 -0.1898  0.6237  2.4145
 5256TIP3   OH237182   0.552   0.998   1.684  0.2972  0.4908 -0.0485
 5256TIP3    H137183   0.575   0.926   1.741 -2.6365  1.4623  2.6439
 5256TIP3    H237184   0.602   1.072   1.717 -1.4627  1.0726  1.4834
 5257TIP3   OH237185   0.160   6.673   0.236 -0.5703 -0.4335 -0.3085
 5257TIP3    H137186   0.104   6.642   0.165 -0.2552 -0.6131 -0.4805
 5257TIP3    H237187   0.131   6.624   0.313 -1.2070  0.0740 -0.2066
 5258TIP3   OH237188   4.217   5.383   2.099  0.3134 -0.1852 -0.1249
 5258TIP3    H137189   4.190   5.431   2.020  1.3511  1.8444  0.7036
 5258TIP3    H237190   4.168   5.424   2.170  1.9210  0.3185  0.7342
 5259TIP3   OH237191   6.615   5.552   5.199  0.3849 -0.6015 -1.2512
 5259TIP3    H137192   6.550   5.613   5.164  0.4326 -0.7690 -1.6397
 5259TIP3    H237193   6.588   5.538   5.290  0.6738  0.3955 -1.0001
 5260TIP3   OH237194   4.638   0.015   4.494 -0.2562  0.8461  0.6469
 5260TIP3    H137195   4.605   0.008   4.404  1.7172  2.0314 -0.2285
 5260TIP3    H237196   4.573  -0.032   4.546 -2.2049  1.2909 -1.2020
 5261TIP3   OH237197   1.974   5.489   3.648  0.1455  0.0836  0.3064
 5261TIP3    H137198   2.055   5.471   3.600 -0.9283  0.0903 -1.6010
 5261TIP3    H237199   1.991   5.572   3.692  0.5951  1.0794 -1.6039
 5262TIP3   OH237200   3.814   2.827  16.708  0.3263  0.2688  0.0737
 5262TIP3    H137201   3.772   2.742  16.718  2.2882 -0.8712 -0.9847
 5262TIP3    H237202   3.837   2.853  16.798  0.6898 -0.8330  0.3111
 5263TIP3   OH237203   2.449   6.516   4.148  0.5216 -0.7734 -0.2683
 5263TIP3    H137204   2.468   6.598   4.102  1.6087 -0.0388  1.3675
 5263TIP3    H237205   2.510   6.453   4.110  2.2143  0.1020  0.8645
 5264TIP3   OH237206   0.299   3.729  15.375  0.3072  0.1846  0.5147
 5264TIP3    H137207   0.273   3.701  15.462  0.9138 -1.7463  0.1311
 5264TIP3    H237208   0.395   3.737  15.379  0.4997 -1.2861 -0.2782
 5265TIP3   OH237209   0.530   0.196  14.909  0.1548  0.0347 -0.6908
 5265TIP3    H137210   0.561   0.150  14.832  2.8776  1.1678 -0.3872
 5265TIP3    H237211   0.464   0.257  14.876 -0.1203 -0.8117 -1.7713
 5266TIP3   OH237212   0.900   1.080  15.601  0.8893  0.0902  0.8457
 5266TIP3    H137213   0.896   1.169  15.568  0.7994  0.3746  1.5918
 5266TIP3    H237214   0.808   1.054  15.610  0.9174 -0.2102  0.2954
 5267TIP3   OH237215   4.623   2.970   3.186 -0.2269 -0.0670 -0.3639
 5267TIP3    H137216   4.529   2.977   3.199 -0.0964  0.3830  0.4228
 5267TIP3    H237217   4.643   2.879   3.207 -0.3009  0.1756  0.8164
 5268TIP3   OH237218   6.306   3.295   2.828 -0.1959 -0.1324 -0.0612
 5268TIP3    H137219   6.401   3.296   2.840 -0.0887 -2.7069 -0.0512
 5268TIP3    H237220   6.272   3.356   2.893  1.3607 -0.6098  1.2523
 5269TIP3   OH237221   3.761   1.239  15.879  0.4555 -0.0169 -0.5619
 5269TIP3    H137222   3.667   1.231  15.867  0.3593  0.9999 -0.6023
 5269TIP3    H237223   3.799   1.198  15.802  0.0177  0.3688 -0.9891
 5270TIP3   OH237224   0.216   2.291  13.099  0.1472 -0.1368 -0.1068
 5270TIP3    H137225   0.169   2.373  13.119  0.7365 -0.0319  0.9063
 5270TIP3    H237226   0.166   2.252  13.027 -0.9031  0.4744  0.2659
 5271TIP3   OH237227   6.323   4.386   2.083  0.5872 -0.4464 -0.0797
 5271TIP3    H137228   6.378   4.457   2.118  2.1741 -1.2913 -0.7886
 5271TIP3    H237229   6.295   4.418   1.997  1.9233 -0.9617 -0.7250
 5272TIP3   OH237230   2.530   2.014   2.490 -0.3002 -0.1042  0.2003
 5272TIP3    H137231   2.600   1.961   2.528 -1.3906 -2.2928 -0.6579
 5272TIP3    H237232   2.568   2.101   2.481  1.5755 -0.6971  1.7174
 5273TIP3   OH237233   2.879   0.600  13.761  0.5016  0.6817  0.0074
 5273TIP3    H137234   2.922   0.542  13.698  1.5361 -0.6046  1.7872
 5273TIP3    H237235   2.940   0.604  13.835 -0.4737  2.4534  0.7884
 5274TIP3   OH237236   4.390   0.839  16.525  0.1826  0.1234 -0.2467
 5274TIP3    H137237   4.322   0.876  16.469 -1.2787 -1.3375  0.4715
 5274TIP3    H237238   4.421   0.912  16.577  0.3229  1.1471 -1.6935
 5275TIP3   OH237239   0.959   5.536   6.055  0.0897 -0.1779  0.2000
 5275TIP3    H137240   0.996   5.516   5.969 -3.5301 -1.1596 -1.3364
 5275TIP3    H237241   0.970   5.456   6.105 -0.9437 -0.9130 -0.6869
 5276TIP3   OH237242   0.293   2.992   2.780 -0.5597  0.2904 -0.2166
 5276TIP3    H137243   0.300   3.080   2.744 -1.7007  0.2580 -0.5455
 5276TIP3    H237244   0.320   3.001   2.872 -1.1779  1.0756 -0.1095
 5277TIP3   OH237245   3.945   1.577   3.667 -0.1741 -0.0328 -0.3853
 5277TIP3    H137246   3.987   1.491   3.672 -0.5594 -0.2600 -0.9597
 5277TIP3    H237247   3.994   1.631   3.729 -0.1339 -0.7467  0.2245
 5278TIP3   OH237248   5.658   5.062  15.165 -0.8233 -0.1718  0.0635
 5278TIP3    H137249   5.693   5.150  15.176 -1.2514 -0.1058  0.9133
 5278TIP3    H237250   5.566   5.075  15.144 -0.5118 -0.3704 -1.6221
 5279TIP3   OH237251   1.799   2.788   2.056  0.5832  0.2435  0.2445
 5279TIP3    H137252   1.820   2.805   2.147  1.2107  0.6337  0.0259
 5279TIP3    H237253   1.751   2.705   2.058 -0.9501  1.1034  1.1127
 5280TIP3   OH237254   1.892   4.381  12.843  0.1476  0.0541 -0.2224
 5280TIP3    H137255   1.835   4.312  12.809  1.3180 -0.9129 -0.3293
 5280TIP3    H237256   1.864   4.460  12.797 -2.3498  0.0632  1.1413
 5281TIP3   OH237257   4.026   4.637  14.591  0.0706  0.2449 -0.1697
 5281TIP3    H137258   3.946   4.679  14.624  0.2140  0.0952  0.3861
 5281TIP3    H237259   4.006   4.615  14.500 -0.5121  0.2331 -0.0419
 5282TIP3   OH237260   4.682   3.615  15.233 -0.5043  0.2520  0.1101
 5282TIP3    H137261   4.740   3.590  15.305 -1.1260  2.4784  1.4720
 5282TIP3    H237262   4.700   3.708  15.219 -1.2426  0.1488 -1.8698
 5283TIP3   OH237263   4.064   3.952  11.564 -0.4959  0.5808 -0.7657
 5283TIP3    H137264   4.060   3.887  11.494  0.5166  1.0582 -1.2826
 5283TIP3    H237265   4.079   4.035  11.519 -0.2138  0.9553 -0.0032
 5284TIP3   OH237266   6.677   0.168   2.659 -0.2373 -0.3286  0.1639
 5284TIP3    H137267   6.713   0.193   2.745 -0.2822 -0.9150  0.3580
 5284TIP3    H237268   6.715   0.082   2.642 -0.3897 -0.2985 -0.3157
 5285TIP3   OH237269   1.988   3.125  11.220 -0.2839 -0.5661  0.0057
 5285TIP3    H137270   2.001   3.211  11.179 -2.3580 -0.2438 -0.1074
 5285TIP3    H237271   2.061   3.072  11.189  1.5739  1.3714  0.7921
 5286TIP3   OH237272   5.301   6.164  13.008  0.2167 -0.3343  0.4808
 5286TIP3    H137273   5.351   6.233  13.051  0.4170 -0.1161 -0.0951
 5286TIP3    H237274   5.220   6.207  12.981  0.3174 -0.3435  0.1710
 5287TIP3   OH237275   6.047   1.851   3.067  0.4884 -0.4351  0.2026
 5287TIP3    H137276   6.098   1.808   3.136  0.2931  0.2911  0.8115
 5287TIP3    H237277   5.963   1.805   3.068  0.9672 -1.3573 -0.5193
 5288TIP3   OH237278   0.424   2.298   0.878  0.9500 -0.0298  0.0713
 5288TIP3    H137279   0.411   2.369   0.815 -0.0351 -1.3531 -1.3207
 5288TIP3    H237280   0.396   2.334   0.962  1.4956  1.5395 -0.3892
 5289TIP3   OH237281   4.807   4.321  14.903 -0.1857  0.3952 -0.5592
 5289TIP3    H137282   4.871   4.250  14.909 -0.1039  0.2859 -2.2379
 5289TIP3    H237283   4.726   4.283  14.937  0.4288  0.2919  0.8524
 5290TIP3   OH237284   4.829   3.550   5.498  0.1966  0.3925  0.3557
 5290TIP3    H137285   4.760   3.565   5.562  0.0033  2.1010 -0.1904
 5290TIP3    H237286   4.910   3.572   5.544  0.0543  1.6568  0.0499
 5291TIP3   OH237287   0.262   6.717   5.252  0.2164  0.1491  0.3260
 5291TIP3    H137288   0.242   6.775   5.178 -0.4974 -1.3442 -0.7190
 5291TIP3    H237289   0.324   6.766   5.305 -0.1865  1.7628 -0.6187
 5292TIP3   OH237290   3.398   3.482  13.416 -1.3267  0.3678  0.0831
 5292TIP3    H137291   3.407   3.391  13.389  1.3378  0.8141 -0.7978
 5292TIP3    H237292   3.404   3.479  13.512 -1.3881 -0.3932  0.0682
 5293TIP3   OH237293   4.634   2.736   3.320 -0.3855  0.1776 -0.0911
 5293TIP3    H137294   4.550   2.689   3.319 -0.3182  0.0326 -1.5816
 5293TIP3    H237295   4.640   2.772   3.409 -1.8203 -0.1578  0.1794
 5294TIP3   OH237296   5.321   1.724   1.411  0.4851  0.7234  1.1085
 5294TIP3    H137297   5.235   1.685   1.398  1.5991 -1.3429 -0.8047
 5294TIP3    H237298   5.359   1.675   1.483  1.5016 -1.2213 -0.6474
 5295TIP3   OH237299   6.419   4.371   6.269  0.4675 -0.0978 -0.1376
 5295TIP3    H137300   6.410   4.326   6.185 -0.4324 -0.4148  0.1205
 5295TIP3    H237301   6.483   4.440   6.252  1.2831 -0.9889 -0.7330
 5296TIP3   OH237302   1.575   6.369  16.063  0.5987 -0.1967  0.3941
 5296TIP3    H137303   1.521   6.290  16.066 -0.5113  0.5531  1.9009
 5296TIP3    H237304   1.593   6.389  16.155  1.4678  0.9091  0.0084
 5297TIP3   OH237305   6.814   4.902   1.111 -0.0637  0.2413  0.6550
 5297TIP3    H137306   6.725   4.899   1.075  0.4663 -0.9485 -0.6379
 5297TIP3    H237307   6.804   4.876   1.203 -0.9398 -0.7680  0.2841
 5298TIP3   OH237308   0.016   2.020   3.077 -0.9430  0.7172 -0.4984
 5298TIP3    H137309  -0.071   2.025   3.118 -0.8232  5.5266 -0.2236
 5298TIP3    H237310   0.075   2.057   3.143  0.7072  0.8195 -1.9657
 5299TIP3   OH237311   3.230   3.102   0.828 -0.4087 -0.5224  0.0685
 5299TIP3    H137312   3.253   3.009   0.838 -0.4582 -0.7821 -1.8955
 5299TIP3    H237313   3.231   3.117   0.734 -0.4632  1.4805  0.3514
 5300TIP3   OH237314   2.318   6.215  15.458 -0.0918  0.8037 -0.0032
 5300TIP3    H137315   2.328   6.137  15.404 -0.2034  1.5113 -1.0861
 5300TIP3    H237316   2.362   6.193  15.540  1.0130  0.0629 -0.7620
 5301TIP3   OH237317   3.836   6.281  14.037  0.4964 -0.0615 -0.0852
 5301TIP3    H137318   3.797   6.364  14.010  0.1525  0.1114  0.9039
 5301TIP3    H237319   3.762   6.227  14.065  0.7108 -0.7302 -0.7776
 5302TIP3   OH237320   2.101   4.308   0.671  0.0828 -0.2122  0.1543
 5302TIP3    H137321   2.048   4.233   0.644 -0.2328  0.1580 -0.2847
 5302TIP3    H237322   2.182   4.300   0.621 -0.2184  0.0879 -0.4087
 5303TIP3   OH237323   2.121   6.511  12.251 -0.1126  0.0190 -0.3062
 5303TIP3    H137324   2.098   6.588  12.199 -1.6044 -1.2458 -1.6164
 5303TIP3    H237325   2.038   6.468  12.269  0.6750 -1.2408  0.4670
 5304TIP3   OH237326   5.707   1.719  11.249 -0.4732  0.5294  0.0818
 5304TIP3    H137327   5.621   1.758  11.233 -0.2250  1.0829  0.0571
 5304TIP3    H237328   5.764   1.794  11.269  0.3019  0.3166 -1.2205
 5305TIP3   OH237329   3.384   3.082   0.114  0.2720  0.2496 -0.0539
 5305TIP3    H137330   3.442   3.106   0.042  2.0076 -1.1823  0.7843
 5305TIP3    H237331   3.427   3.007   0.155  0.6862  2.4743  4.0141
 5306TIP3   OH237332   6.381   6.356  14.179 -0.5998  0.0059 -0.4751
 5306TIP3    H137333   6.286   6.366  14.188 -0.6503 -0.3853 -0.5544
 5306TIP3    H237334   6.400   6.272  14.220 -0.3208 -0.0375 -0.6926
 5307TIP3   OH237335   6.307   3.991   5.548  0.3273 -0.0675  0.3538
 5307TIP3    H137336   6.214   4.009   5.561  0.0737 -1.6915  1.1178
 5307TIP3    H237337   6.340   4.067   5.500 -0.4910  2.5095  3.5065
 5308TIP3   OH237338   5.729   3.850  12.243  0.4888  0.1050 -0.5681
 5308TIP3    H137339   5.790   3.848  12.170  0.6272  1.3259 -0.5016
 5308TIP3    H237340   5.766   3.788  12.306 -0.4090 -2.0870 -2.0833
 5309TIP3   OH237341   1.480   3.476  10.573  0.1611  0.3492  0.8697
 5309TIP3    H137342   1.487   3.383  10.548 -0.7180  0.9009 -1.7902
 5309TIP3    H237343   1.398   3.505  10.533  1.9782  3.0317 -1.3119
 5310TIP3   OH237344   5.985   5.366  11.868  0.2422  0.2232  0.6038
 5310TIP3    H137345   5.966   5.442  11.813  1.0094  0.1917  0.2769
 5310TIP3    H237346   5.985   5.292  11.807  1.7980  0.2809  0.4969
 5311TIP3   OH237347   3.546   2.266   4.363  0.2172  0.2126  0.5049
 5311TIP3    H137348   3.593   2.324   4.423  0.1664  0.2482  0.5109
 5311TIP3    H237349   3.579   2.179   4.382 -0.2685  0.1377  1.0385
 5312TIP3   OH237350   5.852   0.584   1.872  0.7761 -0.0573  0.0029
 5312TIP3    H137351   5.824   0.557   1.784 -1.6154  0.5919  0.4773
 5312TIP3    H237352   5.927   0.528   1.892 -1.0653 -3.0723 -0.8873
 5313TIP3   OH237353   1.120   3.724  13.999  0.0292  0.2669 -0.2909
 5313TIP3    H137354   1.128   3.676  13.917  1.8573 -1.1728  0.6754
 5313TIP3    H237355   1.046   3.683  14.044  0.5328 -0.5369 -0.1949
 5314TIP3   OH237356   0.506   2.883  14.450  0.0326  0.1470 -0.1917
 5314TIP3    H137357   0.490   2.976  14.469  1.4572  0.1793  0.9908
 5314TIP3    H237358   0.581   2.860  14.504  0.8413 -1.2396 -1.8319
 5315TIP3   OH237359   5.306   0.055   1.801  0.3311 -0.1473  0.0027
 5315TIP3    H137360   5.311  -0.017   1.738  1.1730  1.9350 -2.4364
 5315TIP3    H237361   5.221   0.096   1.785  0.7786  0.7292 -0.1399
 5316TIP3   OH237362   0.121   0.301  13.886 -0.0644  0.2070 -0.1582
 5316TIP3    H137363   0.029   0.324  13.881  0.0031  0.9298  1.4619
 5316TIP3    H237364   0.164   0.359  13.824 -0.4340  1.5104  0.7686
 5317TIP3   OH237365   6.184   5.129   3.095  0.5326 -0.4039 -0.4252
 5317TIP3    H137366   6.213   5.212   3.131  0.5620 -0.4965 -0.2365
 5317TIP3    H237367   6.153   5.079   3.170  0.2332 -0.4496 -0.5758
 5318TIP3   OH237368   2.610   1.159   5.902 -0.0389 -0.2023 -0.2774
 5318TIP3    H137369   2.579   1.224   5.839  0.6161 -1.0950 -1.5658
 5318TIP3    H237370   2.532   1.112   5.931 -0.3290  0.1506 -0.4911
 5319TIP3   OH237371   3.836   5.658  10.698 -0.1012  0.2030 -0.8395
 5319TIP3    H137372   3.885   5.636  10.777  0.9058  1.2226 -1.1528
 5319TIP3    H237373   3.864   5.595  10.633  0.6054  0.6036 -0.9348
 5320TIP3   OH237374   5.114   3.647  12.122 -0.0046 -0.3239 -0.0565
 5320TIP3    H137375   5.157   3.674  12.203  0.0035  0.3440 -0.2783
 5320TIP3    H237376   5.171   3.580  12.086  0.5875  0.1858 -0.0841
 5321TIP3   OH237377   0.751   0.279   1.210  0.1129 -0.4996 -0.1369
 5321TIP3    H137378   0.832   0.234   1.187  0.6097  1.1248 -1.8705
 5321TIP3    H237379   0.738   0.341   1.138 -2.6088 -0.6175  0.1495
 5322TIP3   OH237380   4.866   5.822   4.750  0.8469  0.1199 -0.3756
 5322TIP3    H137381   4.957   5.801   4.731  0.8007 -0.7329  0.2860
 5322TIP3    H237382   4.815   5.777   4.683  0.9950  2.5935 -2.2708
 5323TIP3   OH237383   0.024   1.055  12.280  0.2143 -0.7789  0.0717
 5323TIP3    H137384  -0.018   1.138  12.260  0.1812 -0.1917  2.3131
 5323TIP3    H237385   0.028   1.009  12.196 -1.1388  0.8429 -0.9423
 5324TIP3   OH237386   0.424   4.426  11.644  0.3445  0.1381  0.3631
 5324TIP3    H137387   0.458   4.507  11.606  1.8828 -0.2622  0.8256
 5324TIP3    H237388   0.457   4.357  11.587  1.1871 -0.3304  1.3731
 5325TIP3   OH237389   1.321   3.333  14.374  1.2732 -0.2431  0.4855
 5325TIP3    H137390   1.310   3.426  14.395  1.8466  0.1494 -0.8282
 5325TIP3    H237391   1.232   3.303  14.356  1.1035  0.0996  0.7216
 5326TIP3   OH237392   5.045   4.935  16.167  0.0231 -0.0713 -0.5030
 5326TIP3    H137393   5.101   4.878  16.115  4.0712  2.4256  0.5998
 5326TIP3    H237394   5.054   5.021  16.126 -2.8913  0.5687 -0.0148
 5327TIP3   OH237395   4.618   1.505  13.068 -0.1629  0.1445  0.1806
 5327TIP3    H137396   4.629   1.554  12.986  1.6412  0.5389  0.6107
 5327TIP3    H237397   4.642   1.415  13.046 -5.0643 -1.1685 -1.0307
 5328TIP3   OH237398   5.705   6.567   2.444 -0.4115 -0.1382  0.2323
 5328TIP3    H137399   5.637   6.549   2.509 -1.2494  2.8700  0.3390
 5328TIP3    H237400   5.661   6.557   2.360 -0.1726 -0.9517  0.1921
 5329TIP3   OH237401   2.708   3.309  14.327  0.6433 -0.8745  0.4048
 5329TIP3    H137402   2.796   3.334  14.299 -0.3647  0.2011 -2.1687
 5329TIP3    H237403   2.675   3.255  14.255 -0.9279 -0.9477  1.1408
 5330TIP3   OH237404   0.679   1.429  12.138  0.0909  0.4539 -0.1782
 5330TIP3    H137405   0.665   1.515  12.178  0.6999  0.7990 -0.6868
 5330TIP3    H237406   0.649   1.438  12.048 -1.6318 -0.4325  0.2571
 5331TIP3   OH237407   4.563   1.682   4.293 -0.1089 -0.1028 -0.3995
 5331TIP3    H137408   4.607   1.616   4.239  0.0452 -0.2296 -0.1233
 5331TIP3    H237409   4.516   1.738   4.231 -2.1025 -1.7986 -0.5439
 5332TIP3   OH237410   5.995   3.252   3.895  0.5740 -0.2159 -0.1388
 5332TIP3    H137411   5.918   3.195   3.895  0.3630 -0.0672 -2.7179
 5332TIP3    H237412   6.055   3.209   3.834  2.2431  0.0897  1.2352
 5333TIP3   OH237413   2.442   0.644   5.504 -0.8138  0.2886  0.6479
 5333TIP3    H137414   2.369   0.695   5.470 -0.7876  0.2665  0.5581
 5333TIP3    H237415   2.458   0.680   5.592 -1.3639 -0.1554  0.9321
 5334TIP3   OH237416   0.308   6.397  12.979  0.3680  0.0645  0.1285
 5334TIP3    H137417   0.309   6.485  12.941 -0.7011  0.2070  0.3890
 5334TIP3    H237418   0.302   6.338  12.904 -0.0266  0.2713 -0.0059
 5335TIP3   OH237419   5.979   3.118   2.357  0.1811 -0.1486 -0.2478
 5335TIP3    H137420   6.074   3.106   2.361  0.0361 -1.4397 -0.1441
 5335TIP3    H237421   5.944   3.056   2.421 -0.7740 -0.3805 -0.9652
 5336TIP3   OH237422   5.392   3.467   5.979  0.0358  0.2920  0.1732
 5336TIP3    H137423   5.320   3.526   5.960  0.9421  2.1218  2.1108
 5336TIP3    H237424   5.413   3.482   6.071  2.4123 -0.6889 -0.1289
 5337TIP3   OH237425   1.689   2.886  11.728  0.0458 -0.4651  0.0912
 5337TIP3    H137426   1.667   2.961  11.782 -0.2206 -1.3425  1.2383
 5337TIP3    H237427   1.623   2.886  11.658  0.0909  0.3955  0.0456
 5338TIP3   OH237428   0.327   3.068   5.382  0.4582  0.0101 -0.3248
 5338TIP3    H137429   0.410   3.113   5.399 -0.3827  2.1079 -1.3906
 5338TIP3    H237430   0.260   3.129   5.413 -0.7190 -1.9145  1.1254
 5339TIP3   OH237431   3.434   5.999   5.419  0.2836 -0.4325 -0.2794
 5339TIP3    H137432   3.468   6.088   5.423  0.8349 -0.4615 -2.6033
 5339TIP3    H237433   3.484   5.951   5.485  0.3287  0.8621  0.6501
 5340TIP3   OH237434   2.108   0.582  12.753  0.0346 -0.2035  0.0857
 5340TIP3    H137435   2.039   0.639  12.719  2.6028  4.2116  1.4733
 5340TIP3    H237436   2.077   0.555  12.839 -0.5007  0.7016  0.1898
 5341TIP3   OH237437   6.133   6.598   1.481 -0.0687 -0.0805 -0.1568
 5341TIP3    H137438   6.183   6.618   1.402 -1.3165 -0.4929 -1.0813
 5341TIP3    H237439   6.176   6.521   1.517 -0.5727 -1.0096 -1.4669
 5342TIP3   OH237440   5.263   4.264  12.507 -0.5298 -0.6653  0.0316
 5342TIP3    H137441   5.284   4.180  12.549 -1.2075 -0.3694  1.0161
 5342TIP3    H237442   5.176   4.250  12.469 -0.7014 -0.3749  0.3110
 5343TIP3   OH237443   2.698   6.168  14.601  0.0429  0.2671  0.6586
 5343TIP3    H137444   2.628   6.166  14.666 -1.3738 -0.4021 -0.8101
 5343TIP3    H237445   2.660   6.128  14.523  1.6126  1.1714 -0.6526
 5344TIP3   OH237446   4.419   6.017  12.575 -0.1848  0.3396  0.0465
 5344TIP3    H137447   4.375   5.965  12.508 -1.3722 -2.0984  2.4888
 5344TIP3    H237448   4.347   6.054  12.627  0.6961  1.8487  0.2422
 5345TIP3   OH237449   4.981   6.092  12.242  0.2060 -0.3941  0.4811
 5345TIP3    H137450   5.009   6.127  12.157 -0.2633 -0.7443  0.1776
 5345TIP3    H237451   4.944   6.168  12.288 -0.7497 -0.4714 -0.1472
 5346TIP3   OH237452   5.904   0.133   2.745  0.0096  0.4203 -0.5369
 5346TIP3    H137453   5.981   0.153   2.693  1.3385 -1.4422  0.5832
 5346TIP3    H237454   5.843   0.092   2.684  0.4231  0.7505 -1.1757
 5347TIP3   OH237455   3.611   4.377   2.503 -0.1760  0.0030  0.0234
 5347TIP3    H137456   3.618   4.382   2.598  1.0386 -2.4388  0.1434
 5347TIP3    H237457   3.552   4.304   2.487 -0.6407  0.6014 -1.1150
 5348TIP3   OH237458   4.839   1.633  12.701  0.5676 -0.3821 -0.5373
 5348TIP3    H137459   4.846   1.615  12.608 -0.0689 -0.4696 -0.5727
 5348TIP3    H237460   4.864   1.725  12.709 -0.4547 -0.0459 -0.9579
 5349TIP3   OH237461   5.106   0.895   6.092 -0.4610 -0.0341  0.0343
 5349TIP3    H137462   5.144   0.969   6.138  0.1525 -1.1331  1.3935
 5349TIP3    H237463   5.155   0.889   6.010  1.2053 -0.3996  1.0009
 5350TIP3   OH237464   6.589   1.271   4.201 -0.3049 -0.1363  0.2140
 5350TIP3    H137465   6.638   1.347   4.170  0.4662 -0.4504  0.6542
 5350TIP3    H237466   6.619   1.257   4.291  2.6456 -3.3650 -1.0443
 5351TIP3   OH237467   4.432   2.082   2.265  0.3348 -0.3398  0.5188
 5351TIP3    H137468   4.474   2.168   2.276  0.0012  0.4542 -3.1369
 5351TIP3    H237469   4.505   2.022   2.248  0.3371  0.0372 -0.8516
 5352TIP3   OH237470   2.281   1.470   1.970  0.4589  0.7339  0.0732
 5352TIP3    H137471   2.276   1.474   2.066 -0.4439  1.4483  0.0230
 5352TIP3    H237472   2.275   1.562   1.943  1.0359  0.5590 -0.6568
 5353TIP3   OH237473   2.772   2.437  11.254  0.0433  0.2100 -0.4489
 5353TIP3    H137474   2.747   2.484  11.333 -0.6128 -0.0327 -0.5015
 5353TIP3    H237475   2.727   2.353  11.261  0.4622 -0.0449 -0.7927
 5354TIP3   OH237476   5.044   4.106   0.705 -0.2937  0.1507 -0.1211
 5354TIP3    H137477   4.991   4.170   0.751 -3.0958 -1.0287 -1.4920
 5354TIP3    H237478   5.115   4.157   0.666  0.0987  1.6808  2.3533
 5355TIP3   OH237479   3.729   5.365   3.703 -0.3372  0.7922  0.2170
 5355TIP3    H137480   3.660   5.321   3.753  0.5532  0.6064  1.3096
 5355TIP3    H237481   3.792   5.295   3.684 -0.0047  1.1485  0.0062
 5356TIP3   OH237482   1.616   5.807   1.902 -0.4412  0.2819  0.0656
 5356TIP3    H137483   1.626   5.886   1.956 -0.5457  0.4627 -0.1732
 5356TIP3    H237484   1.527   5.777   1.920 -0.7129  0.7171 -0.4894
 5357TIP3   OH237485   3.466   4.915  16.124  0.3511  0.8975 -0.3541
 5357TIP3    H137486   3.535   4.976  16.099  1.1773 -0.3767 -1.3001
 5357TIP3    H237487   3.475   4.842  16.063  0.4605 -0.9613  1.7583
 5358TIP3   OH237488   6.325   6.594  15.404 -0.1104  0.2589 -0.2720
 5358TIP3    H137489   6.244   6.575  15.452  0.3694 -2.3987 -0.3297
 5358TIP3    H237490   6.303   6.577  15.312  1.0859 -3.5381 -0.0563
 5359TIP3   OH237491   3.606   2.023   2.114  0.2227 -0.0293  0.0155
 5359TIP3    H137492   3.544   1.959   2.078 -0.4781  0.5545  0.1661
 5359TIP3    H237493   3.570   2.108   2.089  0.3403  0.3510  1.1019
 5360TIP3   OH237494   0.887   6.041  11.658 -0.7039 -0.5414 -0.0331
 5360TIP3    H137495   0.820   5.982  11.694 -0.6904  0.1372  1.1865
 5360TIP3    H237496   0.849   6.075  11.577 -1.4774 -0.8294  0.2016
 5361TIP3   OH237497   6.297   1.159   0.360 -0.9189 -0.0481 -0.2054
 5361TIP3    H137498   6.240   1.174   0.285 -0.5563  0.9035 -0.2971
 5361TIP3    H237499   6.386   1.173   0.326 -0.5690 -1.9213 -0.1704
 5362TIP3   OH237500   3.436   4.191  16.311 -0.0602 -0.1043 -0.4090
 5362TIP3    H137501   3.378   4.123  16.345  1.5061 -1.1173  0.3975
 5362TIP3    H237502   3.497   4.208  16.383 -0.3270  2.0816 -0.6491
 5363TIP3   OH237503   1.660   5.030   1.186 -0.4989  0.0307 -0.1334
 5363TIP3    H137504   1.694   5.119   1.175 -0.5741  0.0906  0.1113
 5363TIP3    H237505   1.669   4.990   1.100  0.4304 -0.0404 -0.0177
 5364TIP3   OH237506   0.037   1.040   2.402  0.0919  0.3945 -0.0588
 5364TIP3    H137507  -0.003   1.098   2.337 -0.0023 -0.1070 -0.4510
 5364TIP3    H237508   0.110   0.998   2.356  0.1091  0.1378  0.1978
 5365TIP3   OH237509   2.725   4.869   2.943  0.1803  0.0322  0.4162
 5365TIP3    H137510   2.644   4.917   2.957 -0.3099 -0.9279  0.9556
 5365TIP3    H237511   2.699   4.790   2.895  0.5423 -1.0194  1.8741
 5366TIP3   OH237512   0.373   4.843   1.134  0.0600 -0.1728  0.2868
 5366TIP3    H137513   0.422   4.840   1.216  1.9331  0.3180 -0.7530
 5366TIP3    H237514   0.317   4.920   1.141  1.4590  0.8506  0.4493
 5367TIP3   OH237515   2.820   1.170  13.181  0.1105 -0.0145 -0.2056
 5367TIP3    H137516   2.871   1.096  13.148 -0.7818 -0.5632 -0.4002
 5367TIP3    H237517   2.733   1.133  13.199  0.0927  0.6373  1.1974
 5368TIP3   OH237518   4.350   6.008   1.888 -0.4929  0.1809 -0.3449
 5368TIP3    H137519   4.328   6.014   1.795  1.6882 -2.0927 -1.1262
 5368TIP3    H237520   4.418   6.073   1.901  1.1326 -1.2924 -1.0913
 5369TIP3   OH237521   4.457   3.236  16.825  0.2947 -1.1181  0.2511
 5369TIP3    H137522   4.423   3.218  16.913 -1.5880  1.7328  0.2305
 5369TIP3    H237523   4.514   3.312  16.837 -0.8740  0.0223 -1.0911
 5370TIP3   OH237524   1.247   2.026   4.201  0.8702 -0.0418 -0.5893
 5370TIP3    H137525   1.233   2.070   4.117 -0.7423  0.3897 -0.1311
 5370TIP3    H237526   1.255   1.933   4.179  1.1551  0.1434 -1.2868
 5371TIP3   OH237527   1.037   0.277   5.860  0.1718 -0.3416  0.4751
 5371TIP3    H137528   1.078   0.285   5.947 -0.1148  1.2943  0.4931
 5371TIP3    H237529   0.943   0.276   5.878  0.1274 -1.0832  0.2355
 5372TIP3   OH237530   0.605   5.022  12.078  0.1383 -0.0472  0.1966
 5372TIP3    H137531   0.596   5.098  12.021 -1.0067  0.5632  1.1592
 5372TIP3    H237532   0.516   4.997  12.100  0.5371  0.1362  2.2225
 5373TIP3   OH237533   4.470   0.340   4.435  0.0523 -0.0253  0.2939
 5373TIP3    H137534   4.482   0.431   4.409  0.7892 -0.3709 -0.6184
 5373TIP3    H237535   4.524   0.290   4.375  0.2492 -1.0217  1.2601
 5374TIP3   OH237536   3.486   3.958  11.144  0.1480 -0.2527 -0.0884
 5374TIP3    H137537   3.530   3.937  11.062 -0.6092  0.3775 -0.6710
 5374TIP3    H237538   3.510   3.887  11.203 -0.8215 -1.7455 -1.4231
 5375TIP3   OH237539   6.045   5.727  15.668 -0.3357  0.0658 -0.5696
 5375TIP3    H137540   6.076   5.638  15.654  1.4713  0.7769 -1.4557
 5375TIP3    H237541   6.059   5.771  15.584  2.5460  2.1836  0.8240
 5376TIP3   OH237542   0.473   5.189  15.339  0.3065  0.1577  0.4248
 5376TIP3    H137543   0.388   5.232  15.328  0.7045  1.5999  2.4576
 5376TIP3    H237544   0.452   5.103  15.376 -0.2605  1.1433  2.5619
 5377TIP3   OH237545   1.776   3.973   1.115 -0.1567 -0.4043 -0.0701
 5377TIP3    H137546   1.813   4.021   1.041 -1.1563 -1.1549 -1.0926
 5377TIP3    H237547   1.846   3.972   1.180  0.1009  1.8677 -0.2535
 5378TIP3   OH237548   2.184   4.016  12.001  0.5319  0.6143 -0.0697
 5378TIP3    H137549   2.162   3.947  12.064  2.2842  1.4383  1.5377
 5378TIP3    H237550   2.203   4.093  12.055 -0.4410  2.1251 -1.7790
 5379TIP3   OH237551   2.370   5.848   4.703 -0.3406  0.8059  0.4274
 5379TIP3    H137552   2.353   5.929   4.656  0.4677  1.5414  1.3607
 5379TIP3    H237553   2.400   5.876   4.789 -1.3341 -0.4826  1.2498
 5380TIP3   OH237554   1.514   0.750   2.563  0.2669  0.0628 -0.6673
 5380TIP3    H137555   1.577   0.678   2.561  0.8699  0.5934 -1.2519
 5380TIP3    H237556   1.541   0.808   2.492 -0.1659  0.9025 -0.1649
 5381TIP3   OH237557   2.931   6.065  16.436 -0.5336 -0.1032  0.7598
 5381TIP3    H137558   2.930   6.128  16.508  1.6765  1.0813 -0.1245
 5381TIP3    H237559   2.984   6.108  16.368 -0.7415 -2.0600 -0.7274
 5382TIP3   OH237560   3.517   5.278   6.491 -0.1578  0.3277 -0.3818
 5382TIP3    H137561   3.521   5.374   6.496 -0.4271  0.3312 -0.1828
 5382TIP3    H237562   3.578   5.255   6.422  0.6994  0.5788  0.2679
 5383TIP3   OH237563   5.334   1.125  16.112 -0.3901  0.0330 -0.0630
 5383TIP3    H137564   5.300   1.075  16.187  0.4442  1.0098  0.9893
 5383TIP3    H237565   5.420   1.087  16.095  0.9240  1.9682  1.7119
 5384TIP3   OH237566   3.737   2.693   1.031 -0.0707 -0.5375  0.2454
 5384TIP3    H137567   3.658   2.672   0.981  0.2416 -0.8283 -0.1395
 5384TIP3    H237568   3.722   2.654   1.117 -0.3401 -0.6095  0.1670
 5385TIP3   OH237569   2.848   1.537  12.573  0.1201 -0.3373 -0.4045
 5385TIP3    H137570   2.772   1.478  12.575  0.6068 -1.0113 -1.1823
 5385TIP3    H237571   2.823   1.610  12.630 -1.2103 -0.4358 -0.8151
 5386TIP3   OH237572   4.193   1.855  16.423  0.1984  0.2369 -0.1421
 5386TIP3    H137573   4.128   1.793  16.390  1.1592 -0.5456 -0.6172
 5386TIP3    H237574   4.273   1.803  16.432  0.3285  0.7487  2.1362
 5387TIP3   OH237575   1.774   1.649  11.064  0.4249  0.8878 -0.6431
 5387TIP3    H137576   1.717   1.599  11.006  1.3873  0.4274 -1.2298
 5387TIP3    H237577   1.779   1.596  11.144  0.9687  0.3083 -1.0425
 5388TIP3   OH237578   3.604   5.287  15.179 -0.3199 -0.1789  0.0201
 5388TIP3    H137579   3.648   5.204  15.163  0.5558  0.3768 -0.5378
 5388TIP3    H237580   3.672   5.353  15.168 -1.3333  0.7372 -1.1210
 5389TIP3   OH237581   5.866   2.882  14.395 -0.0444  0.4493 -0.0888
 5389TIP3    H137582   5.836   2.798  14.431 -0.1203  0.3186 -0.4566
 5389TIP3    H237583   5.862   2.870  14.300 -2.7521  1.7796 -0.2541
 5390TIP3   OH237584   3.350   5.919  16.350 -0.4469  0.1838 -0.0560
 5390TIP3    H137585   3.351   5.998  16.403 -0.9873 -0.1190  0.4173
 5390TIP3    H237586   3.273   5.927  16.295 -0.0951  0.3220 -0.5390
 5391TIP3   OH237587   3.769   2.631  14.775  0.2074  0.5232  0.6580
 5391TIP3    H137588   3.794   2.606  14.686  1.0341  1.0571  0.7316
 5391TIP3    H237589   3.694   2.575  14.795 -1.7294  2.2362 -1.3566
 5392TIP3   OH237590   6.305   1.644  15.193 -0.4738  0.1858 -0.0918
 5392TIP3    H137591   6.286   1.557  15.227 -0.9641  0.7657  1.1743
 5392TIP3    H237592   6.334   1.694  15.269  0.9792  0.8142 -1.0077
 5393TIP3   OH237593   0.805   4.307   0.508  0.3998 -0.2293  0.5233
 5393TIP3    H137594   0.714   4.290   0.485  1.0679 -0.5103 -2.2181
 5393TIP3    H237595   0.855   4.245   0.455  2.2665  0.9701  0.7839
 5394TIP3   OH237596   6.223   5.270  13.085 -0.8688 -0.5472 -0.6269
 5394TIP3    H137597   6.186   5.355  13.061  0.9500 -0.0883 -2.1038
 5394TIP3    H237598   6.155   5.227  13.135 -1.8415  1.8038  0.2211
 5395TIP3   OH237599   4.738   3.107  10.301  0.3295 -0.5391  0.4648
 5395TIP3    H137600   4.706   3.046  10.367 -0.3689 -1.1807 -0.4380
 5395TIP3    H237601   4.834   3.107  10.313  0.3884 -2.1670  0.1966
 5396TIP3   OH237602   2.342   3.131   3.225 -0.5869  0.2971 -0.7419
 5396TIP3    H137603   2.281   3.130   3.151 -3.1503  0.5069  1.2078
 5396TIP3    H237604   2.351   3.224   3.248  0.0629  0.2218 -0.6668
 5397TIP3   OH237605   6.791   0.922   6.563 -0.4156 -0.5968 -0.6676
 5397TIP3    H137606   6.867   0.868   6.540  0.0178 -0.2751 -0.0448
 5397TIP3    H237607   6.780   0.908   6.657 -0.7838 -0.2063 -0.6497
 5398TIP3   OH237608   3.133   5.283  16.407  0.0432 -0.1311 -0.8145
 5398TIP3    H137609   3.112   5.321  16.492  1.3672  0.5679 -0.7641
 5398TIP3    H237610   3.105   5.192  16.414  1.8837 -0.6431  1.1269
 5399TIP3   OH237611   1.206   1.448   5.776  0.2740 -0.2378 -0.0191
 5399TIP3    H137612   1.229   1.420   5.865  1.0488  0.4961  0.0215
 5399TIP3    H237613   1.271   1.514   5.754 -0.4728  0.2589 -0.7858
 5400TIP3   OH237614   1.498   0.232   2.129  0.0811  0.1924 -0.0729
 5400TIP3    H137615   1.535   0.259   2.044 -1.3167  1.7571 -0.2366
 5400TIP3    H237616   1.485   0.138   2.120  1.6415  0.0063 -0.9088
 5401TIP3   OH237617   4.199   5.532  10.542 -0.4314 -0.0820 -0.0034
 5401TIP3    H137618   4.268   5.536  10.608 -1.1403 -0.8801  0.7952
 5401TIP3    H237619   4.140   5.604  10.564  0.1938  0.7078 -0.7864
 5402TIP3   OH237620   5.505   3.578   0.995 -0.0864 -0.3861 -0.0989
 5402TIP3    H137621   5.453   3.645   0.951  0.9718  0.8511  0.4729
 5402TIP3    H237622   5.501   3.502   0.937 -0.6351  0.4385 -1.1730
 5403TIP3   OH237623   0.299   0.188  15.230  0.7226 -0.0234  0.1139
 5403TIP3    H137624   0.297   0.202  15.324  2.4288 -1.0716  0.3443
 5403TIP3    H237625   0.392   0.192  15.207  0.5297 -1.6768 -1.1885
 5404TIP3   OH237626   6.702   2.576  14.275 -0.2382  0.7133  0.4021
 5404TIP3    H137627   6.672   2.612  14.359 -3.0459  1.5622 -0.8608
 5404TIP3    H237628   6.625   2.531  14.239  0.3855  1.6938 -2.4146
 5405TIP3   OH237629   1.733   6.607  11.074  0.8109  0.1393 -0.5330
 5405TIP3    H137630   1.686   6.527  11.049  0.2961  0.3643 -0.2989
 5405TIP3    H237631   1.666   6.662  11.115  1.5766 -0.1256  1.1271
 5406TIP3   OH237632   0.403   6.498   1.541 -0.4845 -0.1549  0.2057
 5406TIP3    H137633   0.464   6.571   1.534 -0.7015  0.1117  0.9797
 5406TIP3    H237634   0.327   6.535   1.585 -0.5482 -0.8659  0.7130
 5407TIP3   OH237635   0.536   0.386  15.684  0.0925 -0.8038  0.2436
 5407TIP3    H137636   0.495   0.361  15.767  0.6429 -0.4425  0.6321
 5407TIP3    H237637   0.543   0.481  15.689 -0.4198 -0.7268 -0.4830
 5408TIP3   OH237638   3.405   1.144   2.072 -0.0862 -0.3133  0.3085
 5408TIP3    H137639   3.487   1.130   2.119 -0.0533 -0.5984  0.1709
 5408TIP3    H237640   3.349   1.071   2.100 -1.1915  1.1913  2.3207
 5409TIP3   OH237641   2.989   3.473   6.229 -0.2227 -0.1581  0.2504
 5409TIP3    H137642   3.046   3.422   6.173  0.4711  0.2844  0.5370
 5409TIP3    H237643   3.048   3.519   6.288 -0.8106  1.1018 -0.1041
 5410TIP3   OH237644   2.511   5.987   5.403  0.0549 -0.4004 -0.3191
 5410TIP3    H137645   2.577   5.934   5.446 -1.3434 -1.9358  0.0527
 5410TIP3    H237646   2.469   6.036   5.473 -0.8528 -1.3590 -0.1524
 5411TIP3   OH237647   2.292   4.739   0.459  0.2340 -0.1071  0.4487
 5411TIP3    H137648   2.260   4.827   0.441  1.8884  0.2519 -0.9409
 5411TIP3    H237649   2.288   4.693   0.375  1.0305 -0.7942  0.7655
 5412TIP3   OH237650   5.791   1.103   2.481 -0.4582  0.3127 -0.6369
 5412TIP3    H137651   5.816   1.014   2.455  0.1913  0.6001 -1.0399
 5412TIP3    H237652   5.872   1.154   2.469 -1.1249  1.1930 -1.5271
 5413TIP3   OH237653   4.305   2.129   3.751  0.5960  0.2098  0.3119
 5413TIP3    H137654   4.344   2.086   3.675 -0.6077 -0.4087  0.0179
 5413TIP3    H237655   4.272   2.212   3.717 -0.8050 -0.4791 -0.1050
 5414TIP3   OH237656   6.450   4.886  13.813 -0.1323  0.4340 -0.3804
 5414TIP3    H137657   6.508   4.825  13.768  0.3423 -0.1282  0.9477
 5414TIP3    H237658   6.385   4.831  13.855 -0.0902  0.8804  0.2888
 5415TIP3   OH237659   4.235   1.676  15.910  0.4363  0.7150  0.1344
 5415TIP3    H137660   4.329   1.666  15.929 -0.0305 -0.1356  2.3654
 5415TIP3    H237661   4.209   1.754  15.960 -0.2641  0.2549  0.5026
 5416TIP3   OH237662   1.845   6.302   4.421 -0.0524 -0.0016 -0.0475
 5416TIP3    H137663   1.857   6.244   4.496  0.1572 -1.7588 -1.3957
 5416TIP3    H237664   1.751   6.315   4.416 -0.2750 -1.7520 -0.8206
 5417TIP3   OH237665   1.889   6.635  11.319 -0.0767 -0.1864 -0.2601
 5417TIP3    H137666   1.819   6.634  11.253 -0.5545  1.2047  0.1693
 5417TIP3    H237667   1.967   6.662  11.270  0.0154 -1.0610 -0.6109
 5418TIP3   OH237668   2.766   0.639  12.664  0.1512  0.2411 -0.4382
 5418TIP3    H137669   2.691   0.675  12.617 -0.8200 -0.0686  0.7983
 5418TIP3    H237670   2.737   0.552  12.691  1.0463  0.0283 -0.1193
 5419TIP3   OH237671   5.055   0.570  11.559 -0.1777  0.3328 -0.2342
 5419TIP3    H137672   5.076   0.549  11.467 -1.0881 -0.2347 -0.3203
 5419TIP3    H237673   5.066   0.665  11.564 -0.3525  0.4058 -1.0019
 5420TIP3   OH237674   4.629   5.221   4.708  0.1518 -0.0835 -0.0238
 5420TIP3    H137675   4.577   5.218   4.628  0.8203  0.3629 -0.4737
 5420TIP3    H237676   4.650   5.129   4.726  0.3243 -0.1518 -0.5686
 5421TIP3   OH237677   6.388   1.916   3.654 -0.4710 -0.5148  0.9487
 5421TIP3    H137678   6.325   1.916   3.726 -0.7693 -0.9393  0.6924
 5421TIP3    H237679   6.379   2.002   3.613 -1.4522 -0.8597  0.4212
 5422TIP3   OH237680   3.830   2.458  13.486  0.2344  0.3568  0.4536
 5422TIP3    H137681   3.891   2.510  13.539  0.5268  0.4457  0.0385
 5422TIP3    H237682   3.818   2.510  13.406  0.0903  0.0501  0.2745
 5423TIP3   OH237683   5.821   4.788  11.107  0.3813  0.0031 -0.0347
 5423TIP3    H137684   5.859   4.873  11.131  0.6149  0.3383 -1.4704
 5423TIP3    H237685   5.873   4.759  11.032 -0.1543 -1.0748 -0.0017
 5424TIP3   OH237686   2.361   3.316   5.847  0.2028 -0.6057  0.0453
 5424TIP3    H137687   2.361   3.252   5.775  1.1441 -0.1354 -0.3899
 5424TIP3    H237688   2.272   3.350   5.849 -0.0564 -1.2479 -0.3383
 5425TIP3   OH237689   4.893   2.367  15.008  0.1014 -0.1580 -0.1007
 5425TIP3    H137690   4.840   2.325  14.941 -0.7177 -1.6253  1.3894
 5425TIP3    H237691   4.983   2.349  14.983 -0.2143 -1.7862 -0.1515
 5426TIP3   OH237692   1.238   6.063  14.239  0.5528  0.1440  0.1196
 5426TIP3    H137693   1.220   6.044  14.331  2.3653  0.2658  0.5409
 5426TIP3    H237694   1.198   5.990  14.191  0.6870 -0.6075  1.1173
 5427TIP3   OH237695   0.845   2.134  12.717 -0.5527 -0.2197  0.1158
 5427TIP3    H137696   0.893   2.136  12.800  0.5761 -0.4139 -0.5075
 5427TIP3    H237697   0.829   2.226  12.696  0.7016 -0.0633 -0.2823
 5428TIP3   OH237698   1.229   6.378   1.227  0.1230  0.0647  0.0609
 5428TIP3    H137699   1.324   6.380   1.236  0.0198  1.1646  1.2734
 5428TIP3    H237700   1.198   6.330   1.304 -0.3290  0.1168 -0.0840
 5429TIP3   OH237701   1.731   1.365  14.382 -0.5300 -0.5853  0.3500
 5429TIP3    H137702   1.706   1.456  14.367 -0.2925 -0.5458  0.1860
 5429TIP3    H237703   1.776   1.339  14.302 -1.6745 -1.2286 -0.0946
 5430TIP3   OH237704   0.972   3.161  12.512  0.0605  0.0940  0.9748
 5430TIP3    H137705   0.975   3.253  12.487 -0.6707  0.3288  1.6996
 5430TIP3    H237706   1.062   3.141  12.540  0.3122  0.4759  0.4435
 5431TIP3   OH237707   5.260   3.636  13.732 -0.6347  0.2158  0.3760
 5431TIP3    H137708   5.238   3.563  13.790 -1.1722  0.2630  0.2363
 5431TIP3    H237709   5.176   3.663  13.694 -0.3130  0.2709 -0.3204
 5432TIP3   OH237710   2.404   1.244  11.867 -0.5557  0.2053 -0.0557
 5432TIP3    H137711   2.329   1.297  11.839 -0.0274  1.3551  0.6281
 5432TIP3    H237712   2.401   1.248  11.963 -0.2905 -0.7179  0.0016
 5433TIP3   OH237713   5.834   5.785  15.833  0.0782 -0.0886 -0.2570
 5433TIP3    H137714   5.779   5.817  15.762  1.6246  2.0095 -0.6167
 5433TIP3    H237715   5.904   5.737  15.789  0.5690  0.4872 -0.1263
 5434TIP3   OH237716   0.306   0.471   4.720 -0.0229  0.4930  0.2365
 5434TIP3    H137717   0.386   0.459   4.771  0.7104  0.0077 -0.9829
 5434TIP3    H237718   0.335   0.520   4.643 -0.7321 -0.4255 -0.6321
 5435TIP3   OH237719   3.081   3.064   3.722  0.7402  0.7139 -0.6808
 5435TIP3    H137720   3.065   2.980   3.679  0.2988  0.6107 -0.3188
 5435TIP3    H237721   3.083   3.044   3.815  2.3517  0.8301 -0.6605
 5436TIP3   OH237722   1.758   3.399  14.171  0.7331  0.6538 -0.3964
 5436TIP3    H137723   1.692   3.351  14.222  0.6762  1.6253  0.4819
 5436TIP3    H237724   1.725   3.398  14.081  0.8694 -1.1623 -0.4603
 5437TIP3   OH237725   4.274   0.163   1.008 -0.7849 -0.4493 -0.4316
 5437TIP3    H137726   4.294   0.168   1.101  0.7313 -1.2890 -0.6674
 5437TIP3    H237727   4.281   0.253   0.977  0.3162 -0.3709 -0.0089
 5438TIP3   OH237728   2.972   0.225  11.428  0.2188  0.2359 -0.0472
 5438TIP3    H137729   3.063   0.245  11.407  0.6068 -0.3609  0.9935
 5438TIP3    H237730   2.935   0.309  11.456  0.2986  0.5805 -0.9569
 5439TIP3   OH237731   2.321   0.444  15.820  0.1419  0.2732  0.0995
 5439TIP3    H137732   2.362   0.530  15.824  0.9545  0.0572 -2.1440
 5439TIP3    H237733   2.237   0.460  15.777 -0.1060  0.0643  0.5029
 5440TIP3   OH237734   3.262   6.703  13.812 -0.8775  0.5332 -0.4754
 5440TIP3    H137735   3.184   6.692  13.866 -3.0134 -1.2576 -3.5778
 5440TIP3    H237736   3.243   6.779  13.757 -1.8382 -1.4374 -3.1014
 5441TIP3   OH237737   4.702   6.410  16.377  0.0185  0.2647 -0.5069
 5441TIP3    H137738   4.778   6.447  16.333  0.7325  1.3691  1.5505
 5441TIP3    H237739   4.719   6.316  16.381  2.9783  0.7548  2.8036
 5442TIP3   OH237740   1.746   0.855  15.620 -0.2213 -0.0372  0.2522
 5442TIP3    H137741   1.782   0.933  15.578 -1.3156  0.0751 -0.5223
 5442TIP3    H237742   1.652   0.863  15.608 -0.3871 -1.1933  0.6829
 5443TIP3   OH237743   0.070   6.279  12.920 -0.3086 -0.2375 -0.0676
 5443TIP3    H137744   0.124   6.351  12.951 -1.1410  0.1653  0.4548
 5443TIP3    H237745  -0.019   6.314  12.915 -0.4187 -0.6325 -1.7631
 5444TIP3   OH237746   1.575   6.811  14.308 -0.0650  0.1746 -0.5689
 5444TIP3    H137747   1.620   6.893  14.290 -2.2971  1.4951 -0.5291
 5444TIP3    H237748   1.482   6.830  14.291 -0.5633 -2.6114 -1.4493
 5445TIP3   OH237749   2.417   6.199   1.111  0.0081 -0.4689 -0.0774
 5445TIP3    H137750   2.448   6.221   1.023  0.2963 -0.6252 -0.0164
 5445TIP3    H237751   2.497   6.190   1.163 -0.1745  0.0263  0.2959
 5446TIP3   OH237752   2.054   1.965   3.484 -0.3633 -0.5666 -0.2210
 5446TIP3    H137753   2.083   1.875   3.465 -0.8674 -0.4703 -1.5123
 5446TIP3    H237754   1.960   1.965   3.464  0.3000  1.2319 -4.2259
 5447TIP3   OH237755   0.571   0.291   5.732  0.2632  0.0939  0.4691
 5447TIP3    H137756   0.498   0.351   5.746  1.0061  0.9093  0.9593
 5447TIP3    H237757   0.602   0.310   5.644 -1.0431 -1.3238 -0.3620
 5448TIP3   OH237758   5.421   5.027   4.305 -0.1914  0.3313 -0.0994
 5448TIP3    H137759   5.510   5.038   4.271  0.7235 -2.1610  1.2229
 5448TIP3    H237760   5.396   4.938   4.279 -2.3248  0.9680 -0.4241
 5449TIP3   OH237761   1.863   4.959   4.453 -0.3512 -0.0096  0.5090
 5449TIP3    H137762   1.908   5.037   4.420  0.2394 -0.0833  1.1171
 5449TIP3    H237763   1.933   4.894   4.462 -0.5867 -0.1475  1.4117
 5450TIP3   OH237764   6.637   5.016   0.844  0.0455 -0.0836 -0.0152
 5450TIP3    H137765   6.572   5.084   0.863  0.7536  0.3071  1.1526
 5450TIP3    H237766   6.606   4.939   0.892  0.5906  0.2000  0.8179
 5451TIP3   OH237767   6.784   4.583   2.367 -0.1945  0.1205 -0.0529
 5451TIP3    H137768   6.820   4.619   2.448 -1.6474  0.5775  0.4301
 5451TIP3    H237769   6.806   4.490   2.369  0.5281  0.3019  0.4427
 5452TIP3   OH237770   0.866   6.089  13.181 -0.0290 -0.2722 -0.4161
 5452TIP3    H137771   0.933   6.062  13.244  0.9922  1.6934 -0.5691
 5452TIP3    H237772   0.817   6.009  13.162  2.2417 -1.7848 -0.2704
 5453TIP3   OH237773   0.740   0.411  16.640 -0.1961 -0.3862  0.2806
 5453TIP3    H137774   0.669   0.465  16.605  2.4597  1.4459 -2.9501
 5453TIP3    H237775   0.793   0.472  16.691  0.4888 -1.0037  0.3233
 5454TIP3   OH237776   1.719   1.748  11.892 -0.2546 -0.3182 -0.2723
 5454TIP3    H137777   1.673   1.666  11.873  0.7865 -0.7956 -0.7875
 5454TIP3    H237778   1.705   1.762  11.986  0.2785 -1.5529  0.0118
 5455TIP3   OH237779   1.476   0.934   3.702 -0.1636 -0.8936 -0.0166
 5455TIP3    H137780   1.448   0.992   3.632  0.8008 -0.8257 -0.3592
 5455TIP3    H237781   1.396   0.889   3.730 -0.9876  0.7935  0.4549
 5456TIP3   OH237782   5.473   0.589  15.732  0.3123  0.3836 -0.6417
 5456TIP3    H137783   5.453   0.517  15.792  1.7154  1.0391  0.6673
 5456TIP3    H237784   5.512   0.545  15.656  1.1324 -0.2695  0.1305
 5457TIP3   OH237785   3.090   4.863   0.984  0.0593 -0.1319  0.6856
 5457TIP3    H137786   3.060   4.889   1.071 -1.1062 -0.0506  0.2877
 5457TIP3    H237787   3.011   4.830   0.941  0.4523  0.5127 -0.5904
 5458TIP3   OH237788   2.910   3.350  14.950  0.1318 -0.1373  0.1892
 5458TIP3    H137789   2.930   3.387  15.037 -0.9078  0.5752  0.1464
 5458TIP3    H237790   2.953   3.410  14.889 -1.0858  0.7257  0.1419
 5459TIP3   OH237791   5.629   4.826   4.887 -0.6598 -0.1254 -0.3083
 5459TIP3    H137792   5.709   4.861   4.924 -0.9534  0.9481 -0.6559
 5459TIP3    H237793   5.620   4.739   4.927  0.9015 -0.4577 -0.6027
 5460TIP3   OH237794   2.382   3.187  16.940  0.4247 -0.0594  0.2889
 5460TIP3    H137795   2.297   3.167  16.902  1.6234  0.2816 -2.8728
 5460TIP3    H237796   2.446   3.157  16.875  2.8201 -1.0842  2.8868
 5461TIP3   OH237797   1.915   0.358  11.570  0.3685 -0.0608 -0.4243
 5461TIP3    H137798   1.851   0.370  11.640 -0.5201 -0.6139 -1.1226
 5461TIP3    H237799   1.883   0.283  11.521  0.6864  0.6412 -1.7460
 5462TIP3   OH237800   4.794   0.474  14.383  0.4643 -0.6222  0.0194
 5462TIP3    H137801   4.869   0.455  14.439  0.4463  0.7448  0.5557
 5462TIP3    H237802   4.830   0.481  14.295  0.4963 -2.7801 -0.1963
 5463TIP3   OH237803   0.225   3.052  14.099 -0.2946 -0.2351  0.7046
 5463TIP3    H137804   0.308   3.097  14.085  0.3453 -1.9775 -1.7983
 5463TIP3    H237805   0.248   2.973  14.148 -0.3294 -0.9590 -0.3939
 5464TIP3   OH237806   4.444   3.095  13.294  0.3956  0.6532 -0.5731
 5464TIP3    H137807   4.364   3.085  13.346 -1.5284  1.8379 -3.0551
 5464TIP3    H237808   4.455   3.011  13.250 -1.0440  1.1941 -2.1098
 5465TIP3   OH237809   0.460   3.401   4.764  0.6685  0.1265  0.1927
 5465TIP3    H137810   0.495   3.403   4.675 -0.7436 -1.0146 -0.4276
 5465TIP3    H237811   0.377   3.354   4.756 -0.2085  1.3049  1.8658
 5466TIP3   OH237812   6.244   4.285   3.711 -0.2952 -0.2494 -0.4038
 5466TIP3    H137813   6.189   4.226   3.763  0.8682 -2.1191 -1.1684
 5466TIP3    H237814   6.191   4.305   3.634 -0.4314 -0.9898 -0.5153
 5467TIP3   OH237815   4.516   0.586   4.853  0.3789 -0.6277  0.2820
 5467TIP3    H137816   4.507   0.499   4.893  0.3576 -1.0768 -0.6872
 5467TIP3    H237817   4.576   0.572   4.780 -1.1504 -0.2207 -1.0777
 5468TIP3   OH237818   0.327   6.627  12.824 -0.2514  0.5145  0.1568
 5468TIP3    H137819   0.408   6.671  12.797 -0.4209  1.8979  1.7534
 5468TIP3    H237820   0.266   6.643  12.752  0.9043 -0.7667 -1.2010
 5469TIP3   OH237821   2.166   5.476   1.395  0.1677 -0.0717 -0.3435
 5469TIP3    H137822   2.094   5.486   1.458 -0.0559  0.2373 -0.6490
 5469TIP3    H237823   2.132   5.513   1.314  0.6701  0.0585 -0.4935
 5470TIP3   OH237824   5.028   6.123   2.926  0.1190  0.1492 -0.2556
 5470TIP3    H137825   4.960   6.160   2.982  0.8427  0.5180  0.3996
 5470TIP3    H237826   5.084   6.073   2.985  1.6252  1.5829 -0.4006
 5471TIP3   OH237827   2.463   5.197  13.620  0.1184  0.5382 -0.0883
 5471TIP3    H137828   2.527   5.232  13.681 -0.1168  2.1163 -0.6938
 5471TIP3    H237829   2.432   5.116  13.661  0.2474  1.3391  1.6827
 5472TIP3   OH237830   3.525   4.220   2.796  0.1378  0.6049  0.4386
 5472TIP3    H137831   3.443   4.193   2.757  0.7816 -1.7497  0.5361
 5472TIP3    H237832   3.580   4.141   2.793  1.4011  1.2786  2.9172
 5473TIP3   OH237833   0.196   2.129  13.343  0.4388 -0.5178  0.1564
 5473TIP3    H137834   0.275   2.080  13.366  0.4968 -0.7944 -0.6199
 5473TIP3    H237835   0.202   2.142  13.249 -0.4187 -0.5081  0.0940
 5474TIP3   OH237836   2.089   5.838   1.573 -1.1042  0.1511  0.4073
 5474TIP3    H137837   2.026   5.875   1.635 -2.6303 -0.3089 -0.8178
 5474TIP3    H237838   2.045   5.843   1.488  1.2382  1.4860 -0.8234
 5475TIP3   OH237839   0.610   2.824   4.411 -0.5907  0.1262 -0.1480
 5475TIP3    H137840   0.665   2.770   4.468 -2.6262 -0.6942  1.1323
 5475TIP3    H237841   0.608   2.776   4.328  0.1620 -0.0967 -0.0473
 5476TIP3   OH237842   6.088   2.734  15.725  0.3818 -0.5220 -0.4192
 5476TIP3    H137843   6.163   2.722  15.782  1.5879  2.0273 -1.3245
 5476TIP3    H237844   6.015   2.693  15.772  2.4693 -4.6582 -0.2690
 5477TIP3   OH237845   4.993   6.817  16.657 -0.0329 -0.4352 -0.0029
 5477TIP3    H137846   5.004   6.838  16.564 -0.8339  1.4002  0.2640
 5477TIP3    H237847   5.082   6.816  16.692  0.2445 -0.6856 -0.6938
 5478TIP3   OH237848   0.896   4.616  12.671  0.4162 -0.7260  0.5808
 5478TIP3    H137849   0.935   4.696  12.707  0.7610 -0.2981 -0.6932
 5478TIP3    H237850   0.825   4.594  12.731  0.9413 -0.0106  1.4773
 5479TIP3   OH237851   3.722   2.590  13.017  0.2989  0.0218  0.0442
 5479TIP3    H137852   3.771   2.618  13.094 -0.2401 -1.7326  1.0978
 5479TIP3    H237853   3.783   2.599  12.944  0.6639  2.1918  0.5700
 5480TIP3   OH237854   2.166   2.120   2.129  0.3099 -0.4757 -0.1282
 5480TIP3    H137855   2.072   2.124   2.109  0.1755  2.9096  0.6448
 5480TIP3    H237856   2.171   2.070   2.210 -0.9254 -0.0354  0.2440
 5481TIP3   OH237857   2.691   5.549  16.198  0.1525  0.2487 -0.2475
 5481TIP3    H137858   2.703   5.504  16.282 -1.8551 -0.5665 -0.3393
 5481TIP3    H237859   2.764   5.518  16.144  2.2498  1.7651  1.4937
 5482TIP3   OH237860   4.198   1.149  11.076 -0.2694 -0.3848 -0.5580
 5482TIP3    H137861   4.103   1.148  11.084 -0.1941 -1.4386  0.6335
 5482TIP3    H237862   4.216   1.208  11.003 -1.6622  2.5671  1.3255
 5483TIP3   OH237863   4.039   3.249   1.217  0.8670 -0.5639  0.5556
 5483TIP3    H137864   3.978   3.191   1.262  0.2848 -0.5604 -0.2142
 5483TIP3    H237865   3.987   3.291   1.149  1.4810  0.2393  0.5666
 5484TIP3   OH237866   3.586   2.843  11.026 -0.3766  0.2941 -0.0662
 5484TIP3    H137867   3.605   2.932  11.055  1.3066 -0.5123  1.4985
 5484TIP3    H237868   3.540   2.803  11.099 -0.7913 -0.2498 -0.6100
 5485TIP3   OH237869   4.668   5.119  15.191  0.3450 -0.2035  0.2582
 5485TIP3    H137870   4.573   5.116  15.192  0.3048 -2.8456 -1.0244
 5485TIP3    H237871   4.690   5.173  15.115 -0.1196  0.2226  0.4251
 5486TIP3   OH237872   4.988   5.660  12.739 -0.0861  0.5227  0.3817
 5486TIP3    H137873   4.957   5.748  12.717 -2.2132 -0.0744  0.7685
 5486TIP3    H237874   4.943   5.603  12.677 -0.5534 -0.4922  1.6172
 5487TIP3   OH237875   5.345   1.147   0.476 -0.8429  0.0334 -0.3183
 5487TIP3    H137876   5.430   1.157   0.520  0.9961 -0.4614 -3.4992
 5487TIP3    H237877   5.292   1.219   0.511  1.4721  1.4847  0.4523
 5488TIP3   OH237878   4.777   5.182  13.439  0.2244 -0.0020  0.9626
 5488TIP3    H137879   4.829   5.176  13.520  0.6999  0.2244  0.6805
 5488TIP3    H237880   4.687   5.172  13.468  0.4485 -0.7703  1.4212
 5489TIP3   OH237881   5.547   5.726  12.776 -0.3786  0.3293  0.8196
 5489TIP3    H137882   5.467   5.721  12.829 -2.2966 -0.3006 -1.9115
 5489TIP3    H237883   5.531   5.799  12.716  0.8200 -0.2058 -0.1849
 5490TIP3   OH237884   3.123   4.222   4.404  0.0772 -0.0511 -0.5526
 5490TIP3    H137885   3.057   4.170   4.450 -1.2558  0.4795 -1.8121
 5490TIP3    H237886   3.112   4.311   4.439  0.1669  0.0288 -0.7284
 5491TIP3   OH237887   3.332   6.618   1.934  0.3319  0.6843  0.1901
 5491TIP3    H137888   3.394   6.608   2.007  0.1765  0.5355  0.3010
 5491TIP3    H237889   3.302   6.529   1.916 -0.8023  0.8881  0.9637
 5492TIP3   OH237890   2.248   4.707  13.258 -0.2627 -0.1232  0.2148
 5492TIP3    H137891   2.207   4.621  13.249 -0.6425 -0.2506  2.5468
 5492TIP3    H237892   2.313   4.710  13.188 -2.2115 -1.1008 -1.7297
 5493TIP3   OH237893   1.451   6.564   5.414  0.9917 -0.0791 -0.4544
 5493TIP3    H137894   1.543   6.592   5.420  0.2477  2.3683  1.0750
 5493TIP3    H237895   1.426   6.586   5.324  1.5982  0.3457 -0.5298
 5494TIP3   OH237896   4.396   3.690   5.329  0.3072  0.2633 -0.2745
 5494TIP3    H137897   4.313   3.691   5.378  0.6841 -3.6140  0.7754
 5494TIP3    H237898   4.462   3.672   5.395  1.4433 -0.7571 -1.6481
 5495TIP3   OH237899   4.821   6.337  10.963 -0.0382  0.1567  0.0270
 5495TIP3    H137900   4.757   6.347  10.893 -0.5737 -0.2706  0.4454
 5495TIP3    H237901   4.769   6.315  11.040  0.7907 -2.9708 -0.1909
 5496TIP3   OH237902   2.415   4.674  12.017  0.1905 -0.3425  0.0980
 5496TIP3    H137903   2.508   4.685  12.036  0.0152  0.2339  0.6234
 5496TIP3    H237904   2.374   4.756  12.043 -0.1223  0.4171 -2.5073
 5497TIP3   OH237905   3.973   4.663   2.362  0.5287 -0.1512  0.2097
 5497TIP3    H137906   3.980   4.628   2.451 -0.7700  0.5901  0.6237
 5497TIP3    H237907   3.936   4.751   2.373  0.4741  0.0040 -1.0489
 5498TIP3   OH237908   5.062   4.325   3.154 -0.2975 -0.0330  0.5969
 5498TIP3    H137909   4.977   4.308   3.112 -1.1432  1.2437  1.7278
 5498TIP3    H237910   5.126   4.319   3.083 -1.4828  0.2117 -0.5151
 5499TIP3   OH237911   0.151   6.543   4.613  0.0293 -0.3076 -0.6140
 5499TIP3    H137912   0.200   6.465   4.638  1.5539  1.2131  1.4010
 5499TIP3    H237913   0.205   6.617   4.642 -3.3237  1.5139  1.6185
 5500TIP3   OH237914   5.224   2.506  15.834 -0.1925 -0.0043  0.1422
 5500TIP3    H137915   5.133   2.489  15.809 -0.3023 -0.8325  1.0306
 5500TIP3    H237916   5.220   2.587  15.886 -0.7969 -1.2115  2.0860
 5501TIP3   OH237917   3.667   3.943   2.817  0.0835 -0.8040  0.2763
 5501TIP3    H137918   3.647   3.883   2.745 -0.8901  0.7816 -0.8453
 5501TIP3    H237919   3.763   3.945   2.820  0.2584  0.8287 -2.6012
 5502TIP3   OH237920   3.353   0.819  11.502  0.3648  0.2920  0.9262
 5502TIP3    H137921   3.442   0.826  11.534  0.0999  1.0135  1.5222
 5502TIP3    H237922   3.361   0.774  11.418  1.3992  1.2948  0.4658
 5503TIP3   OH237923   4.941   1.533   1.008  0.6449  0.3721 -0.3255
 5503TIP3    H137924   4.962   1.442   0.988 -0.3609  0.2907 -1.0978
 5503TIP3    H237925   4.847   1.533   1.023  0.7338  1.1800  0.2962
 5504TIP3   OH237926   0.469   2.847  17.082 -0.1254 -0.3810 -0.1775
 5504TIP3    H137927   0.532   2.775  17.092 -1.2088 -1.2152  0.9928
 5504TIP3    H237928   0.515   2.924  17.115  0.3568 -0.9537  0.5307
 5505TIP3   OH237929   2.885   3.312  13.532  0.1286  0.2793  0.0668
 5505TIP3    H137930   2.970   3.313  13.575 -0.1597  2.2334  0.6609
 5505TIP3    H237931   2.889   3.236  13.473  1.7377 -0.4861  1.1055
 5506TIP3   OH237932   5.033   5.336   5.013 -0.4260  0.1502 -0.4138
 5506TIP3    H137933   4.965   5.365   4.953 -1.0846 -0.9487 -0.2407
 5506TIP3    H237934   4.989   5.327   5.098  0.2877  0.8382  0.0486
 5507TIP3   OH237935   6.662   4.606  15.893  0.3048 -0.2492 -0.5167
 5507TIP3    H137936   6.699   4.693  15.900  1.5963 -0.7740 -0.5333
 5507TIP3    H237937   6.568   4.620  15.884  0.5659  1.1696 -1.3231
 5508TIP3   OH237938   0.911   3.412   5.600  0.0480 -0.2615 -0.4961
 5508TIP3    H137939   0.907   3.351   5.673 -1.9167 -0.8423 -1.0154
 5508TIP3    H237940   0.907   3.357   5.522  1.8077  0.3695 -1.0789
 5509TIP3   OH237941   5.948   2.106  11.756 -0.5365  0.6186 -0.2828
 5509TIP3    H137942   5.938   2.059  11.840  1.6416 -0.6567 -0.6398
 5509TIP3    H237943   5.888   2.062  11.697  0.2859 -0.7098 -0.1799
 5510TIP3   OH237944   3.789   5.629   1.484  0.0918 -0.4862  0.2914
 5510TIP3    H137945   3.821   5.540   1.470  1.7460  0.0964  0.1765
 5510TIP3    H237946   3.835   5.658   1.563  2.4334  1.4879 -1.6173
 5511TIP3   OH237947   5.799   2.550  14.771 -0.2300  0.1049 -0.0184
 5511TIP3    H137948   5.840   2.471  14.736 -0.6311 -0.4830  0.8091
 5511TIP3    H237949   5.856   2.622  14.741  0.9886 -0.6205  0.4656
 5512TIP3   OH237950   3.862   1.724   1.142  0.7102  0.9181 -0.4895
 5512TIP3    H137951   3.947   1.731   1.185  0.0597  0.0764  1.0360
 5512TIP3    H237952   3.800   1.755   1.208 -0.2488  0.5378 -1.1916
 5513TIP3   OH237953   5.711   0.122   2.514  0.4832  0.3692  0.2959
 5513TIP3    H137954   5.712   0.083   2.427 -0.3050 -1.0877  0.8957
 5513TIP3    H237955   5.678   0.210   2.502 -0.8494 -0.2473 -0.7305
 5514TIP3   OH237956   3.240   1.189   3.138 -0.0481  0.0142  0.5470
 5514TIP3    H137957   3.168   1.161   3.082  0.8662  0.9557 -1.1735
 5514TIP3    H237958   3.198   1.236   3.210 -1.1656  0.5587 -0.4326
 5515TIP3   OH237959   3.115   3.640   2.079 -0.2796  0.1091  0.0121
 5515TIP3    H137960   3.032   3.681   2.053  0.7077  0.2624 -3.3431
 5515TIP3    H237961   3.112   3.553   2.041  1.1120  0.1443 -0.2126
 5516TIP3   OH237962   1.075   1.283  11.237 -0.0475 -0.2822 -0.6216
 5516TIP3    H137963   0.997   1.253  11.190 -0.1326  1.0847 -1.4063
 5516TIP3    H237964   1.141   1.295  11.168  0.0717  0.9793 -0.3136
 5517TIP3   OH237965   0.962   4.670  16.080  0.3650 -0.0844  0.3810
 5517TIP3    H137966   0.940   4.762  16.094 -1.0222 -0.5020  1.0972
 5517TIP3    H237967   0.976   4.635  16.168  3.1150 -0.0872  0.0367
 5518TIP3   OH237968   0.888   5.517   1.604 -0.3804  0.0860  0.1146
 5518TIP3    H137969   0.875   5.606   1.636 -0.6153 -0.0886  0.5169
 5518TIP3    H237970   0.871   5.523   1.510  0.5156  0.6471 -0.0283
 5519TIP3   OH237971   3.569   1.453  17.098  0.6095  0.3973  0.0389
 5519TIP3    H137972   3.614   1.447  17.182 -1.1263 -0.9977  0.9307
 5519TIP3    H237973   3.507   1.525  17.109 -2.3001 -2.0944  1.4368
 5520TIP3   OH237974   4.646   2.135   2.982 -0.1073 -0.1890  0.2721
 5520TIP3    H137975   4.684   2.048   2.995  1.6652  0.4538 -0.2757
 5520TIP3    H237976   4.656   2.152   2.889 -2.1048 -0.0994  0.0335
 5521TIP3   OH237977   2.742   2.301  12.760  0.1364  0.6903  0.2026
 5521TIP3    H137978   2.781   2.220  12.728 -0.4478  1.0486 -1.5460
 5521TIP3    H237979   2.815   2.347  12.803  1.2597  0.6147 -1.5239
 5522TIP3   OH237980   0.423   1.829  13.913  0.5828 -0.1564 -0.5821
 5522TIP3    H137981   0.373   1.813  13.833  1.1321 -0.7348 -0.8159
 5522TIP3    H237982   0.356   1.846  13.980  0.1438  2.8595 -1.6401
 5523TIP3   OH237983   6.340   2.023   2.841  0.0947  0.5608 -0.5201
 5523TIP3    H137984   6.402   1.955   2.865  0.2436  1.1859  0.9765
 5523TIP3    H237985   6.391   2.085   2.789  0.8691  1.2641  1.0180
 5524TIP3   OH237986   2.363   6.590  13.491  0.2287  0.1778  0.2453
 5524TIP3    H137987   2.305   6.630  13.556  0.5053  0.2648  0.4383
 5524TIP3    H237988   2.341   6.497  13.492  0.5195  0.1143  0.7581
 5525TIP3   OH237989   2.787   2.946  11.307 -1.1771  0.5026  0.4104
 5525TIP3    H137990   2.811   2.909  11.392 -1.6047  0.2227  0.4184
 5525TIP3    H237991   2.725   2.882  11.270 -2.5255  1.5577  0.7434
 5526TIP3   OH237992   4.211   2.568  12.762  0.1348  0.7352  0.7047
 5526TIP3    H137993   4.158   2.510  12.817  1.4162 -0.5996  0.5845
 5526TIP3    H237994   4.159   2.648  12.755 -1.5729 -0.3008  1.0785
 5527TIP3   OH237995   1.449   1.698   5.090  0.6308  0.3198  0.0575
 5527TIP3    H137996   1.472   1.673   5.000 -0.0754 -1.0524  0.2194
 5527TIP3    H237997   1.354   1.708   5.088  0.3894 -1.3563  0.9746
 5528TIP3   OH237998   2.618   1.445  11.624 -0.6113  0.4755  0.6695
 5528TIP3    H137999   2.523   1.450  11.638 -0.5069  1.8696  0.9902
 5528TIP3    H238000   2.656   1.476  11.706  0.1330 -0.1045  0.5562
 5529TIP3   OH238001   5.600   3.358  15.480 -0.2100 -0.3021 -0.3126
 5529TIP3    H138002   5.632   3.348  15.391 -2.2446 -1.6235 -0.9714
 5529TIP3    H238003   5.585   3.452  15.489  0.5915 -0.0781 -1.1372
 5530TIP3   OH238004   4.042   6.084  16.861 -0.3724 -0.3912  0.3728
 5530TIP3    H138005   4.040   6.153  16.795 -0.2457 -1.8944 -1.2922
 5530TIP3    H238006   3.960   6.095  16.910 -1.4720 -0.4444 -1.3684
 5531TIP3   OH238007   0.177   6.311  12.629 -0.1854 -0.2518 -0.1098
 5531TIP3    H138008   0.154   6.221  12.607 -2.0727 -0.2239  1.5264
 5531TIP3    H238009   0.254   6.304  12.685 -1.0263 -0.9490  0.9786
 5532TIP3   OH238010   4.428   3.404  12.562 -0.2000 -0.0754 -0.1884
 5532TIP3    H138011   4.338   3.377  12.576 -0.6328  1.4839  0.1688
 5532TIP3    H238012   4.475   3.372  12.639 -0.5606 -0.3698 -0.0904
 5533TIP3   OH238013   2.595   6.293  16.431 -0.7259  0.0203 -0.6143
 5533TIP3    H138014   2.503   6.266  16.435 -0.8890  0.5784  2.7209
 5533TIP3    H238015   2.625   6.285  16.522  2.0979  1.3451 -1.3371
 5534TIP3   OH238016   0.690   5.530  13.167  0.2195 -0.3323 -0.8895
 5534TIP3    H138017   0.741   5.534  13.248 -2.1698 -1.2798  0.7782
 5534TIP3    H238018   0.732   5.462  13.115  1.3455 -0.2461 -0.1116
 5535TIP3   OH238019   0.260   6.112   5.263 -0.0075 -0.0284  0.0489
 5535TIP3    H138020   0.242   6.134   5.354 -0.0735  0.9602 -0.1976
 5535TIP3    H238021   0.351   6.140   5.249  0.0132 -0.2084 -0.1819
 5536TIP3   OH238022   2.080   1.648   0.205  0.1379  0.5868  0.1942
 5536TIP3    H138023   2.175   1.644   0.212  0.0560 -0.2308  1.0407
 5536TIP3    H238024   2.048   1.596   0.279 -0.9635  0.5566 -0.2809
 5537TIP3   OH238025   2.212   0.382  12.172  0.2674  0.3131  0.1601
 5537TIP3    H138026   2.240   0.471  12.192  2.4771 -0.3076  0.1484
 5537TIP3    H238027   2.233   0.371  12.079  3.0541 -1.1307  0.8263
 5538TIP3   OH238028   3.596   4.227   5.424 -0.2992 -0.1880  0.4420
 5538TIP3    H138029   3.596   4.168   5.348 -1.8049 -1.5067  1.3900
 5538TIP3    H238030   3.659   4.187   5.484  0.7548  0.7530 -0.0121
 5539TIP3   OH238031   0.096   2.622   2.405  0.1196  0.4259 -0.4033
 5539TIP3    H138032   0.118   2.700   2.457  1.4009  0.1950 -0.5659
 5539TIP3    H238033   0.180   2.591   2.371 -0.4772 -0.5246 -1.0695
 5540TIP3   OH238034   2.503   5.211  14.961  0.3323 -0.7127 -0.0718
 5540TIP3    H138035   2.495   5.208  15.056 -1.3020  0.0524 -0.1568
 5540TIP3    H238036   2.453   5.136  14.930  1.9760 -1.7531 -0.3117
 5541TIP3   OH238037   2.579   1.442  16.493 -0.2744 -0.4494 -0.3356
 5541TIP3    H138038   2.549   1.397  16.414  0.9918 -2.0209  0.0313
 5541TIP3    H238039   2.503   1.443  16.550 -1.3475  1.1128 -1.6997
 5542TIP3   OH238040   2.621   1.011  15.701 -0.0682  0.3614 -0.3840
 5542TIP3    H138041   2.598   1.040  15.613 -0.4320 -1.2128 -0.8408
 5542TIP3    H238042   2.558   0.941  15.720 -0.2215  0.9140  1.2739
 5543TIP3   OH238043   6.241   3.871   2.457  0.0545 -0.2124  0.2390
 5543TIP3    H138044   6.220   3.934   2.527  1.6551 -0.4397  0.9752
 5543TIP3    H238045   6.336   3.863   2.461  0.1462 -0.5173 -1.7599
 5544TIP3   OH238046   1.786   4.205  10.671  0.1165  0.1164  0.0913
 5544TIP3    H138047   1.836   4.240  10.744 -0.3585 -0.8644  0.9172
 5544TIP3    H238048   1.842   4.218  10.595  0.7365  0.9058  0.6641
 5545TIP3   OH238049   0.989   1.459  12.207  0.2673  0.4840 -0.4189
 5545TIP3    H138050   0.981   1.494  12.296  0.0990  1.8572 -0.9632
 5545TIP3    H238051   0.956   1.369  12.215 -1.2147  1.0642  0.6072
 5546TIP3   OH238052   6.022   6.548   2.833  0.7988  0.5012 -0.3190
 5546TIP3    H138053   5.991   6.590   2.914 -0.4458  0.7298 -0.8961
 5546TIP3    H238054   5.966   6.584   2.764  0.8160 -0.8449 -1.0663
 5547TIP3   OH238055   5.533   6.683   5.625 -0.0256  0.5728  0.0814
 5547TIP3    H138056   5.559   6.636   5.704  1.1592 -0.8205 -1.0852
 5547TIP3    H238057   5.469   6.625   5.583  0.8772  0.3015 -0.9795
 5548TIP3   OH238058   3.512   4.990   1.257 -0.1346  0.2432  0.8763
 5548TIP3    H138059   3.536   4.920   1.318  1.2865 -0.6189 -0.5771
 5548TIP3    H238060   3.594   5.038   1.243 -0.9050  1.6793  1.1876
 5549TIP3   OH238061   4.868   1.381   0.708  0.6670  0.0413 -0.2136
 5549TIP3    H138062   4.828   1.342   0.630  0.2050 -0.0759  0.0769
 5549TIP3    H238063   4.814   1.350   0.780 -1.3718  3.2487 -0.1462
 5550TIP3   OH238064   5.970   4.287   2.013 -0.0391  0.5561 -0.0292
 5550TIP3    H138065   5.913   4.268   2.087  2.7257  1.3653  2.4962
 5550TIP3    H238066   5.910   4.314   1.943 -2.9299 -2.2040  1.1464
 5551TIP3   OH238067   3.310   5.393   3.771  0.5128  0.0110  0.3570
 5551TIP3    H138068   3.362   5.473   3.769 -0.5056  0.7266  1.1601
 5551TIP3    H238069   3.284   5.383   3.863 -2.1422  0.6466 -0.2208
 5552TIP3   OH238070   3.288   1.456  10.623 -0.0530 -0.3730 -0.2701
 5552TIP3    H138071   3.349   1.401  10.573  0.9056 -1.4691  1.9772
 5552TIP3    H238072   3.206   1.409  10.623  0.1140 -0.6634 -0.3186
 5553TIP3   OH238073   4.306   3.286   1.176 -0.3865 -0.5478  0.0165
 5553TIP3    H138074   4.215   3.278   1.204 -0.8653  0.8131 -1.0556
 5553TIP3    H238075   4.303   3.281   1.081  0.6371 -0.1651 -0.0520
 5554TIP3   OH238076   4.168   0.325   1.422  0.2021  0.4900 -0.1068
 5554TIP3    H138077   4.107   0.349   1.352  0.1876 -0.3974 -0.4160
 5554TIP3    H238078   4.199   0.409   1.456 -0.6541  0.9521 -0.4133
 5555TIP3   OH238079   2.284   1.723   0.473  0.0559 -0.1031 -0.1433
 5555TIP3    H138080   2.240   1.805   0.452 -0.7068 -0.2074  0.9745
 5555TIP3    H238081   2.213   1.661   0.491  0.5855 -1.2060 -1.5614
 5556TIP3   OH238082   6.389   5.722   0.133  0.5052 -0.2472 -0.3450
 5556TIP3    H138083   6.334   5.752   0.060 -2.4411  0.2118  1.8939
 5556TIP3    H238084   6.329   5.711   0.206  3.0291 -2.3527  1.6345
 5557TIP3   OH238085   2.375   2.824   4.295 -0.6563  0.3852  0.1891
 5557TIP3    H138086   2.407   2.733   4.295 -1.0223  0.2476 -0.8029
 5557TIP3    H238087   2.295   2.821   4.243  0.1257  1.5481 -1.1474
 5558TIP3   OH238088   2.078   3.368   3.068 -0.1626 -0.2807 -0.1170
 5558TIP3    H138089   2.099   3.276   3.083  0.4741  0.0286  1.0320
 5558TIP3    H238090   1.987   3.367   3.039 -0.7190 -1.1870  1.4743
 5559TIP3   OH238091   6.219   6.693  14.915  0.7602 -0.4894  0.0285
 5559TIP3    H138092   6.209   6.788  14.920 -0.5838 -0.5952 -0.4624
 5559TIP3    H238093   6.155   6.665  14.849  0.7306 -1.7996  0.5907
 5560TIP3   OH238094   1.452   2.576  11.172 -0.0879 -0.1017  0.7071
 5560TIP3    H138095   1.485   2.638  11.237 -1.2707  2.1306 -0.6938
 5560TIP3    H238096   1.383   2.527  11.219  0.5457 -0.0632  1.7076
 5561TIP3   OH238097   4.573   4.267  12.493 -0.0430 -0.3409  0.2208
 5561TIP3    H138098   4.505   4.203  12.476 -0.8123  0.4333  0.3073
 5561TIP3    H238099   4.586   4.265  12.588 -0.4376 -0.0079  0.2837
 5562TIP3   OH238100   3.968   0.275   0.629 -0.2138 -0.6050  0.0120
 5562TIP3    H138101   3.989   0.315   0.713  2.3996  1.4894 -1.5013
 5562TIP3    H238102   3.877   0.301   0.612  0.1061  1.2895  0.9563
 5563TIP3   OH238103   6.438   3.745  14.200 -0.0601  0.0042 -0.2437
 5563TIP3    H138104   6.420   3.832  14.164  2.3635  0.9202  0.4984
 5563TIP3    H238105   6.444   3.760  14.295 -0.2983 -1.1203 -0.0412
 5564TIP3   OH238106   1.360   1.757  11.403  0.2423 -0.0467 -0.1109
 5564TIP3    H138107   1.379   1.667  11.375  1.5813 -0.1106  0.9276
 5564TIP3    H238108   1.353   1.806  11.321  2.9220 -0.4618 -0.6829
 5565TIP3   OH238109   3.445   0.402  15.785  0.0069  0.0677  0.3825
 5565TIP3    H138110   3.456   0.318  15.741 -0.3040  0.8506 -1.3016
 5565TIP3    H238111   3.483   0.466  15.724 -2.0047  1.3915  0.4160
 5566TIP3   OH238112   2.892   0.183  13.785  0.2319 -0.1960 -0.6327
 5566TIP3    H138113   2.962   0.238  13.819  0.2116  0.5275 -1.7429
 5566TIP3    H238114   2.920   0.157  13.698 -0.2492 -1.0839 -0.5478
 5567TIP3   OH238115   2.541   0.706   3.957  0.0924  0.2841  0.5716
 5567TIP3    H138116   2.483   0.780   3.973  1.1809  1.2325  0.2766
 5567TIP3    H238117   2.594   0.699   4.037 -0.6473 -0.8109  0.9935
 5568TIP3   OH238118   6.430   4.399  11.830 -0.1243  0.7257 -0.2125
 5568TIP3    H138119   6.484   4.328  11.795 -0.6210 -0.1373  0.6975
 5568TIP3    H238120   6.452   4.475  11.777  2.8755  0.7316  0.8721
 5569TIP3   OH238121   0.196   5.954  16.460  0.0256 -0.3113  0.1620
 5569TIP3    H138122   0.169   5.998  16.541 -0.2868  2.2989 -1.2848
 5569TIP3    H238123   0.139   5.990  16.392  1.0916 -1.5245 -1.4426
 5570TIP3   OH238124   0.244   4.261  11.740 -0.2277  0.2093 -1.2582
 5570TIP3    H138125   0.170   4.320  11.728  1.4978  3.2051  1.2741
 5570TIP3    H238126   0.321   4.316  11.725  1.4925 -1.5774  0.4665
 5571TIP3   OH238127   2.639   2.039   3.892 -0.2160 -0.7581 -0.1642
 5571TIP3    H138128   2.671   2.034   3.982 -2.2309 -1.9537  0.5342
 5571TIP3    H238129   2.610   1.950   3.871 -0.2451 -0.3923 -1.8339
 5572TIP3   OH238130   1.186   1.859   5.087 -0.1585 -0.3189 -0.3505
 5572TIP3    H138131   1.179   1.896   4.999 -1.7780 -1.1904 -0.6167
 5572TIP3    H238132   1.148   1.927   5.144 -2.5637 -1.1909 -0.7754
 5573TIP3   OH238133   3.619   2.050   4.936 -0.5635  0.2107  0.3893
 5573TIP3    H138134   3.683   2.078   5.001  1.2541 -1.6827 -0.4563
 5573TIP3    H238135   3.607   1.957   4.953 -0.7944 -0.1138 -1.3436
 5574TIP3   OH238136   3.863   1.935   2.139  0.3794  0.1469 -0.4090
 5574TIP3    H138137   3.908   2.004   2.187  0.7738 -0.4414  0.0865
 5574TIP3    H238138   3.771   1.960   2.140  0.6150  1.0957 -0.9671
 5575TIP3   OH238139   4.273   6.560  14.275 -0.1953  0.2356 -0.5523
 5575TIP3    H138140   4.257   6.488  14.214  2.9340 -0.3473 -0.8532
 5575TIP3    H238141   4.309   6.630  14.221  2.6842 -0.3055  0.4795
 5576TIP3   OH238142   4.626   4.230   2.514  0.0561  0.2376 -0.3472
 5576TIP3    H138143   4.547   4.281   2.531  0.0944  0.1639  0.0715
 5576TIP3    H238144   4.674   4.281   2.449 -0.6949 -0.0898 -1.1865
 5577TIP3   OH238145   3.361   1.140  14.649  0.2662 -0.0744  0.6123
 5577TIP3    H138146   3.345   1.047  14.667 -2.4682 -0.4940 -2.8162
 5577TIP3    H238147   3.293   1.187  14.697 -0.1988 -0.1668  0.0593
 5578TIP3   OH238148   2.260   6.163  10.501 -0.5880  0.3773  0.0598
 5578TIP3    H138149   2.193   6.223  10.468  0.1298  0.6741 -0.8987
 5578TIP3    H238150   2.250   6.166  10.596 -0.8496  1.6934  0.0113
 5579TIP3   OH238151   3.569   4.033   3.611 -0.6207  0.1542  0.3862
 5579TIP3    H138152   3.489   3.991   3.577 -0.6697 -1.8779  2.7444
 5579TIP3    H238153   3.638   3.969   3.596 -0.1640  0.3231  1.6500
 5580TIP3   OH238154   2.534   2.771  14.189 -0.2942 -0.3564  0.0562
 5580TIP3    H138155   2.566   2.841  14.133 -0.0574  0.1367  0.7853
 5580TIP3    H238156   2.595   2.769  14.263 -1.8233  0.5394  1.4256
 5581TIP3   OH238157   2.681   3.285   0.562 -0.8683  0.3041 -0.0596
 5581TIP3    H138158   2.715   3.343   0.631  0.5826  0.4428 -0.8597
 5581TIP3    H238159   2.624   3.224   0.609 -0.9816  1.2341  1.0665
 5582TIP3   OH238160   3.926   0.444   4.554  0.5412  0.2264  0.0718
 5582TIP3    H138161   3.890   0.502   4.620  0.1995 -1.5417  1.5247
 5582TIP3    H238162   4.020   0.442   4.572  0.5243  0.1666  0.1517
 5583TIP3   OH238163   1.748   1.585  12.666 -0.0370 -0.1136  0.3668
 5583TIP3    H138164   1.756   1.490  12.653 -1.4562 -0.5187  2.0584
 5583TIP3    H238165   1.778   1.623  12.584 -0.0904 -2.0676 -0.6105
 5584TIP3   OH238166   6.158   3.374  15.556  0.3195  0.7562 -0.2501
 5584TIP3    H138167   6.158   3.391  15.462 -0.6748  1.4588 -0.1434
 5584TIP3    H238168   6.080   3.419  15.589  1.2063  1.4022  1.0747
 5585TIP3   OH238169   4.467   0.022   3.039  0.0146  0.4425  0.6550
 5585TIP3    H138170   4.473   0.092   3.104  1.5124 -1.7937  3.1359
 5585TIP3    H238171   4.557   0.001   3.017 -0.4152 -0.4770 -0.3425
 5586TIP3   OH238172   0.637   5.206  13.661  0.5327  0.5027 -0.4994
 5586TIP3    H138173   0.545   5.199  13.688  0.2377 -2.9265 -1.8442
 5586TIP3    H238174   0.685   5.161  13.730  1.0233  0.8931 -0.5863
 5587TIP3   OH238175   6.459   5.998   1.342  0.0780  0.1504 -0.0791
 5587TIP3    H138176   6.402   5.928   1.312  1.7586 -1.0331 -0.6636
 5587TIP3    H238177   6.539   5.953   1.370  0.6852  1.7284  0.8303
 5588TIP3   OH238178   0.789   2.978  11.800  0.6529 -1.0287  0.4200
 5588TIP3    H138179   0.741   2.962  11.882 -1.4380 -1.3225 -0.8010
 5588TIP3    H238180   0.873   3.012  11.829 -0.5713  0.3798  2.7064
 5589TIP3   OH238181   2.675   2.895  13.667 -0.5326  0.3969 -0.2222
 5589TIP3    H138182   2.756   2.943  13.682  0.5012 -0.8727 -1.4499
 5589TIP3    H238183   2.635   2.887  13.754  0.3658  1.5229  0.3145
 5590TIP3   OH238184   1.279   5.831   1.438  0.0208  0.6297 -0.4352
 5590TIP3    H138185   1.367   5.847   1.405  0.1093 -0.6404 -0.8783
 5590TIP3    H238186   1.291   5.765   1.507 -0.7198 -0.7351 -1.5541
 5591TIP3   OH238187   2.812   3.672  14.807 -0.2175  0.0538 -0.9997
 5591TIP3    H138188   2.740   3.611  14.795 -0.2091  0.2297 -2.0206
 5591TIP3    H238189   2.823   3.678  14.902  0.9038 -2.8642 -0.8499
 5592TIP3   OH238190   4.137   0.543   4.904  0.3201 -0.4053 -0.2987
 5592TIP3    H138191   4.217   0.589   4.879  0.0368  0.8581  1.0082
 5592TIP3    H238192   4.111   0.496   4.824  0.7384  1.5393 -1.6610
 5593TIP3   OH238193   4.662   1.904   5.120 -0.0710 -0.4187  0.4362
 5593TIP3    H138194   4.622   1.925   5.036 -0.6841  1.2829  1.1140
 5593TIP3    H238195   4.726   1.973   5.135 -0.8164  0.0005  1.9097
 5594TIP3   OH238196   4.410   4.977  14.636  0.0426 -0.0889  0.4119
 5594TIP3    H138197   4.438   5.059  14.676 -0.1192 -0.0987  0.5459
 5594TIP3    H238198   4.432   4.910  14.700  2.8544 -0.5126 -0.8588
 5595TIP3   OH238199   0.568   1.480   4.079  0.1145 -0.1918 -0.4186
 5595TIP3    H138200   0.531   1.518   3.999 -0.7621 -1.0527 -0.4408
 5595TIP3    H238201   0.662   1.472   4.061  0.0017  0.1048 -1.1578
 5596TIP3   OH238202   1.931   2.181  13.531 -0.4576 -0.6846  0.3009
 5596TIP3    H138203   1.913   2.174  13.624 -2.8367 -0.9648 -0.1039
 5596TIP3    H238204   2.004   2.121  13.516 -0.1470 -0.7643  1.9341
 5597TIP3   OH238205   1.687   5.541  14.714 -0.0403  1.2381  0.2638
 5597TIP3    H138206   1.776   5.577  14.711  0.9563 -1.0559 -0.1145
 5597TIP3    H238207   1.655   5.546  14.624 -0.6668  2.8574  0.5562
 5598TIP3   OH238208   3.746   5.054  14.649  0.2855  0.4570  0.2257
 5598TIP3    H138209   3.724   5.093  14.564 -1.6642 -0.0370  0.4695
 5598TIP3    H238210   3.809   4.984  14.628 -1.3062 -0.6577 -1.0201
 5599TIP3   OH238211   6.575   3.059   1.946  0.5048  0.1503 -0.4865
 5599TIP3    H138212   6.629   2.986   1.976 -2.0044 -0.8057  2.1412
 5599TIP3    H238213   6.555   3.038   1.855 -1.0584 -3.1381  0.4794
 5600TIP3   OH238214   5.127   5.437   2.028  0.0473  0.1915 -0.1529
 5600TIP3    H138215   5.056   5.373   2.023  0.5991 -0.8865  2.9875
 5600TIP3    H238216   5.204   5.391   1.995  0.3570 -0.7704  1.7247
 5601TIP3   OH238217   1.266   2.561   4.802 -0.3210  0.8495 -0.0026
 5601TIP3    H138218   1.199   2.627   4.785 -3.1118 -1.5821  0.7055
 5601TIP3    H238219   1.255   2.496   4.733 -0.5659 -0.9095  1.5925
 5602TIP3   OH238220   4.443   5.176  14.878  0.5753 -0.5876 -0.0160
 5602TIP3    H138221   4.435   5.101  14.937  0.9327 -0.1348  0.6199
 5602TIP3    H238222   4.530   5.212  14.897  0.4327 -0.0525 -0.3693
 5603TIP3   OH238223   4.525   1.725  10.909  0.5262  0.3776  0.1256
 5603TIP3    H138224   4.566   1.685  10.833  0.2208  2.0441 -0.9554
 5603TIP3    H238225   4.597   1.759  10.961  0.6813  0.1431  0.0667
 5604TIP3   OH238226   2.681   6.051  12.467  0.3768  0.8268 -0.3281
 5604TIP3    H138227   2.674   6.135  12.511 -2.6445  1.3514 -1.5628
 5604TIP3    H238228   2.746   6.065  12.398  2.4296  1.0444  1.5412
 5605TIP3   OH238229   5.797   2.366   1.547  0.0471  0.4021  0.0877
 5605TIP3    H138230   5.708   2.395   1.530  0.4554  0.7976 -1.5039
 5605TIP3    H238231   5.787   2.276   1.577 -0.8428  0.1466 -0.9203
 5606TIP3   OH238232   2.026   4.223   0.174  0.0027  0.2117  0.5713
 5606TIP3    H138233   2.052   4.299   0.122 -2.1868 -0.1866 -1.2509
 5606TIP3    H238234   2.031   4.149   0.113  0.6711 -0.9021  1.9155
 5607TIP3   OH238235   5.995   1.533   2.611  0.5427 -0.2544  0.2729
 5607TIP3    H138236   6.019   1.459   2.667  0.2656 -0.6564 -0.1321
 5607TIP3    H238237   6.065   1.536   2.546  0.5297 -0.1883  0.2629
 5608TIP3   OH238238   4.384   5.890  17.062 -0.0872 -0.2832 -0.1588
 5608TIP3    H138239   4.406   5.836  17.138  2.0855 -0.5899 -0.9348
 5608TIP3    H238240   4.315   5.842  17.017  2.5128 -3.1395 -1.4350
 5609TIP3   OH238241   4.894   4.554  16.801  0.1451  0.1859  0.1790
 5609TIP3    H138242   4.857   4.638  16.777 -2.2639 -1.0591 -0.7527
 5609TIP3    H238243   4.918   4.513  16.717  0.3934 -0.4372  0.5423
 5610TIP3   OH238244   3.834   0.484  11.348  0.2290 -0.1386 -0.9966
 5610TIP3    H138245   3.772   0.415  11.325  0.1390 -1.3690  2.4841
 5610TIP3    H238246   3.778   0.558  11.373  0.1231 -0.8403  0.9590
 5611TIP3   OH238247   2.973   1.877   1.908  0.7465 -0.1820  0.3208
 5611TIP3    H138248   2.918   1.814   1.954 -0.6508 -0.1852 -1.2394
 5611TIP3    H238249   3.026   1.824   1.849  0.6884 -0.0187  0.1187
 5612TIP3   OH238250   4.363   3.619   3.598  0.0315  0.1957 -0.0017
 5612TIP3    H138251   4.292   3.683   3.589  0.3500  0.5806  0.1675
 5612TIP3    H238252   4.320   3.538   3.626 -0.3707  0.3483 -0.1693
 5613TIP3   OH238253   4.287   1.918  14.905 -0.0716  0.0522 -0.0029
 5613TIP3    H138254   4.215   1.947  14.960 -0.2975 -0.6943  0.1164
 5613TIP3    H238255   4.253   1.841  14.859 -0.4102  1.4839 -2.3508
 5614TIP3   OH238256   2.104   1.201  12.934  0.4212  0.6721  0.3104
 5614TIP3    H138257   2.042   1.160  12.874 -0.3165  1.4394  0.5193
 5614TIP3    H238258   2.137   1.277  12.885  0.5114  0.7804  0.5383
 5615TIP3   OH238259   1.775   3.342  14.732 -0.0582  0.5581 -0.2891
 5615TIP3    H138260   1.746   3.299  14.652 -2.7732  0.7216  0.5193
 5615TIP3    H238261   1.840   3.282  14.769 -1.0162 -1.0232 -1.0646
 5616TIP3   OH238262   0.372   0.430  14.793  0.3447  0.2065 -0.0085
 5616TIP3    H138263   0.314   0.395  14.726 -1.0986 -0.2999  1.4380
 5616TIP3    H238264   0.452   0.452  14.746  0.1206 -1.9421 -1.5778
 5617TIP3   OH238265   3.500   5.695   3.061  0.0046  0.0847  0.0318
 5617TIP3    H138266   3.492   5.759   2.990 -1.9821  0.2677  0.3535
 5617TIP3    H238267   3.453   5.735   3.135 -0.9937 -1.5810  0.3455
 5618TIP3   OH238268   1.491   6.614   3.930 -0.3382  0.0874  0.2807
 5618TIP3    H138269   1.455   6.702   3.917 -0.4061  0.0802  0.4226
 5618TIP3    H238270   1.539   6.620   4.012 -0.1844  0.0425  0.1940
 5619TIP3   OH238271   1.795   1.433   4.999  0.5436  0.8763 -0.1361
 5619TIP3    H138272   1.793   1.502   4.932 -0.6487  0.4769 -0.5360
 5619TIP3    H238273   1.726   1.458   5.061  0.5317  0.3745  0.0579
 5620TIP3   OH238274   6.479   0.459  13.547 -0.8586 -0.0693  0.3715
 5620TIP3    H138275   6.407   0.518  13.568 -1.3034  0.1590 -1.6255
 5620TIP3    H238276   6.548   0.516  13.513 -0.3846 -0.4571  0.6695
 5621TIP3   OH238277   4.047   0.759  14.618 -0.1172 -0.2002 -0.3752
 5621TIP3    H138278   4.006   0.686  14.663  1.6597 -0.9075  0.1962
 5621TIP3    H238279   4.056   0.730  14.527  0.5487 -0.7199 -0.1574
 5622TIP3   OH238280   2.838   0.229   5.150  0.3051 -0.3907 -0.9534
 5622TIP3    H138281   2.827   0.254   5.058 -1.8943 -1.5743 -1.0766
 5622TIP3    H238282   2.756   0.187   5.174  1.8839 -2.8618  0.6738
 5623TIP3   OH238283   6.087   0.483  13.980 -0.0372 -0.4165  0.0047
 5623TIP3    H138284   6.045   0.469  13.895  2.1386 -1.3687 -0.9743
 5623TIP3    H238285   6.141   0.406  13.993  0.7417  0.3543  1.6157
 5624TIP3   OH238286   3.268   6.085  15.579 -0.1949 -0.2933  0.1902
 5624TIP3    H138287   3.211   6.082  15.502  0.6532  0.6325 -0.4993
 5624TIP3    H238288   3.303   5.997  15.586 -1.2738 -0.7338  0.3049
 5625TIP3   OH238289   0.014   5.539  16.246  0.1110  0.5047 -0.8165
 5625TIP3    H138290   0.041   5.618  16.199  0.4700  0.1332 -1.2396
 5625TIP3    H238291   0.088   5.518  16.303 -0.6368  1.4183  0.5520
 5626TIP3   OH238292   2.364   3.976   5.850  0.1321 -0.5998 -0.2856
 5626TIP3    H138293   2.274   3.943   5.843  0.3401 -1.0347 -1.0261
 5626TIP3    H238294   2.380   4.019   5.766  0.7342 -0.8344 -0.2957
 5627TIP3   OH238295   4.563   4.155  10.805  0.1882 -0.0781  0.4035
 5627TIP3    H138296   4.594   4.065  10.812  0.2724 -0.1970 -1.0518
 5627TIP3    H238297   4.635   4.208  10.841  1.9721 -0.3903 -2.3569
 5628TIP3   OH238298   1.944   0.075  16.129 -0.4047  0.6990 -0.1008
 5628TIP3    H138299   1.851   0.074  16.105 -0.3887 -1.2771 -0.2406
 5628TIP3    H238300   1.984   0.138  16.069 -1.4352  0.5971 -0.9209
 5629TIP3   OH238301   2.262   1.875  12.956  0.2620 -0.4281  0.3038
 5629TIP3    H138302   2.189   1.813  12.959 -0.1193  0.0036  3.5346
 5629TIP3    H238303   2.339   1.822  12.975  0.6083 -0.5861 -1.3869
 5630TIP3   OH238304   0.921   6.236   2.872 -0.5302 -0.3711 -0.3826
 5630TIP3    H138305   0.862   6.285   2.815 -1.4275 -0.3900  0.4966
 5630TIP3    H238306   0.905   6.271   2.959  2.5762  1.3835 -0.3780
 5631TIP3   OH238307   0.233   5.620   5.982  0.3423 -0.0984  0.0920
 5631TIP3    H138308   0.269   5.649   6.066 -0.0059  0.7713 -0.0444
 5631TIP3    H238309   0.149   5.667   5.975  0.2941 -0.2877 -0.6653
 5632TIP3   OH238310   3.514   3.877   2.361 -0.3339  0.3681 -0.4995
 5632TIP3    H138311   3.461   3.806   2.325  3.4340 -2.5652 -0.8982
 5632TIP3    H238312   3.567   3.907   2.287  0.1899  1.6049  0.3463
 5633TIP3   OH238313   0.749   6.605   3.863 -0.0227  0.2298 -0.5827
 5633TIP3    H138314   0.683   6.638   3.802 -0.2641  1.3655  0.2791
 5633TIP3    H238315   0.831   6.610   3.814 -0.4441 -0.4869 -1.3967
 5634TIP3   OH238316   6.228   6.140  12.293  0.3050  0.3155 -0.2790
 5634TIP3    H138317   6.184   6.216  12.332 -0.0597 -0.5324  1.0206
 5634TIP3    H238318   6.271   6.175  12.216 -1.3036  1.5123 -0.6993
 5635TIP3   OH238319   6.625   4.981  15.983 -0.3247 -0.2659  0.3893
 5635TIP3    H138320   6.637   4.962  15.890  0.7700 -0.7485  0.6191
 5635TIP3    H238321   6.632   5.076  15.989  2.1102 -0.3884  0.2970
 5636TIP3   OH238322   3.972   5.299  16.201  0.3309  0.9595  0.6615
 5636TIP3    H138323   3.918   5.252  16.265 -1.3654  0.8387 -0.7744
 5636TIP3    H238324   4.037   5.235  16.173 -1.7835 -0.5872 -1.0711
 5637TIP3   OH238325   6.003   3.132   5.123 -0.6269  0.1833  0.6308
 5637TIP3    H138326   6.037   3.183   5.049 -0.7713  1.2812  1.2983
 5637TIP3    H238327   5.935   3.077   5.084 -0.2989  0.3248 -0.1556
 5638TIP3   OH238328   0.476   4.831  16.890 -0.8461 -0.0982  0.1057
 5638TIP3    H138329   0.524   4.761  16.845 -0.1960 -0.1550  0.8736
 5638TIP3    H238330   0.411   4.860  16.826 -0.1214 -0.3620 -0.7771
 5639TIP3   OH238331   4.855   6.010   1.251  0.3286  0.5314 -0.3867
 5639TIP3    H138332   4.901   5.926   1.249 -0.3530  0.1475 -0.6794
 5639TIP3    H238333   4.922   6.075   1.232  0.9963  0.1160  0.4730
 5640TIP3   OH238334   0.444   3.355  10.821  0.1606 -0.2162  0.1924
 5640TIP3    H138335   0.394   3.433  10.799  0.3668 -0.2439 -0.3998
 5640TIP3    H238336   0.518   3.355  10.759 -0.1063 -1.1334 -0.1526
 5641TIP3   OH238337   1.759   6.586  16.435  0.1873 -0.1541 -0.6335
 5641TIP3    H138338   1.854   6.590  16.437  0.1757 -0.3185  0.8513
 5641TIP3    H238339   1.733   6.671  16.399  0.8872 -0.2092 -1.2952
 5642TIP3   OH238340   3.866   4.169   2.784  0.0240 -0.4508 -0.3861
 5642TIP3    H138341   3.829   4.215   2.708 -0.0211 -1.1272 -0.7791
 5642TIP3    H238342   3.950   4.213   2.799  0.8488 -1.4291 -1.9303
 5643TIP3   OH238343   4.825   4.281   0.766 -0.1846 -0.7163  0.2335
 5643TIP3    H138344   4.821   4.366   0.810  0.1052 -0.5901  0.0226
 5643TIP3    H238345   4.770   4.291   0.689 -1.9348 -1.4173  1.3351
 5644TIP3   OH238346   1.427   4.268  16.298  0.7196  0.1742 -0.1864
 5644TIP3    H138347   1.502   4.250  16.242  0.1399 -0.8380 -0.6661
 5644TIP3    H238348   1.364   4.199  16.277 -0.1892  0.7703  0.4883
 5645TIP3   OH238349   0.488   3.213  14.647  0.5574 -0.3459 -0.5606
 5645TIP3    H138350   0.402   3.173  14.636 -1.4381  3.2384  0.5533
 5645TIP3    H238351   0.504   3.213  14.741 -0.4480  2.9226 -0.2734
 5646TIP3   OH238352   1.697   6.578  12.728  0.6240  0.6301 -0.0283
 5646TIP3    H138353   1.756   6.577  12.653 -0.7617  2.3849 -1.2344
 5646TIP3    H238354   1.751   6.606  12.801  1.8480 -0.4416 -0.4833
 5647TIP3   OH238355   3.376   2.709   3.353 -0.2668 -0.1611  0.1442
 5647TIP3    H138356   3.294   2.753   3.328 -0.6812 -1.5143 -0.9935
 5647TIP3    H238357   3.348   2.639   3.412  0.1044 -0.4433 -0.0152
 5648TIP3   OH238358   6.647   5.390   5.930  0.1873  0.0891 -0.1456
 5648TIP3    H138359   6.703   5.401   6.007  0.4862  0.2973 -0.3886
 5648TIP3    H238360   6.568   5.441   5.950 -0.0025 -0.3632  0.2790
 5649TIP3   OH238361   3.639   0.953   1.740 -0.2341  0.3575 -0.5804
 5649TIP3    H138362   3.613   0.905   1.819 -1.6284  0.6042 -0.8575
 5649TIP3    H238363   3.728   0.982   1.757 -0.8832  1.3634  1.3648
 5650TIP3   OH238364   6.076   3.284  14.895  0.2301 -0.1302 -0.2039
 5650TIP3    H138365   5.990   3.286  14.852  0.6124 -0.1028 -0.9834
 5650TIP3    H238366   6.057   3.258  14.985 -0.9006  2.6087  0.4346
 5651TIP3   OH238367   4.370   2.177  12.790  0.2632 -0.7789 -0.2815
 5651TIP3    H138368   4.361   2.256  12.737  0.5745  0.8267  1.9431
 5651TIP3    H238369   4.289   2.173  12.841  1.1154 -0.7105  1.1227
 5652TIP3   OH238370   6.264   2.725  14.432 -0.2214  0.1277 -1.0643
 5652TIP3    H138371   6.296   2.799  14.483  1.0807 -1.2168  0.1908
 5652TIP3    H238372   6.338   2.701  14.376 -0.1083 -1.0535 -0.4481
 5653TIP3   OH238373   2.055   3.589   5.518 -0.3620  0.2978 -0.4852
 5653TIP3    H138374   2.127   3.542   5.475  0.3105  0.6799  0.1860
 5653TIP3    H238375   1.981   3.528   5.515  0.2197 -0.4300 -0.4789
 5654TIP3   OH238376   4.616   0.275  12.901 -0.5884 -0.2947 -0.3653
 5654TIP3    H138377   4.667   0.299  12.979 -0.5794  0.9842 -0.7369
 5654TIP3    H238378   4.679   0.281  12.829 -1.2204  1.3135 -0.8309
 5655TIP3   OH238379   6.163   4.976   3.329 -0.2221  0.3735  0.2974
 5655TIP3    H138380   6.105   5.026   3.387 -0.3921  0.4143  0.0956
 5655TIP3    H238381   6.250   4.988   3.365 -0.2701  0.7608  0.2936
 5656TIP3   OH238382   5.444   2.754  14.052  0.4760  0.3412 -0.0528
 5656TIP3    H138383   5.464   2.845  14.035  0.1574 -0.0775 -3.2827
 5656TIP3    H238384   5.351   2.745  14.030  0.8729 -1.0195 -1.3820
 5657TIP3   OH238385   2.645   3.468  14.954  0.4196 -0.0668 -0.0374
 5657TIP3    H138386   2.704   3.394  14.971 -0.5457 -0.4015  2.1651
 5657TIP3    H238387   2.638   3.471  14.858  1.9019 -1.6720 -0.2554
 5658TIP3   OH238388   5.071   0.827   0.661  0.3197  0.3059  0.0254
 5658TIP3    H138389   5.103   0.853   0.574  1.9224  0.2332  0.5758
 5658TIP3    H238390   5.087   0.904   0.716 -0.0016  0.0787  0.4423
 5659TIP3   OH238391   0.272   1.385  16.376  0.0197  0.0997  0.0280
 5659TIP3    H138392   0.241   1.466  16.335  0.8158  0.0750 -0.6411
 5659TIP3    H238393   0.301   1.412  16.463 -0.0692  0.4706 -0.0556
 5660TIP3   OH238394   1.813   5.440   4.439  0.2660 -0.1680  0.0426
 5660TIP3    H138395   1.780   5.475   4.521  0.1648 -0.3814  0.0952
 5660TIP3    H238396   1.736   5.433   4.383 -0.1843 -2.5426  0.8268
 5661TIP3   OH238397   5.409   5.270   4.984  0.4567 -0.1833  0.0092
 5661TIP3    H138398   5.350   5.298   5.053 -3.4463 -0.8509 -2.7234
 5661TIP3    H238399   5.444   5.187   5.014  1.4733  1.0113  2.4081
 5662TIP3   OH238400   6.712   5.601   2.276  0.1277  0.6771  0.3173
 5662TIP3    H138401   6.687   5.547   2.201 -0.8986  2.4593 -0.7013
 5662TIP3    H238402   6.765   5.544   2.331 -0.7247 -1.2778 -0.7965
 5663TIP3   OH238403   5.280   1.137  16.861  0.3153  0.3440  0.0416
 5663TIP3    H138404   5.364   1.127  16.816  0.6575 -1.8287  1.0237
 5663TIP3    H238405   5.222   1.074  16.819 -1.4373  2.9495 -1.7423
 5664TIP3   OH238406   1.272   6.627   4.892  0.1439 -0.3126 -0.2498
 5664TIP3    H138407   1.318   6.689   4.836  1.4759 -0.6424  0.4330
 5664TIP3    H238408   1.185   6.618   4.852  0.9234 -0.2884 -2.0757
 5665TIP3   OH238409   4.134   6.155  15.342 -0.5044  0.0172  0.5174
 5665TIP3    H138410   4.136   6.177  15.249  0.1475 -1.2752  0.2026
 5665TIP3    H238411   4.048   6.184  15.371 -0.5758  0.7838 -0.3930
 5666TIP3   OH238412   4.952   2.489   3.685 -0.1644 -0.2545  0.0303
 5666TIP3    H138413   4.956   2.411   3.630  0.0048 -0.1994 -0.0338
 5666TIP3    H238414   4.882   2.470   3.748 -0.8511 -0.0278 -0.6446
 5667TIP3   OH238415   6.734   0.838  14.194  0.3515 -1.0831 -0.2246
 5667TIP3    H138416   6.663   0.817  14.134  0.5350  0.2423 -0.9389
 5667TIP3    H238417   6.700   0.909  14.248  1.4681  0.3430 -1.3141
 5668TIP3   OH238418   5.000   0.894   4.886  0.3331 -0.1450  0.2429
 5668TIP3    H138419   4.941   0.834   4.842  0.7360 -0.9727  0.7984
 5668TIP3    H238420   5.003   0.863   4.977  2.4003 -0.7805  0.0099
 5669TIP3   OH238421   5.862   4.088  16.026  0.1669  0.5382  0.2406
 5669TIP3    H138422   5.947   4.107  15.986  0.1111 -1.3515 -0.9063
 5669TIP3    H238423   5.799   4.133  15.971  0.2383 -0.5595 -0.7900
 5670TIP3   OH238424   0.619   3.568   5.717 -0.2096  0.3225  0.1568
 5670TIP3    H138425   0.700   3.609   5.688 -0.0979 -0.1818 -0.2518
 5670TIP3    H238426   0.590   3.622   5.790  0.6088  0.3689  0.4531
 5671TIP3   OH238427   3.296   0.137   0.261  0.2738 -0.1034 -0.5035
 5671TIP3    H138428   3.212   0.147   0.307  0.3892  1.8503 -0.6490
 5671TIP3    H238429   3.359   0.117   0.330  0.0768  0.7260 -0.0708
 5672TIP3   OH238430   2.356   2.469   0.864 -0.1191  0.0773  0.0679
 5672TIP3    H138431   2.302   2.404   0.819 -0.2836 -0.0187  0.4066
 5672TIP3    H238432   2.403   2.419   0.930 -2.2122  0.6898  2.1400
 5673TIP3   OH238433   0.372   2.534   1.588 -0.1023  0.6007  0.3472
 5673TIP3    H138434   0.371   2.454   1.640  0.5274  0.7879  0.6626
 5673TIP3    H238435   0.324   2.597   1.642  1.0772  0.9652  1.0072
 5674TIP3   OH238436   3.034   6.716  15.109 -0.1707 -0.1823 -0.6053
 5674TIP3    H138437   3.093   6.698  15.181 -0.3366  1.4752 -0.0198
 5674TIP3    H238438   2.974   6.641  15.107  0.0539 -0.4095  0.7398
 5675TIP3   OH238439   1.491   6.255   5.460 -0.0972  0.2591  0.2099
 5675TIP3    H138440   1.483   6.337   5.411  3.2313  1.7753  1.9079
 5675TIP3    H238441   1.540   6.278   5.539 -0.1559 -3.1515  1.4227
 5676TIP3   OH238442   2.428   2.880  12.292 -0.2290 -0.1718 -0.0753
 5676TIP3    H138443   2.354   2.850  12.344  0.3224 -1.4099  0.0195
 5676TIP3    H238444   2.451   2.965  12.330  0.0576 -0.9613  1.6239
 5677TIP3   OH238445   0.421   1.203  13.059 -0.9219 -0.2112 -0.1019
 5677TIP3    H138446   0.393   1.128  13.006 -0.4542 -1.0980  0.8625
 5677TIP3    H238447   0.510   1.221  13.029 -1.2520  0.3970 -0.7737
 5678TIP3   OH238448   5.877   3.106  15.906 -0.1994  0.2499  0.5306
 5678TIP3    H138449   5.840   3.091  15.993 -0.5507  0.8907  0.5000
 5678TIP3    H238450   5.802   3.099  15.847 -0.2667  1.4458  0.4537
 5679TIP3   OH238451   3.754   0.910  12.050 -0.8918  0.0205  0.1751
 5679TIP3    H138452   3.688   0.845  12.029 -0.9408 -0.2544  1.1223
 5679TIP3    H238453   3.733   0.938  12.139 -0.4639  0.8323  0.0341
 5680TIP3   OH238454   2.817   1.149  16.378  0.7303 -0.0291 -0.6324
 5680TIP3    H138455   2.869   1.074  16.404  1.1487  0.2269 -0.7189
 5680TIP3    H238456   2.853   1.222  16.429  0.6958  0.2186 -0.9596
 5681TIP3   OH238457   3.178   0.737   5.050  0.5516  0.0352  0.4301
 5681TIP3    H138458   3.220   0.811   5.006 -0.0978 -0.0348 -0.3137
 5681TIP3    H238459   3.251   0.691   5.093  1.0205  0.8316  0.5073
 5682TIP3   OH238460   5.946   5.513   5.174 -0.1494  0.1267 -0.0426
 5682TIP3    H138461   5.853   5.516   5.152  0.0399  2.5415 -0.8422
 5682TIP3    H238462   5.986   5.469   5.099 -0.5370  0.1184 -0.2491
 5683TIP3   OH238463   3.733   5.020   5.619  0.2636 -0.0954  0.0483
 5683TIP3    H138464   3.717   5.074   5.541  0.6929  1.1457  0.7869
 5683TIP3    H238465   3.718   5.080   5.693  1.0457 -0.9107  0.8916
 5684TIP3   OH238466   2.303   6.456   4.714  0.0011  0.6892  0.1814
 5684TIP3    H138467   2.255   6.442   4.632 -1.7930  2.1012  0.9248
 5684TIP3    H238468   2.395   6.454   4.689 -0.5177  2.1130 -2.0520
 5685TIP3   OH238469   5.290   4.318   0.157  0.5638  0.7612  0.4452
 5685TIP3    H138470   5.246   4.257   0.097 -1.6043  1.2873  1.4217
 5685TIP3    H238471   5.341   4.263   0.215  1.9721  0.1841 -1.2426
 5686TIP3   OH238472   1.543   4.109  13.910 -0.0481  0.6184 -0.4807
 5686TIP3    H138473   1.593   4.190  13.907  1.4272 -0.2187  0.4849
 5686TIP3    H238474   1.608   4.041  13.928 -1.2860 -0.7499 -0.9852
 5687TIP3   OH238475   6.691   5.468  15.017  0.0231 -0.1809 -0.0677
 5687TIP3    H138476   6.628   5.471  15.089 -0.4941 -0.1485 -0.5137
 5687TIP3    H238477   6.776   5.478  15.059 -0.3728  1.8538  0.3629
 5688TIP3   OH238478   4.143   4.993   5.206  0.1514  0.7564  0.6414
 5688TIP3    H138479   4.211   5.060   5.203  1.6423 -0.7351  0.1631
 5688TIP3    H238480   4.171   4.932   5.273  0.5799 -1.1704 -1.1903
 5689TIP3   OH238481   6.424   0.460   4.191  0.5797 -0.0779  0.1246
 5689TIP3    H138482   6.514   0.488   4.210  1.3611 -2.2706 -0.0200
 5689TIP3    H238483   6.411   0.382   4.245 -1.0550 -0.1078 -0.2670
 5690TIP3   OH238484   2.638   3.563   3.819  0.5105 -0.3800 -0.0883
 5690TIP3    H138485   2.626   3.509   3.897 -0.0684  1.5182  1.1981
 5690TIP3    H238486   2.729   3.591   3.823  0.1034  0.8991  0.7439
 5691TIP3   OH238487   0.377   2.953  15.303 -0.0350  0.4271  0.6780
 5691TIP3    H138488   0.309   3.007  15.343 -1.0680  0.0000 -0.4433
 5691TIP3    H238489   0.337   2.866  15.296  0.6186  0.1758 -0.0096
 5692TIP3   OH238490   0.366   6.137   5.710  0.3043  0.0707 -0.5925
 5692TIP3    H138491   0.449   6.161   5.750  1.8927 -1.6246 -2.6237
 5692TIP3    H238492   0.357   6.198   5.636  0.1614 -0.3055 -0.8854
 5693TIP3   OH238493   1.319   5.526  16.240  0.8218  0.2342  0.6678
 5693TIP3    H138494   1.335   5.563  16.327  1.0070  1.5621  0.0904
 5693TIP3    H238495   1.380   5.573  16.183  0.7422 -0.6666 -0.1799
 5694TIP3   OH238496   4.360   5.142  15.213 -0.0371 -0.3226 -0.3204
 5694TIP3    H138497   4.331   5.154  15.303 -1.2015 -0.3840 -0.6666
 5694TIP3    H238498   4.286   5.098  15.170  0.3147  0.1114 -1.4080
 5695TIP3   OH238499   6.028   6.547  14.730  0.5812 -0.0609 -0.2305
 5695TIP3    H138500   5.987   6.473  14.775  0.7935  0.6603  1.2141
 5695TIP3    H238501   5.989   6.547  14.643 -0.7860 -0.7605  0.3562
 5696TIP3   OH238502   2.604   6.099  15.736  0.5600  0.3214  0.8771
 5696TIP3    H138503   2.609   6.018  15.786 -2.0352 -0.0610  0.6292
 5696TIP3    H238504   2.637   6.075  15.649 -0.7335 -0.6659  0.6315
 5697TIP3   OH238505   5.914   6.751  11.315 -0.2733  0.3220 -0.1863
 5697TIP3    H138506   5.923   6.693  11.239 -1.2277  0.0164 -0.0856
 5697TIP3    H238507   5.829   6.728  11.353  0.7693 -0.5077  1.8131
 5698TIP3   OH238508   3.201   0.967   1.919  0.1944  0.5091  0.7300
 5698TIP3    H138509   3.198   0.973   2.014 -1.5300  1.5965  0.6537
 5698TIP3    H238510   3.109   0.964   1.892  0.6554  0.0548 -0.8907
 5699TIP3   OH238511   6.078   5.395   0.919  0.1347 -0.2567 -0.0206
 5699TIP3    H138512   6.009   5.397   0.986 -1.1010 -0.7887 -1.2379
 5699TIP3    H238513   6.077   5.482   0.881  2.0189  0.6103  1.7553
 5700TIP3   OH238514   6.809   1.753  12.132  0.0210  0.3180  0.4626
 5700TIP3    H138515   6.891   1.705  12.144  0.9467  1.5460 -0.5663
 5700TIP3    H238516   6.835   1.832  12.084 -1.9449  0.1690 -0.9472
 5701TIP3   OH238517   5.991   0.293   3.123 -0.4163  0.5760  0.1494
 5701TIP3    H138518   6.003   0.233   3.197  1.0334  0.2643 -0.2955
 5701TIP3    H238519   5.915   0.260   3.076  1.6141 -2.3883 -1.3683
 5702TIP3   OH238520   2.283   5.720  11.155  0.2237  0.4224 -0.1740
 5702TIP3    H138521   2.229   5.799  11.151 -0.3458  0.0102 -0.9862
 5702TIP3    H238522   2.273   5.679  11.069 -2.1591 -2.2459  1.1739
 5703TIP3   OH238523   1.321   6.194  12.508  0.1341 -0.4825 -0.3521
 5703TIP3    H138524   1.230   6.164  12.513 -0.4664  1.3838  1.1678
 5703TIP3    H238525   1.329   6.256  12.580  2.1325  0.7149 -1.5317
 5704TIP3   OH238526   0.914   3.014   4.096  0.3262  0.4444  0.1052
 5704TIP3    H138527   0.945   3.104   4.084  0.2776  0.4992  0.3797
 5704TIP3    H238528   0.880   2.988   4.011 -2.0213  1.5865  0.6277
 5705TIP3   OH238529   5.457   2.918   2.463 -0.0514  0.0022  0.0848
 5705TIP3    H138530   5.369   2.883   2.472  0.4408 -1.1511  0.5730
 5705TIP3    H238531   5.445   3.000   2.415 -1.3614 -0.2220 -0.0122
 5706TIP3   OH238532   0.312   5.749  16.325  0.0096 -0.0618 -0.2402
 5706TIP3    H138533   0.307   5.820  16.390  1.3749 -1.7406  1.8473
 5706TIP3    H238534   0.394   5.764  16.280  0.7421 -0.7264  0.8135
 5707TIP3   OH238535   0.594   1.281   1.739 -0.3091  0.6389 -0.4392
 5707TIP3    H138536   0.549   1.338   1.801 -0.2951 -1.9535  2.1874
 5707TIP3    H238537   0.545   1.291   1.657 -0.9456  3.4723  0.2034
 5708TIP3   OH238538   6.636   3.442   3.312 -0.4626  0.3609 -0.2261
 5708TIP3    H138539   6.717   3.491   3.330 -1.0949  0.6339  2.3438
 5708TIP3    H238540   6.572   3.510   3.289 -0.5291  0.4025  0.0775
 5709TIP3   OH238541   6.658   6.234   5.348  0.0076  0.7475  0.1897
 5709TIP3    H138542   6.726   6.175   5.378 -0.8089  0.0689  0.7397
 5709TIP3    H238543   6.603   6.181   5.290 -0.8653  0.8890  0.8704
 5710TIP3   OH238544   0.337   0.419   0.608 -0.3277 -0.0011 -0.3628
 5710TIP3    H138545   0.298   0.367   0.537  1.1562  0.1902 -1.3530
 5710TIP3    H238546   0.406   0.363   0.643 -0.8729  0.0171  0.7897
 5711TIP3   OH238547   4.803   4.840   6.218 -0.3169  0.6380  0.0880
 5711TIP3    H138548   4.813   4.923   6.170 -2.9458  0.7903 -0.3518
 5711TIP3    H238549   4.857   4.778   6.169  0.0150  1.6242 -0.8505
 5712TIP3   OH238550   4.573   3.720   4.347 -0.8266  0.0327 -0.2564
 5712TIP3    H138551   4.604   3.798   4.301  1.6192 -0.8309 -0.2016
 5712TIP3    H238552   4.608   3.728   4.435  0.0972 -1.4337 -0.4491
 5713TIP3   OH238553   2.228   5.020   5.979 -0.9246  0.3709 -0.6043
 5713TIP3    H138554   2.281   4.988   5.906 -0.0796  0.6546 -0.1155
 5713TIP3    H238555   2.291   5.051   6.044 -1.6870  1.0802 -0.1799
 5714TIP3   OH238556   3.175   2.821  15.422  0.3626 -0.2180  0.6197
 5714TIP3    H138557   3.253   2.853  15.466  0.2821 -0.5414  0.9988
 5714TIP3    H238558   3.124   2.778  15.491 -0.3432  0.3507  0.4620
 5715TIP3   OH238559   3.202   0.109  12.997 -0.4004  0.2633  0.6048
 5715TIP3    H138560   3.130   0.140  12.941  0.3190  1.7999  0.4861
 5715TIP3    H238561   3.174   0.022  13.026 -1.5438  0.1306 -0.7909
 5716TIP3   OH238562   4.890   1.363  14.434 -0.4082 -0.2086 -0.0172
 5716TIP3    H138563   4.804   1.337  14.465 -0.2158  0.7740  1.4882
 5716TIP3    H238564   4.873   1.413  14.354 -1.0100 -2.0160 -1.0687
 5717TIP3   OH238565   5.696   6.815   3.909  0.0924 -0.2660 -0.1136
 5717TIP3    H138566   5.728   6.779   3.826 -1.3217 -0.9938 -0.3661
 5717TIP3    H238567   5.747   6.768   3.975 -0.4838 -1.5067 -0.5074
 5718TIP3   OH238568   0.198   5.233  11.618  0.0513 -0.3029 -0.3142
 5718TIP3    H138569   0.238   5.165  11.671 -2.9046 -2.1040 -0.1538
 5718TIP3    H238570   0.238   5.223  11.531  0.5350 -1.4277  0.0215
 5719TIP3   OH238571   0.965   5.539  15.514 -0.0663  0.1846  0.5271
 5719TIP3    H138572   0.875   5.536  15.482  0.3196  0.1620 -0.5873
 5719TIP3    H238573   1.011   5.596  15.452  0.3371  1.5776  2.0191
 5720TIP3   OH238574   3.383   4.374  13.583 -0.1525 -0.4607  0.0804
 5720TIP3    H138575   3.340   4.457  13.602 -1.4024 -0.4563 -2.4199
 5720TIP3    H238576   3.312   4.315  13.556  0.8977 -1.8887  0.2912
 5721TIP3   OH238577   1.781   4.221  14.355 -0.5997  0.6010  0.0224
 5721TIP3    H138578   1.837   4.292  14.386 -0.6990 -0.0708  1.8424
 5721TIP3    H238579   1.704   4.265  14.319  0.4682  1.4810 -1.2868
 5722TIP3   OH238580   1.820   0.540  16.175 -0.3640  0.2562 -0.2085
 5722TIP3    H138581   1.827   0.452  16.211 -1.7414 -0.1268 -0.8198
 5722TIP3    H238582   1.786   0.593  16.247  1.4809  0.5477  0.4915
 5723TIP3   OH238583   4.217   2.484  13.918 -0.0375 -0.1371 -0.3307
 5723TIP3    H138584   4.234   2.571  13.882 -0.3186  0.2024  0.3294
 5723TIP3    H238585   4.129   2.491  13.955  0.4396 -0.3004  0.8952
 5724TIP3   OH238586   5.358   3.848   6.179  0.1482 -0.0049  0.1741
 5724TIP3    H138587   5.396   3.781   6.123 -0.7190 -0.1149 -0.2989
 5724TIP3    H238588   5.391   3.930   6.144 -0.8598 -0.0324 -0.8967
 5725TIP3   OH238589   6.416   0.400   2.885  0.4997  0.2120 -0.1618
 5725TIP3    H138590   6.343   0.359   2.840  0.1114 -0.4973  1.0507
 5725TIP3    H238591   6.428   0.484   2.842 -2.0436  1.0210  0.5767
 5726TIP3   OH238592   5.144   3.898   5.869 -0.7653 -0.2826  0.0547
 5726TIP3    H138593   5.150   3.972   5.809  0.8002 -0.7249 -0.3578
 5726TIP3    H238594   5.052   3.872   5.865 -0.1547 -3.1801 -5.7050
 5727TIP3   OH238595   3.184   6.541  13.610  0.0372  0.0186 -0.0788
 5727TIP3    H138596   3.174   6.447  13.625 -1.1449  0.4586  2.2951
 5727TIP3    H238597   3.226   6.575  13.689 -1.1543  1.7171 -0.1124
 5728TIP3   OH238598   6.444   0.358   3.167  0.2187  0.2421 -0.1845
 5728TIP3    H138599   6.433   0.372   3.072  0.9860  2.2929 -0.0175
 5728TIP3    H238600   6.528   0.399   3.187  0.9158 -1.7225  1.1202
 5729TIP3   OH238601   0.392   1.845   4.452 -0.3096  0.2209 -0.1062
 5729TIP3    H138602   0.438   1.799   4.382  0.9086  1.0915  0.1020
 5729TIP3    H238603   0.406   1.938   4.434 -0.3213  0.4613  1.0722
 5730TIP3   OH238604   0.902   3.956   5.625  0.0242  0.3308  0.4028
 5730TIP3    H138605   0.927   4.043   5.594 -0.0068  0.3632  0.4672
 5730TIP3    H238606   0.807   3.961   5.638  0.3039  0.9828  2.5477
 5731TIP3   OH238607   6.245   6.376   1.617  0.1218  0.1584  0.0517
 5731TIP3    H138608   6.179   6.337   1.674  0.6028  0.3501  0.7538
 5731TIP3    H238609   6.290   6.301   1.578 -1.3440  0.0111 -1.4590
 5732TIP3   OH238610   5.055   3.800  14.811  0.5313  0.3774 -0.7385
 5732TIP3    H138611   5.112   3.735  14.770  1.4448  0.9710 -0.4462
 5732TIP3    H238612   4.997   3.749  14.867  1.9950 -0.1190  0.3955
 5733TIP3   OH238613   4.123   0.280  16.343 -0.3793  0.1752  0.1172
 5733TIP3    H138614   4.174   0.324  16.412  0.3406  0.5603 -0.6435
 5733TIP3    H238615   4.037   0.322  16.348 -0.7003 -0.5797  1.5055
 5734TIP3   OH238616   6.516   4.227   5.532  0.3533  0.0063  0.5252
 5734TIP3    H138617   6.504   4.204   5.440 -1.4604  0.9481  0.4677
 5734TIP3    H238618   6.593   4.283   5.533  1.9418 -2.0813 -0.0066
 5735TIP3   OH238619   2.769   2.841  15.743  1.0717  0.0683  0.0172
 5735TIP3    H138620   2.721   2.909  15.789 -1.3516 -1.7369  0.3422
 5735TIP3    H238621   2.860   2.853  15.771 -0.0382 -0.1633  4.3803
 5736TIP3   OH238622   4.207   5.660   2.522 -0.4626 -0.2091 -0.0971
 5736TIP3    H138623   4.297   5.693   2.527 -0.5234 -0.2932  2.8893
 5736TIP3    H238624   4.158   5.713   2.584 -2.1130 -1.3612 -0.3430
 5737TIP3   OH238625   3.311   2.691   1.398 -0.2627  0.2631 -0.3726
 5737TIP3    H138626   3.285   2.676   1.308 -0.2414 -1.1696 -0.1544
 5737TIP3    H238627   3.265   2.772   1.423  0.0515  0.9047 -1.7651
 5738TIP3   OH238628   4.560   1.641   2.866  0.3711 -0.0334 -0.1628
 5738TIP3    H138629   4.600   1.573   2.920 -0.4589 -1.4658 -1.2911
 5738TIP3    H238630   4.474   1.656   2.906  1.7086  2.8008  2.0551
 5739TIP3   OH238631   2.069   3.653  12.792 -0.0998 -0.2949  0.2821
 5739TIP3    H138632   2.074   3.748  12.803  0.1127 -0.3986  1.1620
 5739TIP3    H238633   2.158   3.626  12.770  0.2049 -0.4722  1.6678
 5740TIP3   OH238634   5.876   3.059  12.715 -0.1384 -0.3927 -0.0191
 5740TIP3    H138635   5.887   3.054  12.810 -1.4269 -2.1801  0.0877
 5740TIP3    H238636   5.877   2.968  12.686  2.5535  0.1745 -2.0635
 5741TIP3   OH238637   2.498   5.963  10.796  0.3753 -0.2393 -0.8306
 5741TIP3    H138638   2.493   6.047  10.841 -1.2910 -0.2319 -0.9449
 5741TIP3    H238639   2.567   5.974  10.730  2.8514 -0.2362  1.5975
 5742TIP3   OH238640   6.608   2.863   3.339  0.6862  0.1120 -0.1854
 5742TIP3    H138641   6.580   2.885   3.428  1.4678  0.0734  0.0790
 5742TIP3    H238642   6.564   2.927   3.284 -0.1659 -0.1375  0.1728
 5743TIP3   OH238643   4.947   3.271  17.042 -0.4613  0.3859  0.7162
 5743TIP3    H138644   4.986   3.238  17.123  0.9295 -1.1402 -0.4792
 5743TIP3    H238645   4.862   3.228  17.037  1.0157 -2.8035 -0.4495
 5744TIP3   OH238646   5.234   1.956  12.674  0.1560  0.3953  0.5218
 5744TIP3    H138647   5.194   1.954  12.761 -1.5306  0.6176 -0.1942
 5744TIP3    H238648   5.267   1.867  12.661 -3.2465 -0.9360 -0.1427
 5745TIP3   OH238649   5.190   5.766  11.121  0.0567  0.7978  0.3468
 5745TIP3    H138650   5.283   5.745  11.109 -0.6001 -1.1776 -2.3956
 5745TIP3    H238651   5.148   5.681  11.138 -1.3097  1.6218  1.3013
 5746TIP3   OH238652   3.502   3.472  15.196 -0.0888  0.1780 -0.5954
 5746TIP3    H138653   3.525   3.380  15.179  0.8291  0.8418 -3.4237
 5746TIP3    H238654   3.432   3.467  15.261  0.2168 -2.4928 -0.3497
 5747TIP3   OH238655   2.732   0.691  15.470 -0.5034 -0.0992  0.3269
 5747TIP3    H138656   2.734   0.760  15.404 -1.3463 -0.6558 -0.3096
 5747TIP3    H238657   2.756   0.735  15.552 -0.3058  0.7857 -0.1949
 5748TIP3   OH238658   0.248   5.621  12.087 -0.1153  0.1362 -0.2148
 5748TIP3    H138659   0.236   5.645  12.179  0.2032 -1.4221  0.2517
 5748TIP3    H238660   0.172   5.567  12.066 -0.3872  0.8014 -0.9992
 5749TIP3   OH238661   0.293   2.859   6.036  0.1424  0.4496 -0.1954
 5749TIP3    H138662   0.227   2.872   5.968 -1.3076  1.1809  1.2672
 5749TIP3    H238663   0.248   2.883   6.117  1.9740  0.1498  0.9618
 5750TIP3   OH238664   4.533   6.057  15.656 -0.3770 -0.2926 -0.2273
 5750TIP3    H138665   4.559   5.966  15.641 -0.5478 -0.4843  0.5809
 5750TIP3    H238666   4.544   6.070  15.751  2.9297  1.5454 -0.6970
 5751TIP3   OH238667   3.701   1.004  11.167  0.0163  0.5931  0.6877
 5751TIP3    H138668   3.621   0.956  11.191 -0.7848  0.5626 -1.7886
 5751TIP3    H238669   3.685   1.094  11.196 -2.3173  1.3171 -2.3763
 5752TIP3   OH238670   4.517   1.380  15.535 -0.1423  0.1909  0.2350
 5752TIP3    H138671   4.506   1.394  15.629  0.4932  0.0805  0.3305
 5752TIP3    H238672   4.579   1.448  15.508  0.3762 -0.3398  0.0697
 5753TIP3   OH238673   4.404   2.940  16.924  0.0976 -0.3633  0.4706
 5753TIP3    H138674   4.448   2.937  16.839 -0.9859  1.1939 -0.1901
 5753TIP3    H238675   4.465   2.988  16.981 -0.3947  1.1707 -0.2501
 5754TIP3   OH238676   4.896   4.561  14.972 -0.3597  0.0812 -0.0126
 5754TIP3    H138677   4.819   4.608  14.939 -1.0102 -0.6115  0.4912
 5754TIP3    H238678   4.878   4.469  14.953  0.2297 -0.1093  0.3433
 5755TIP3   OH238679   4.127   1.390  10.332  0.0306 -0.3206  0.1271
 5755TIP3    H138680   4.180   1.466  10.353  1.3467 -1.2620  0.3359
 5755TIP3    H238681   4.046   1.402  10.383  0.1920  0.9405  0.1107
 5756TIP3   OH238682   5.846   2.991  15.114 -0.1413 -0.1905 -0.1324
 5756TIP3    H138683   5.857   2.926  15.183  0.8009 -1.2857 -1.2505
 5756TIP3    H238684   5.817   2.941  15.038  0.0337  0.7792 -0.8628
 5757TIP3   OH238685   0.065   1.392   2.004  0.5985  0.6048 -0.2418
 5757TIP3    H138686   0.040   1.328   1.938  2.0931 -0.0169 -0.2429
 5757TIP3    H238687   0.019   1.473   1.979 -1.1754 -0.3774 -0.3382
 5758TIP3   OH238688   2.303   4.013   1.996 -0.0640  0.2841 -0.1235
 5758TIP3    H138689   2.211   3.996   1.976 -0.7743  0.2716  2.6785
 5758TIP3    H238690   2.300   4.087   2.058  1.9843  1.6248 -1.5036
 5759TIP3   OH238691   0.997   2.764  11.223  0.0303 -0.6314 -0.0081
 5759TIP3    H138692   0.921   2.799  11.177  0.9319  1.4027 -0.0779
 5759TIP3    H238693   1.003   2.816  11.303  0.7531 -1.4684  0.5002
 5760TIP3   OH238694   2.524   5.291   3.491 -0.5376 -0.0912  0.1469
 5760TIP3    H138695   2.437   5.317   3.461  0.5781  3.2121 -0.6426
 5760TIP3    H238696   2.523   5.304   3.586  0.0652  3.8156 -0.2177
 5761TIP3   OH238697   3.073   4.191  13.853  0.0635 -0.6839 -0.1819
 5761TIP3    H138698   3.067   4.138  13.932  0.7124 -1.0020 -0.3317
 5761TIP3    H238699   2.983   4.205  13.825 -0.1593 -0.6808  0.5393
 5762TIP3   OH238700   4.229   1.903   5.732 -0.0586 -0.0110 -0.5091
 5762TIP3    H138701   4.276   1.948   5.803 -0.6054 -1.4297  0.8193
 5762TIP3    H238702   4.297   1.851   5.688 -0.1036 -1.0086  0.5518
 5763TIP3   OH238703   5.333   4.048   2.802 -0.1505  0.0238 -0.1524
 5763TIP3    H138704   5.377   3.964   2.817  0.6684 -0.0327 -2.4731
 5763TIP3    H238705   5.399   4.102   2.758 -1.1401  1.3810 -0.0244
 5764TIP3   OH238706   1.323   4.773  11.759 -0.0582  0.4768 -0.3374
 5764TIP3    H138707   1.363   4.811  11.837  0.8851  2.2097 -1.5943
 5764TIP3    H238708   1.295   4.686  11.787  2.8681 -0.1342  1.1722
 5765TIP3   OH238709   1.362   5.491  15.510 -0.1587 -0.0423 -0.0959
 5765TIP3    H138710   1.273   5.482  15.542 -0.1166 -0.6474 -0.1318
 5765TIP3    H238711   1.404   5.407  15.530  1.0205  0.9291  1.7845
 5766TIP3   OH238712   2.184   0.686  16.324 -0.5378  0.2025  0.1657
 5766TIP3    H138713   2.265   0.636  16.321 -0.7103 -0.0430 -0.7745
 5766TIP3    H238714   2.190   0.737  16.405  0.0532 -0.6373  0.6672
 5767TIP3   OH238715   6.351   6.481  16.981  0.5222 -0.0617  0.1792
 5767TIP3    H138716   6.346   6.388  17.000  0.4391  0.2333  1.7013
 5767TIP3    H238717   6.264   6.515  17.004  1.1145  0.6850  1.4179
 5768TIP3   OH238718   4.039   5.041  11.696 -0.5730 -0.2228 -0.5223
 5768TIP3    H138719   4.064   5.013  11.784  1.6307  1.0642 -0.6570
 5768TIP3    H238720   3.977   5.113  11.710 -0.6010 -0.3353 -0.0569
 5769TIP3   OH238721   1.498   4.321   2.261 -0.0308 -0.0985 -0.3770
 5769TIP3    H138722   1.501   4.374   2.340  0.4022 -1.0606  0.2761
 5769TIP3    H238723   1.430   4.361   2.207  1.4087  2.1258 -0.6589
 5770TIP3   OH238724   5.959   4.576  13.409 -0.2705 -0.4085 -0.3146
 5770TIP3    H138725   5.962   4.561  13.315  0.0726 -0.5140 -0.2893
 5770TIP3    H238726   5.987   4.667  13.420 -0.4591 -0.3489 -0.3254
 5771TIP3   OH238727   6.181   0.119  12.954  0.4631  0.0441 -0.2855
 5771TIP3    H138728   6.157   0.162  12.872 -0.0786 -0.0775 -0.2002
 5771TIP3    H238729   6.222   0.037  12.928 -0.3098 -0.3028 -0.4348
 5772TIP3   OH238730   0.299   4.484  16.480 -0.0658  0.1911  0.1838
 5772TIP3    H138731   0.210   4.449  16.466  0.5338 -1.0258 -0.8806
 5772TIP3    H238732   0.343   4.469  16.396  1.8053 -1.2909  1.3586
 5773TIP3   OH238733   6.510   2.530   1.428 -0.9006  0.2365 -0.5039
 5773TIP3    H138734   6.576   2.514   1.361 -0.9432 -0.3442 -0.4170
 5773TIP3    H238735   6.437   2.571   1.382 -1.0610 -0.4530 -0.8797
 5774TIP3   OH238736   5.267   0.383  16.184  0.0267  0.0302 -0.6295
 5774TIP3    H138737   5.322   0.320  16.232  1.5972  2.1238  0.4757
 5774TIP3    H238738   5.200   0.408  16.247 -0.6475 -0.5681 -1.0979
 5775TIP3   OH238739   4.102   4.526  12.787 -0.1321  0.1040 -0.5016
 5775TIP3    H138740   4.188   4.562  12.764 -0.3199  0.6506 -0.3816
 5775TIP3    H238741   4.117   4.477  12.868  0.3512 -1.0681 -1.2784
 5776TIP3   OH238742   5.736   0.984  13.969 -0.0598  0.9617  0.3562
 5776TIP3    H138743   5.799   0.924  14.007 -1.8804 -0.3894  1.4233
 5776TIP3    H238744   5.698   0.935  13.895 -0.2625  1.5201  0.0841
 5777TIP3   OH238745   0.891   5.267  10.812  0.0222 -0.2051  0.0577
 5777TIP3    H138746   0.879   5.189  10.867 -3.6944  0.3782  0.3696
 5777TIP3    H238747   0.955   5.320  10.859  1.1929 -2.1645  0.8188
 5778TIP3   OH238748   5.811   6.344  15.118  0.0228  0.0238 -0.3965
 5778TIP3    H138749   5.787   6.424  15.166  2.7690  0.8715 -0.2722
 5778TIP3    H238750   5.865   6.376  15.045  1.5291 -1.7284 -0.1007
 5779TIP3   OH238751   0.230   1.838   3.013  0.3510  0.0507  0.2178
 5779TIP3    H138752   0.183   1.760   2.984  1.0037 -1.1828  2.2785
 5779TIP3    H238753   0.205   1.848   3.105  1.6987  1.1782  0.4928
 5780TIP3   OH238754   5.865   1.841  12.486  0.6116  0.0598 -0.4471
 5780TIP3    H138755   5.832   1.774  12.427  0.3678  0.2798 -0.5631
 5780TIP3    H238756   5.850   1.924  12.440 -1.6978  0.4396  0.8388
 5781TIP3   OH238757   5.046   3.380   1.021 -0.5823 -0.0322  0.3842
 5781TIP3    H138758   5.132   3.356   1.056 -0.9514 -0.1822  1.2163
 5781TIP3    H238759   5.041   3.334   0.937 -1.3468 -3.2255  2.0188
 5782TIP3   OH238760   1.032   3.091  11.839 -0.4024  0.1407 -0.4425
 5782TIP3    H138761   1.058   3.050  11.922 -1.2694 -2.5620 -1.3995
 5782TIP3    H238762   1.113   3.129  11.805  0.9061 -2.2569 -0.2119
 5783TIP3   OH238763   0.525   2.066  11.034 -0.6298 -0.3498  0.2437
 5783TIP3    H138764   0.532   1.979  11.073  1.1807 -0.0374  0.7091
 5783TIP3    H238765   0.588   2.064  10.961  0.7992  1.0784  1.3592
 5784TIP3   OH238766   5.489   3.916  12.889  0.1145 -0.2865 -0.1295
 5784TIP3    H138767   5.557   3.913  12.821  1.4983 -0.5961  1.2283
 5784TIP3    H238768   5.432   3.842  12.869 -0.1254  0.2443 -1.5539
 5785TIP3   OH238769   0.562   1.550   2.381  0.2899 -0.0621 -0.1818
 5785TIP3    H138770   0.568   1.530   2.475 -1.8180  1.1690  0.2822
 5785TIP3    H238771   0.482   1.507   2.352  1.8150 -1.9244 -1.9160
 5786TIP3   OH238772   1.703   5.525   5.008  0.7225  0.0957  0.1722
 5786TIP3    H138773   1.646   5.529   4.931  1.2630  1.7504 -0.1965
 5786TIP3    H238774   1.791   5.510   4.971  0.7825 -0.6404  0.5963
 5787TIP3   OH238775   1.258   3.810   0.327  0.6307  0.1807 -0.2191
 5787TIP3    H138776   1.308   3.853   0.258  0.2465 -1.5984 -1.6907
 5787TIP3    H238777   1.239   3.723   0.291 -1.8375  0.1198  1.0834
 5788TIP3   OH238778   0.883   5.057   2.767  0.2672 -0.4964 -0.1282
 5788TIP3    H138779   0.914   5.091   2.851 -2.1839 -1.2651  1.2215
 5788TIP3    H238780   0.956   5.070   2.707  1.5678  1.5535  1.7211
 5789TIP3   OH238781   3.820   3.770  16.817 -0.1689 -0.2498  0.7014
 5789TIP3    H138782   3.825   3.732  16.904 -2.4625 -1.0597  0.5511
 5789TIP3    H238783   3.838   3.697  16.758  2.4856  0.5280  0.4442
 5790TIP3   OH238784   1.496   2.202  15.740  0.2306 -0.3187 -0.0220
 5790TIP3    H138785   1.445   2.272  15.698 -0.0278  0.2050  1.1344
 5790TIP3    H238786   1.574   2.247  15.774 -0.9073 -0.1382  2.5486
 5791TIP3   OH238787   3.858   2.944   1.028 -0.7798 -0.6752 -0.3298
 5791TIP3    H138788   3.839   2.988   1.110 -0.2241  0.3807 -0.7548
 5791TIP3    H238789   3.805   2.864   1.030 -0.1471 -1.0908  1.4219
 5792TIP3   OH238790   6.059   1.715   5.078  0.1118 -0.3528  0.2570
 5792TIP3    H138791   6.082   1.710   4.986 -0.2415  1.1212  0.0638
 5792TIP3    H238792   6.141   1.698   5.125  0.8814  1.4302 -0.3752
 5793TIP3   OH238793   3.071   1.531  11.390 -0.2541 -0.3978  0.2378
 5793TIP3    H138794   3.063   1.569  11.478  1.8868 -0.9809  0.7544
 5793TIP3    H238795   3.040   1.441  11.400  2.4166 -1.3296  1.1625
 5794TIP3   OH238796   6.017   4.811  12.093  0.1312  0.2819 -0.3939
 5794TIP3    H138797   5.973   4.739  12.139  1.0906 -0.5528 -0.7470
 5794TIP3    H238798   6.014   4.785  12.001  2.3496 -0.3820 -0.3271
 5795TIP3   OH238799   3.611   3.887  12.800  0.5041 -0.0738  0.3748
 5795TIP3    H138800   3.628   3.912  12.891  1.3870  0.9622 -0.0554
 5795TIP3    H238801   3.688   3.917  12.752  0.9884 -2.4393 -0.4346
 5796TIP3   OH238802   1.948   4.606  16.177  0.6015 -0.1577  0.5712
 5796TIP3    H138803   1.878   4.669  16.194  0.3739 -0.4228  0.6223
 5796TIP3    H238804   1.974   4.623  16.087 -0.2878 -0.7943  0.1821
 5797TIP3   OH238805   6.719   6.296   1.318 -0.5143  0.1070 -0.1772
 5797TIP3    H138806   6.646   6.289   1.256 -0.5180  0.1641 -0.1793
 5797TIP3    H238807   6.790   6.249   1.275 -0.6645 -0.2846 -0.0000
 5798TIP3   OH238808   4.580   0.234   2.332  0.1751  0.2355 -0.0755
 5798TIP3    H138809   4.668   0.270   2.344  0.6022 -0.7777 -0.0529
 5798TIP3    H238810   4.542   0.233   2.420  0.2220  0.4786 -0.0522
 5799TIP3   OH238811   6.419   5.373  13.370  0.1559 -0.0446 -0.0353
 5799TIP3    H138812   6.446   5.420  13.448  0.4334  0.8465 -0.6448
 5799TIP3    H238813   6.399   5.284  13.400  1.6623 -0.1338  0.7987
 5800TIP3   OH238814   0.514   4.077  14.109 -0.3738  0.1254 -0.0642
 5800TIP3    H138815   0.474   4.152  14.154 -1.1334 -0.9052  1.0738
 5800TIP3    H238816   0.597   4.110  14.076 -1.3535  1.8745 -0.9327
 5801TIP3   OH238817   0.474   6.062  15.631  0.1308 -0.1612 -0.4493
 5801TIP3    H138818   0.469   6.045  15.726  0.2352 -0.4171 -0.4869
 5801TIP3    H238819   0.387   6.091  15.607 -0.2399 -1.2515 -0.4881
 5802TIP3   OH238820   2.423   0.267   2.054  0.1193  0.1472  0.0338
 5802TIP3    H138821   2.500   0.216   2.030  0.7914  0.5487  1.2416
 5802TIP3    H238822   2.455   0.357   2.064 -0.2198  0.1278  1.6982
 5803TIP3   OH238823   3.085   4.686   1.909  0.3482 -0.5642  0.0574
 5803TIP3    H138824   3.122   4.771   1.932  1.6661 -1.4915  1.5648
 5803TIP3    H238825   3.077   4.639   1.993  0.6443 -2.2971 -0.8359
 5804TIP3   OH238826   5.371   0.772   0.910  0.5613  0.2847 -0.3793
 5804TIP3    H138827   5.338   0.821   0.835 -2.5488 -2.0576 -0.7884
 5804TIP3    H238828   5.449   0.727   0.878  1.3336  2.0593 -1.0649
 5805TIP3   OH238829   1.160   1.123  15.359 -0.0392 -0.2462 -0.1405
 5805TIP3    H138830   1.198   1.072  15.288 -0.0893  0.1314 -0.4450
 5805TIP3    H238831   1.082   1.075  15.385  0.0529 -0.4550 -0.2526
 5806TIP3   OH238832   0.896   0.074  14.238  0.1777  0.5833 -0.4118
 5806TIP3    H138833   0.887   0.149  14.297  0.5734 -0.0104  0.4305
 5806TIP3    H238834   0.894  -0.003  14.296 -0.4028 -0.0696 -1.2711
 5807TIP3   OH238835   3.862   0.403  15.163 -0.2833 -0.5745  0.7955
 5807TIP3    H138836   3.805   0.340  15.119 -0.5992  0.4103 -0.2443
 5807TIP3    H238837   3.949   0.384  15.128 -0.2330 -0.9955  1.1406
 5808TIP3   OH238838   2.367   0.794  10.310 -0.1387  0.6661  0.0653
 5808TIP3    H138839   2.314   0.798  10.230 -0.4625  0.3958  0.2632
 5808TIP3    H238840   2.434   0.861  10.297 -1.2907  1.9307  0.3492
 5809TIP3   OH238841   3.757   6.299   1.379 -0.2590  0.2754 -0.5059
 5809TIP3    H138842   3.719   6.228   1.431  1.4389  0.0813  0.5762
 5809TIP3    H238843   3.733   6.279   1.288 -0.2333 -1.4137 -0.1626
 5810TIP3   OH238844   4.256   5.806   4.308  0.0119 -0.2187  0.0114
 5810TIP3    H138845   4.187   5.741   4.294 -0.6416  0.5497 -0.3834
 5810TIP3    H238846   4.329   5.755   4.344 -0.5328 -1.1476 -0.1548
 5811TIP3   OH238847   6.615   5.040  15.251 -0.3474  0.5497 -0.0301
 5811TIP3    H138848   6.685   4.979  15.228 -0.8049 -0.4386  1.0853
 5811TIP3    H238849   6.655   5.099  15.316 -0.7206 -0.4961  1.1925
 5812TIP3   OH238850   2.115   6.123   2.283  0.3724  0.0614  0.0290
 5812TIP3    H138851   2.086   6.206   2.321 -1.7466 -0.7086  0.2715
 5812TIP3    H238852   2.147   6.146   2.196  1.8263  1.3655  0.8598
 5813TIP3   OH238853   1.505   6.742  12.840  0.4238 -0.2943 -0.2657
 5813TIP3    H138854   1.565   6.687  12.789 -0.9788 -1.6817 -0.4941
 5813TIP3    H238855   1.431   6.685  12.859 -0.0476  0.8475  1.5295
 5814TIP3   OH238856   2.547   6.756  15.988  0.3114 -0.0533  0.3324
 5814TIP3    H138857   2.569   6.763  15.895 -0.5408 -0.6030  0.0755
 5814TIP3    H238858   2.628   6.728  16.030  0.4550 -0.7543 -0.3923
 5815TIP3   OH238859   0.388   6.660  16.481 -0.0667  0.4502 -0.2354
 5815TIP3    H138860   0.400   6.717  16.405  1.9670  3.0488  1.8255
 5815TIP3    H238861   0.383   6.720  16.556 -1.8776 -1.9642  1.7624
 5816TIP3   OH238862   1.934   3.916   6.038  0.6061 -0.4192 -0.2380
 5816TIP3    H138863   1.857   3.859   6.028  2.6145 -3.3338 -0.5005
 5816TIP3    H238864   1.969   3.893   6.124 -0.4340  3.1548  1.2787
 5817TIP3   OH238865   1.827   2.945  14.949  0.0147 -0.6864 -0.0049
 5817TIP3    H138866   1.894   3.010  14.969  0.1000 -1.3002  1.8866
 5817TIP3    H238867   1.875   2.875  14.903 -0.2120  0.8011 -2.7478
 5818TIP3   OH238868   5.418   1.189  14.779  0.2298  0.6609  0.2608
 5818TIP3    H138869   5.335   1.149  14.752  0.2567 -0.3222  1.5479
 5818TIP3    H238870   5.392   1.260  14.838  0.2879  0.8787  0.0287
 5819TIP3   OH238871   3.986   3.255  13.291 -0.2698 -0.0438  0.2485
 5819TIP3    H138872   4.003   3.221  13.203 -2.8257 -1.1773  0.0766
 5819TIP3    H238873   4.054   3.217  13.345  0.5872 -0.3974 -1.0303
 5820TIP3   OH238874   3.829   4.751   1.290  0.0750  0.2850 -0.1713
 5820TIP3    H138875   3.813   4.670   1.240  0.4260 -0.3063  0.6532
 5820TIP3    H238876   3.895   4.726   1.355  0.5418  1.3657 -0.2187
 5821TIP3   OH238877   5.627   1.295   1.213  0.4130  0.5394  0.0146
 5821TIP3    H138878   5.673   1.298   1.129  0.2810 -0.1245 -0.0803
 5821TIP3    H238879   5.567   1.370   1.209  0.3770  0.4913 -0.5043
 5822TIP3   OH238880   1.842   1.884  14.529  0.6972 -0.2998  0.0011
 5822TIP3    H138881   1.857   1.972  14.564 -0.6708  0.7221 -1.8309
 5822TIP3    H238882   1.930   1.852  14.505  1.3138  0.1294  1.5630
 5823TIP3   OH238883   5.215   0.400  13.931 -0.1393  0.3802 -0.1274
 5823TIP3    H138884   5.126   0.403  13.895  0.0722  0.8885 -0.6097
 5823TIP3    H238885   5.211   0.455  14.010  0.2977  2.2917 -1.3872
 5824TIP3   OH238886   5.470   6.046   1.346 -0.0908  0.6240  0.2897
 5824TIP3    H138887   5.489   6.013   1.258  2.0711  1.5542  0.3436
 5824TIP3    H238888   5.416   5.977   1.385 -3.2494  1.2516 -2.4940
 5825TIP3   OH238889   2.073   0.011  14.062 -0.1634  0.1307  0.3045
 5825TIP3    H138890   2.111   0.047  14.142  1.3505 -1.8498  0.5410
 5825TIP3    H238891   2.138   0.032  13.994 -0.4949  0.0810 -0.0274
 5826TIP3   OH238892   0.042   2.733   3.233 -0.2837  0.3469 -0.4556
 5826TIP3    H138893  -0.030   2.765   3.287 -1.3974  0.6347 -2.0507
 5826TIP3    H238894   0.085   2.668   3.287 -3.1370 -1.5233 -0.2355
 5827TIP3   OH238895   1.210   5.141  16.165  0.3949 -0.2210 -0.8914
 5827TIP3    H138896   1.252   5.204  16.224  1.1532 -1.5104 -0.0038
 5827TIP3    H238897   1.165   5.196  16.100  0.1031  1.2424  0.4659
 5828TIP3   OH238898   3.244   5.355  15.652  0.3967 -0.3556 -0.2428
 5828TIP3    H138899   3.290   5.363  15.736 -1.4536  1.2969  0.6990
 5828TIP3    H238900   3.179   5.286  15.668  0.8158 -0.8838 -0.7460
 5829TIP3   OH238901   1.262   3.038   0.599 -0.0355 -0.1635 -0.0674
 5829TIP3    H138902   1.276   3.093   0.677  1.7447  1.7921 -1.6356
 5829TIP3    H238903   1.229   3.099   0.533 -1.2688 -1.7345 -0.9473
 5830TIP3   OH238904   5.449   5.925   2.287 -0.0350 -0.0882  0.3835
 5830TIP3    H138905   5.453   6.017   2.260  0.3924  0.1554  1.2496
 5830TIP3    H238906   5.511   5.919   2.360 -1.0994 -0.7561  1.2530
 5831TIP3   OH238907   5.504   0.156  13.590  0.2548 -0.0107 -0.0973
 5831TIP3    H138908   5.537   0.201  13.512 -0.0992 -0.5613 -0.5753
 5831TIP3    H238909   5.544   0.069  13.586 -1.3442 -0.7570 -0.7815
 5832TIP3   OH238910   0.613   4.550   4.505 -0.1196  0.5603  0.0310
 5832TIP3    H138911   0.542   4.493   4.476 -0.4090  0.2423  1.3182
 5832TIP3    H238912   0.625   4.529   4.597  0.7955  1.5182  0.1523
 5833TIP3   OH238913   2.071   2.706   4.519  0.3918 -0.1805 -0.3846
 5833TIP3    H138914   2.134   2.770   4.551 -0.6756  1.2920 -1.1289
 5833TIP3    H238915   1.990   2.728   4.566  0.7704 -3.2364  2.0313
 5834TIP3   OH238916   5.675   4.586  14.005  0.0860 -0.3139 -0.4600
 5834TIP3    H138917   5.707   4.553  13.922 -0.9786 -0.2868 -0.8945
 5834TIP3    H238918   5.648   4.676  13.987  1.5544  0.3375  0.3619
 5835TIP3   OH238919   4.791   2.512  13.760 -0.2403  0.0233 -0.0745
 5835TIP3    H138920   4.842   2.592  13.772  0.5539 -0.3773 -0.7000
 5835TIP3    H238921   4.856   2.443  13.750 -0.9155 -0.7584  0.7300
 5836TIP3   OH238922   4.774   4.412   5.682 -0.0420 -0.7459 -0.0130
 5836TIP3    H138923   4.799   4.320   5.689 -3.7277 -1.8891  0.2400
 5836TIP3    H238924   4.738   4.435   5.768  1.7861  1.3565  0.2870
 5837TIP3   OH238925   2.134   5.443   3.126 -0.1129  0.0474 -0.2941
 5837TIP3    H138926   2.099   5.356   3.107 -2.2977  0.9935 -0.9241
 5837TIP3    H238927   2.092   5.468   3.208  1.3874  0.0923  0.4919
 5838TIP3   OH238928   2.779   0.036  13.988 -0.9981  0.1135  0.5163
 5838TIP3    H138929   2.797   0.107  13.927 -2.5327  0.7421  0.7453
 5838TIP3    H238930   2.713  -0.018  13.945 -0.4489 -0.7290  0.6918
 5839TIP3   OH238931   2.745   0.245   1.104  0.6397 -0.2150  0.2625
 5839TIP3    H138932   2.802   0.215   1.175 -0.7931  0.9151  1.9828
 5839TIP3    H238933   2.657   0.246   1.143 -0.0439  1.4843 -1.1843
 5840TIP3   OH238934   6.808   4.099   4.400  0.4274 -0.1509  0.1303
 5840TIP3    H138935   6.878   4.037   4.384 -1.0791 -1.4309 -1.8883
 5840TIP3    H238936   6.784   4.133   4.314 -2.3675 -0.8687  0.5104
 5841TIP3   OH238937   2.496   5.707   2.327 -0.0534  0.8913  0.1456
 5841TIP3    H138938   2.439   5.675   2.396  1.4039 -0.1978  0.9189
 5841TIP3    H238939   2.503   5.801   2.342  0.8986  0.5651  2.0679
 5842TIP3   OH238940   5.504   5.860  16.684  0.0878  0.2040 -0.2470
 5842TIP3    H138941   5.544   5.830  16.766  0.6439 -1.1274 -0.9715
 5842TIP3    H238942   5.467   5.781  16.645  0.1997  0.7455 -1.4878
 5843TIP3   OH238943   4.585   0.158   1.983  0.1023  0.5716 -0.4910
 5843TIP3    H138944   4.519   0.208   2.031  1.8543  2.7461 -0.2424
 5843TIP3    H238945   4.543   0.073   1.968 -1.7650  0.9699  1.8985
 5844TIP3   OH238946   1.437   0.863  11.928 -0.3047 -0.1492  0.2888
 5844TIP3    H138947   1.387   0.870  12.009 -0.5341 -0.9034  0.2148
 5844TIP3    H238948   1.372   0.871  11.859 -0.0600  0.8984  0.1617
 5845TIP3   OH238949   4.282   3.979  15.381 -0.0076 -0.0987  0.4619
 5845TIP3    H138950   4.245   3.955  15.466 -0.5953 -2.0935 -0.3048
 5845TIP3    H238951   4.369   4.013  15.402  0.0359 -0.9596  1.8409
 5846TIP3   OH238952   5.819   1.287  11.883 -0.3294  0.4568  0.1212
 5846TIP3    H138953   5.826   1.265  11.790  1.0018 -0.5187  0.4221
 5846TIP3    H238954   5.805   1.381  11.884 -1.6830  0.3088 -1.0967
 5847TIP3   OH238955   2.590   1.044   1.551 -0.1537 -0.1571 -0.3325
 5847TIP3    H138956   2.645   1.107   1.504 -2.7656  1.7193 -1.1144
 5847TIP3    H238957   2.568   0.978   1.485  1.0834 -0.9338 -0.0079
 5848TIP3   OH238958   3.490   6.637  11.384 -0.8613 -0.3465  0.7667
 5848TIP3    H138959   3.405   6.668  11.354  0.1883  0.1798 -1.8800
 5848TIP3    H238960   3.525   6.587  11.311  1.6373  0.4988  1.2816
 5849TIP3   OH238961   1.961   4.500  11.340  0.0645 -0.6618 -0.2673
 5849TIP3    H138962   2.043   4.494  11.292 -0.2819  1.5812 -1.2512
 5849TIP3    H238963   1.982   4.552  11.417 -0.1813 -1.1859  0.1685
 5850TIP3   OH238964   3.994   0.403  15.397 -0.1695  0.3438  0.5982
 5850TIP3    H138965   3.941   0.447  15.464 -1.9168 -1.2082  0.3257
 5850TIP3    H238966   3.956   0.431  15.314 -0.2992 -0.4678  0.3787
 5851TIP3   OH238967   6.682   4.162  10.382 -0.1502  0.7920 -0.2449
 5851TIP3    H138968   6.749   4.228  10.363  0.7944 -0.3806 -1.1452
 5851TIP3    H238969   6.600   4.204  10.359  0.3073  2.0647  0.3286
 5852TIP3   OH238970   1.798   3.029   3.516 -0.3425 -0.1866 -0.5084
 5852TIP3    H138971   1.821   2.957   3.576  0.9551  0.0047 -0.7481
 5852TIP3    H238972   1.866   3.094   3.530 -1.5243  1.0519 -0.2645
 5853TIP3   OH238973   0.955   2.280  16.170  0.1813  0.2432 -0.2556
 5853TIP3    H138974   0.895   2.206  16.183 -0.0733  0.6364  0.9389
 5853TIP3    H238975   1.007   2.255  16.094  1.3417 -2.0011  1.1589
 5854TIP3   OH238976   4.196   4.214   0.889  0.3865  0.2749  0.2996
 5854TIP3    H138977   4.146   4.269   0.830  0.9697 -0.5781 -1.0314
 5854TIP3    H238978   4.284   4.251   0.888  0.6143 -0.2621 -0.0765
 5855TIP3   OH238979   3.795   5.926   5.485  0.2530 -0.3420 -0.1277
 5855TIP3    H138980   3.818   5.836   5.461 -2.1282 -0.6938 -1.4632
 5855TIP3    H238981   3.853   5.981   5.432  1.3647 -1.0772  0.3008
 5856TIP3   OH238982   1.429   1.333  13.666 -0.0679  0.4006  0.4456
 5856TIP3    H138983   1.523   1.317  13.675 -0.4001 -1.1111  1.5659
 5856TIP3    H238984   1.389   1.276  13.731 -1.8482 -0.1034 -1.0152
 5857TIP3   OH238985   0.327   6.460   1.055  0.3024  0.3243 -0.2249
 5857TIP3    H138986   0.287   6.472   1.142  0.3971  1.0100 -0.2726
 5857TIP3    H238987   0.400   6.521   1.054 -0.2360  0.9695 -1.1235
 5858TIP3   OH238988   2.792   2.501  11.799 -0.0531 -0.4574  0.0646
 5858TIP3    H138989   2.776   2.587  11.836  3.2579  0.7784 -0.9969
 5858TIP3    H238990   2.852   2.459  11.860 -0.3404 -1.3425 -0.2464
 5859TIP3   OH238991   3.905   3.735   0.078  0.4919 -0.4733 -0.0881
 5859TIP3    H138992   3.899   3.825   0.111  0.6240 -0.5274  0.0861
 5859TIP3    H238993   3.906   3.681   0.157 -1.3752 -0.7480 -0.2152
 5860TIP3   OH238994   4.603   5.299  13.197 -0.6388  0.4727 -0.4326
 5860TIP3    H138995   4.685   5.326  13.239 -1.5039  3.2972 -0.3447
 5860TIP3    H238996   4.625   5.292  13.104  0.0643 -0.5227 -0.2062
 5861TIP3   OH238997   4.805   3.269  16.707 -0.0118  0.2770  0.2170
 5861TIP3    H138998   4.776   3.195  16.760 -2.0926  0.1215 -1.0343
 5861TIP3    H238999   4.882   3.236  16.661  0.3486 -0.3836  1.2394
 5862TIP3   OH239000   4.023   6.430   4.674  0.1889  0.2314 -0.4608
 5862TIP3    H139001   3.961   6.438   4.746  0.4122 -1.7786  0.0152
 5862TIP3    H239002   4.092   6.373   4.709  2.7253  2.9337 -0.7133
 5863TIP3   OH239003   2.728   4.817  12.841 -0.2488 -0.9403  0.1199
 5863TIP3    H139004   2.775   4.796  12.922  0.4862  0.6511  0.1307
 5863TIP3    H239005   2.778   4.772  12.773 -1.1253 -2.6638  0.5459
 5864TIP3   OH239006   3.542   4.046  11.994 -0.2205 -0.2319 -0.1116
 5864TIP3    H139007   3.513   4.137  11.983 -1.2737 -0.8758 -4.0294
 5864TIP3    H239008   3.463   3.999  12.019 -1.2264 -0.8421 -3.8359
 5865TIP3   OH239009   5.956   2.799  14.736  0.1388 -0.7806  0.6345
 5865TIP3    H139010   6.040   2.760  14.712 -0.0499 -0.9852  0.3024
 5865TIP3    H239011   5.964   2.891  14.710  0.3400 -0.7488  0.8084
 5866TIP3   OH239012   2.895   2.552  11.020  0.3341  0.4771  0.6036
 5866TIP3    H139013   2.836   2.536  11.093  0.2293 -1.2497  0.1868
 5866TIP3    H239014   2.941   2.633  11.042  0.3554 -0.0421  2.5992
 5867TIP3   OH239015   4.106   2.942   5.371 -0.5182 -0.0567 -0.4519
 5867TIP3    H139016   4.126   2.958   5.279 -0.4452  1.1117 -0.2413
 5867TIP3    H239017   4.017   2.975   5.383 -1.1937 -1.7656 -0.4853
 5868TIP3   OH239018   3.238   6.450   0.267 -0.1495  0.0377 -0.3189
 5868TIP3    H139019   3.330   6.423   0.268 -0.4449 -1.0349  0.8800
 5868TIP3    H239020   3.238   6.538   0.306  0.0698 -1.2827  3.0115
 5869TIP3   OH239021   6.300   5.330   3.439  0.4762  0.2618 -0.1017
 5869TIP3    H139022   6.205   5.330   3.423  0.4009  0.2176  0.3413
 5869TIP3    H239023   6.328   5.242   3.414  0.6908  0.7932 -1.8797
 5870TIP3   OH239024   3.544   1.374   4.741  0.1799  0.1660 -0.5254
 5870TIP3    H139025   3.532   1.466   4.714 -1.0520  0.4860  0.9669
 5870TIP3    H239026   3.458   1.348   4.774  1.1459 -0.7252  1.4108
 5871TIP3   OH239027   3.936   4.344   2.507 -0.1327 -0.4541  0.0895
 5871TIP3    H139028   3.855   4.296   2.491 -1.1688  1.3170 -0.1803
 5871TIP3    H239029   3.993   4.319   2.434 -0.6559 -1.1967 -0.0833
 5872TIP3   OH239030   3.511   2.576   0.929 -0.7019 -0.1842  0.0336
 5872TIP3    H139031   3.525   2.484   0.952  0.7878  0.3418  1.3848
 5872TIP3    H239032   3.441   2.605   0.989  1.3711  0.4837  2.2841
 5873TIP3   OH239033   2.171   3.235  11.936 -0.0286  0.2301  0.1294
 5873TIP3    H139034   2.179   3.166  12.002  1.3153  0.3989  0.1812
 5873TIP3    H239035   2.092   3.213  11.886 -0.2169 -0.7311  0.8399
 5874TIP3   OH239036   0.020   4.494   0.550 -0.1216 -0.1177  0.0632
 5874TIP3    H139037   0.070   4.548   0.488 -1.4048  1.3182  0.2389
 5874TIP3    H239038  -0.020   4.427   0.495 -0.5829  0.6477 -0.5600
 5875TIP3   OH239039   3.584   4.423  13.791 -0.0050  0.2662 -0.2870
 5875TIP3    H139040   3.538   4.473  13.857 -0.7278 -0.6996 -0.0359
 5875TIP3    H239041   3.519   4.362  13.757  0.0823  1.3255 -2.5545
 5876TIP3   OH239042   1.817   4.334  15.253  0.4506  0.2160  0.3781
 5876TIP3    H139043   1.730   4.330  15.212  1.7376  1.7087 -2.8585
 5876TIP3    H239044   1.809   4.402  15.319 -1.2673 -0.9768  1.4798
 5877TIP3   OH239045   2.560   4.750  15.418  0.1503 -0.1398  0.0501
 5877TIP3    H139046   2.601   4.758  15.504  1.1719 -1.4159 -0.2728
 5877TIP3    H239047   2.619   4.692  15.369 -0.3126  0.6945 -1.5762
 5878TIP3   OH239048   4.274   0.558   1.514 -0.1090 -0.5657 -0.7546
 5878TIP3    H139049   4.365   0.576   1.492  0.4343 -2.0027  0.1572
 5878TIP3    H239050   4.224   0.622   1.464  1.3549 -0.1591 -1.7639
 5879TIP3   OH239051   5.742   0.908  16.818 -0.3807  0.0614  0.3315
 5879TIP3    H139052   5.823   0.945  16.853 -0.1244 -1.6580  1.6947
 5879TIP3    H239053   5.771   0.847  16.750 -0.6729  0.8953 -0.5531
 5880TIP3   OH239054   6.115   5.946  12.880 -0.1167 -0.1439 -0.3171
 5880TIP3    H139055   6.164   6.027  12.891  0.1892 -0.0667 -1.9348
 5880TIP3    H239056   6.027   5.966  12.910  0.3221  0.3160  0.7200
 5881TIP3   OH239057   6.498   3.193  16.789 -0.2021  0.0973  0.3968
 5881TIP3    H139058   6.440   3.143  16.731  0.1423  1.0787 -0.8464
 5881TIP3    H239059   6.446   3.208  16.868 -0.6172 -1.4516  0.4528
 5882TIP3   OH239060   6.557   3.133  14.817 -0.2675 -0.3004  0.1775
 5882TIP3    H139061   6.477   3.169  14.777 -0.2232  0.5016  0.7748
 5882TIP3    H239062   6.595   3.207  14.864 -0.0089 -1.0539  1.2042
 5883TIP3   OH239063   5.909   6.062  12.230  0.0122  0.0955 -0.2184
 5883TIP3    H139064   5.820   6.036  12.255  0.1006 -2.1668 -1.9442
 5883TIP3    H239065   5.964   5.990  12.259  1.0465  0.6824 -0.6840
 5884TIP3   OH239066   4.998   0.037   2.536 -0.2853 -0.0642 -0.6353
 5884TIP3    H139067   4.942  -0.018   2.589 -0.2906 -0.2136 -0.7978
 5884TIP3    H239068   4.975   0.016   2.446  1.4928 -1.6905 -0.7739
 5885TIP3   OH239069   5.515   6.025  12.881  0.1453  0.5124  0.2325
 5885TIP3    H139070   5.479   5.941  12.911  0.2387 -0.4235 -2.0411
 5885TIP3    H239071   5.447   6.089  12.900 -0.6456 -0.3775  0.4666
 5886TIP3   OH239072   5.079   2.591   3.394  0.3547  0.3685 -0.4213
 5886TIP3    H139073   5.019   2.534   3.344  0.1090 -0.1572  0.4575
 5886TIP3    H239074   5.042   2.594   3.482  0.3403  1.9370 -0.4453
 5887TIP3   OH239075   5.400   1.838  16.695 -0.5790 -0.5056 -0.0323
 5887TIP3    H139076   5.473   1.806  16.747 -0.7890  0.1167  0.6567
 5887TIP3    H239077   5.390   1.930  16.721 -1.3092 -0.4577 -0.4506
 5888TIP3   OH239078   5.789   2.325  11.450 -0.2707 -0.1376  0.2818
 5888TIP3    H139079   5.843   2.315  11.371 -1.8044  2.3381 -1.2490
 5888TIP3    H239080   5.725   2.254  11.445 -0.7753  0.3765 -1.1551
 5889TIP3   OH239081   1.457   6.529  14.220 -0.3589  0.1478  0.1768
 5889TIP3    H139082   1.511   6.515  14.142  1.7453  1.0063  1.3974
 5889TIP3    H239083   1.469   6.621  14.241 -1.3907  0.0724  1.1833
 5890TIP3   OH239084   5.407   5.274   0.758  0.7110  0.3971  0.0500
 5890TIP3    H139085   5.402   5.236   0.670 -0.0626  0.1382  0.1932
 5890TIP3    H239086   5.349   5.350   0.755  0.1977  0.0338  0.4992
 5891TIP3   OH239087   1.729   2.326   4.619  0.3332 -0.0804  0.1336
 5891TIP3    H139088   1.812   2.287   4.590  0.1683  2.1231 -3.9659
 5891TIP3    H239089   1.709   2.393   4.554 -4.7194 -0.4571  0.8767
 5892TIP3   OH239090   4.481   2.416  17.097  0.2303  0.5239  0.1687
 5892TIP3    H139091   4.459   2.332  17.137 -0.1060  0.1545 -0.7650
 5892TIP3    H239092   4.421   2.423  17.023  0.9309  1.1313 -0.3450
 5893TIP3   OH239093   3.605   0.089   2.047  0.2759  0.4255 -0.0778
 5893TIP3    H139094   3.673   0.042   1.999  0.0105  0.0396 -0.0791
 5893TIP3    H239095   3.598   0.042   2.131  0.5295  0.9141  0.2197
 5894TIP3   OH239096   0.343   3.621  16.796  0.1449  0.3384  0.0202
 5894TIP3    H139097   0.292   3.611  16.876  0.5009  0.1731  0.2256
 5894TIP3    H239098   0.424   3.663  16.824  1.0734 -1.4068  0.0478
 5895TIP3   OH239099   0.490   3.327   0.504 -0.3168 -0.0271 -0.0362
 5895TIP3    H139100   0.395   3.319   0.500 -0.2361 -1.7969  0.7258
 5895TIP3    H239101   0.506   3.412   0.546 -1.5717 -0.2691  0.9666
 5896TIP3   OH239102   0.934   2.850   0.830  0.1403 -0.2650 -0.0271
 5896TIP3    H139103   1.007   2.869   0.889  0.5067 -0.9169 -0.2557
 5896TIP3    H239104   0.975   2.832   0.746 -0.2610 -0.9173 -0.0886
 5897TIP3   OH239105   1.060   3.502   5.235 -0.7061 -0.1729 -0.3862
 5897TIP3    H139106   1.095   3.421   5.271 -0.0785  0.1160 -0.3428
 5897TIP3    H239107   1.035   3.480   5.145 -0.5849 -0.4213 -0.3594
 5898TIP3   OH239108   0.804   3.975   0.925  0.4603 -1.0393 -0.2206
 5898TIP3    H139109   0.729   4.033   0.937 -0.5129 -2.3876  0.4103
 5898TIP3    H239110   0.879   4.035   0.920 -0.2152  0.2533  2.5785
 5899TIP3   OH239111   3.291   4.916  13.577  0.0788  0.1464  0.0163
 5899TIP3    H139112   3.233   4.942  13.506  0.6537  0.7330 -0.2463
 5899TIP3    H239113   3.339   4.996  13.600 -0.9185  0.2680  1.8623
 5900TIP3   OH239114   5.425   2.589   1.623  0.2491  0.3519 -0.4565
 5900TIP3    H139115   5.399   2.504   1.589 -0.4238  0.0679  0.7531
 5900TIP3    H239116   5.518   2.596   1.601 -0.0487  0.0115 -1.9680
 5901TIP3   OH239117   1.659   0.450   4.522 -0.3069  0.3104 -0.1151
 5901TIP3    H139118   1.575   0.479   4.487  0.0662 -0.5977 -1.8405
 5901TIP3    H239119   1.689   0.523   4.576 -0.9010  1.8168 -1.7483
 5902TIP3   OH239120   0.460   0.735  12.475  0.0395  0.3173  0.3767
 5902TIP3    H139121   0.407   0.770  12.403 -1.6758  0.1730  1.5168
 5902TIP3    H239122   0.444   0.794  12.548  2.4010  0.9269  0.4687
 5903TIP3   OH239123   4.742   2.384  12.772 -0.1568 -0.6559 -0.4500
 5903TIP3    H139124   4.818   2.442  12.765 -1.5120  1.0285 -2.3650
 5903TIP3    H239125   4.736   2.364  12.865  0.2122  2.6375  0.4154
 5904TIP3   OH239126   1.764   4.908   0.357 -0.1965 -0.0802  0.0159
 5904TIP3    H139127   1.810   4.836   0.401  0.3106  0.3006  0.1271
 5904TIP3    H239128   1.792   4.986   0.405 -0.0739  0.2833 -0.6329
 5905TIP3   OH239129   6.599   1.153  10.759 -0.1328 -0.2151  0.4123
 5905TIP3    H139130   6.650   1.075  10.783 -0.5646 -0.6013  0.1082
 5905TIP3    H239131   6.508   1.125  10.771 -0.3293 -0.1342 -0.8355
 5906TIP3   OH239132   2.762   2.122  16.356 -0.5193 -0.0233 -0.2649
 5906TIP3    H139133   2.801   2.109  16.443 -0.7310  0.6545 -0.0667
 5906TIP3    H239134   2.780   2.040  16.310  0.1376 -0.1546  0.2093
 5907TIP3   OH239135   2.955   2.965   2.358 -0.2556  0.1824 -0.2018
 5907TIP3    H139136   3.031   3.013   2.391 -0.0553  0.0206 -0.4199
 5907TIP3    H239137   2.935   3.006   2.274 -0.0339 -0.1604 -0.4269
 5908TIP3   OH239138   1.372   5.688   2.713  0.6805 -0.1170 -0.4926
 5908TIP3    H139139   1.427   5.730   2.779  0.2074 -1.0015  0.4762
 5908TIP3    H239140   1.433   5.635   2.662  0.9656  0.1458 -0.4274
 5909TIP3   OH239141   0.277   5.178   4.462 -0.5343 -0.0866  0.2772
 5909TIP3    H139142   0.346   5.148   4.521  0.2996  0.4727 -0.3773
 5909TIP3    H239143   0.309   5.154   4.375 -0.5671  1.2795 -0.1367
 5910TIP3   OH239144   1.220   4.958   5.827  0.4517 -0.1615  0.0204
 5910TIP3    H139145   1.243   5.015   5.900 -1.0055  1.3833 -0.6521
 5910TIP3    H239146   1.304   4.931   5.790  1.2065 -0.6322  1.9594
 5911TIP3   OH239147   2.406   2.169   4.895  0.6192  0.2951  0.1418
 5911TIP3    H139148   2.374   2.092   4.941 -0.4369 -1.1070 -2.6998
 5911TIP3    H239149   2.405   2.239   4.961  1.2120 -1.9525  2.7150
 5912TIP3   OH239150   2.486   2.155  12.544 -0.4444 -0.1982  0.5254
 5912TIP3    H139151   2.561   2.171  12.488 -0.6466  0.3392  0.4052
 5912TIP3    H239152   2.432   2.093  12.496 -1.9062  2.1674 -1.0923
 5913TIP3   OH239153   1.381   1.849  12.113 -0.0543  0.2976 -0.0450
 5913TIP3    H139154   1.308   1.800  12.075  0.3212 -0.3708  0.0913
 5913TIP3    H239155   1.338   1.914  12.170 -0.5113 -1.8429  2.1871
 5914TIP3   OH239156   2.385   3.536   0.043  0.6529  0.6629 -0.4077
 5914TIP3    H139157   2.354   3.447   0.062 -1.5635  1.2182 -1.1601
 5914TIP3    H239158   2.442   3.525  -0.034  1.0467 -0.1887 -0.0074
 5915TIP3   OH239159   1.997   5.502   0.472  0.4816 -0.1042  0.0838
 5915TIP3    H139160   1.984   5.487   0.566  0.5463 -0.2471  0.0701
 5915TIP3    H239161   1.911   5.488   0.433  0.3256  0.5067  0.1896
 5916TIP3   OH239162   5.767   2.597  13.125 -0.2750 -0.0074 -0.4482
 5916TIP3    H139163   5.672   2.584  13.126 -0.2735  0.0089  0.7523
 5916TIP3    H239164   5.782   2.674  13.179  0.5497 -1.0656  0.9078
 5917TIP3   OH239165   0.692   4.694  16.530  0.4388  0.7215 -0.4128
 5917TIP3    H139166   0.684   4.639  16.608  1.0466 -0.0616 -0.8824
 5917TIP3    H239167   0.616   4.752  16.533 -0.1534 -0.0701  0.1601
 5918TIP3   OH239168   3.323   5.416  15.139 -0.7338  0.8147  0.5881
 5918TIP3    H139169   3.355   5.327  15.122 -1.2624  0.7926 -0.3603
 5918TIP3    H239170   3.402   5.465  15.165 -0.0727  0.5255 -0.7594
 5919TIP3   OH239171   6.607   2.089  16.192 -0.1870  0.2427 -0.1818
 5919TIP3    H139172   6.522   2.046  16.180  0.1509 -0.1526 -1.3439
 5919TIP3    H239173   6.615   2.101  16.286 -0.8765 -1.0647  0.0636
 5920TIP3   OH239174   6.519   2.254   3.063  0.5601 -0.4834  0.1178
 5920TIP3    H139175   6.542   2.171   3.106  1.2688  0.2986  1.3225
 5920TIP3    H239176   6.602   2.286   3.029  0.2607 -0.3321 -0.4644
 5921TIP3   OH239177   3.073   3.143  16.453 -0.4106 -0.0692  0.1751
 5921TIP3    H139178   3.005   3.201  16.488  0.2867  0.3560  0.8646
 5921TIP3    H239179   3.110   3.192  16.380 -1.4364 -0.6892 -0.8025
 5922TIP3   OH239180   3.833   2.780   4.589 -0.2119 -0.1231 -0.4840
 5922TIP3    H139181   3.780   2.837   4.532  0.6644 -1.0415 -2.2971
 5922TIP3    H239182   3.915   2.768   4.541 -0.4556 -3.1375 -0.3488
 5923TIP3   OH239183   3.545   0.826  15.473 -0.3253 -0.1552 -0.0892
 5923TIP3    H139184   3.498   0.850  15.393 -0.3144  0.6790  0.1448
 5923TIP3    H239185   3.629   0.873  15.467 -0.8091  0.9287  0.9638
 5924TIP3   OH239186   2.682   4.739  13.604  0.3568 -0.4311 -0.6186
 5924TIP3    H139187   2.654   4.674  13.669  2.8760 -1.0780 -0.0657
 5924TIP3    H239188   2.629   4.719  13.527 -0.3466 -1.8455  0.1686
 5925TIP3   OH239189   6.464   1.741   2.292  0.3070 -0.2815 -0.0886
 5925TIP3    H139190   6.453   1.826   2.249  0.0313  0.0465  0.6213
 5925TIP3    H239191   6.375   1.716   2.317  0.5021 -0.3400  0.5363
 5926TIP3   OH239192   2.646   4.207   4.983  0.4347 -0.0581  0.0953
 5926TIP3    H139193   2.738   4.189   4.965 -0.2178 -1.2502 -2.5993
 5926TIP3    H239194   2.635   4.191   5.076  2.7056 -0.9561  0.2579
 5927TIP3   OH239195   0.069   6.552   4.350 -0.1760 -0.2217 -0.0632
 5927TIP3    H139196  -0.000   6.491   4.325 -0.0898 -0.2995 -0.1129
 5927TIP3    H239197   0.080   6.538   4.444  0.0667 -0.5119 -0.1333
 5928TIP3   OH239198   4.857   1.218  17.041 -1.1439 -0.1908  0.0793
 5928TIP3    H139199   4.776   1.201  17.090 -1.8485  3.4714  0.5005
 5928TIP3    H239200   4.826   1.242  16.953 -0.4763  0.3894 -0.0022
 5929TIP3   OH239201   6.400   3.663   2.574  0.4810 -0.0126 -0.0468
 5929TIP3    H139202   6.329   3.621   2.623 -0.6016  0.6432 -1.0158
 5929TIP3    H239203   6.470   3.597   2.573  0.5884 -0.0519  2.3922
 5930TIP3   OH239204   6.604   3.360   1.684 -0.1178  0.4209 -0.0118
 5930TIP3    H139205   6.518   3.338   1.719 -0.2631 -0.2350 -0.7805
 5930TIP3    H239206   6.597   3.345   1.590  0.3789  1.8275 -0.3045
 5931TIP3   OH239207   1.861   3.462   4.669  0.3632  0.5155 -0.3934
 5931TIP3    H139208   1.911   3.543   4.667  3.1270 -1.0704  0.1990
 5931TIP3    H239209   1.885   3.417   4.588 -3.1734  1.2814 -2.0652
 5932TIP3   OH239210   5.885   4.431   2.337 -0.1916 -0.5057  0.1166
 5932TIP3    H139211   5.916   4.360   2.393  0.2142 -0.1046  0.4123
 5932TIP3    H239212   5.836   4.388   2.268  0.0349 -1.0725  0.3057
 5933TIP3   OH239213   0.413   5.702   0.795 -0.3243 -0.5802  0.3855
 5933TIP3    H139214   0.508   5.694   0.799 -0.2909 -0.5834 -0.4162
 5933TIP3    H239215   0.397   5.791   0.762 -0.5904 -0.8708 -0.2695
 5934TIP3   OH239216   4.657   4.086  16.057  0.5981 -0.3671 -1.0620
 5934TIP3    H139217   4.684   3.995  16.050 -0.2061 -0.6106 -1.1279
 5934TIP3    H239218   4.692   4.115  16.142  1.2425 -0.5966 -1.2452
 5935TIP3   OH239219   6.492   1.888   1.037  0.4186 -0.4480 -0.4920
 5935TIP3    H139220   6.475   1.830   1.112  0.8825 -2.2732 -1.7305
 5935TIP3    H239221   6.469   1.975   1.069  1.1118 -1.0620  1.9654
 5936TIP3   OH239222   4.766   4.731   4.741  0.0716 -0.1714 -1.0732
 5936TIP3    H139223   4.832   4.726   4.672  0.2078 -0.9286 -0.9069
 5936TIP3    H239224   4.812   4.699   4.820 -0.9105 -2.3407 -1.2983
 5937TIP3   OH239225   0.613   5.569  15.222  0.2813 -0.3323  0.2956
 5937TIP3    H139226   0.654   5.649  15.189 -1.4306  0.6793  0.5364
 5937TIP3    H239227   0.622   5.506  15.150 -0.5051  0.8380 -0.8673
 5938TIP3   OH239228   6.339   5.769  15.872 -0.0431  0.4492 -0.8369
 5938TIP3    H139229   6.249   5.772  15.904  0.1023  0.9933 -0.4562
 5938TIP3    H239230   6.334   5.794  15.780 -0.5105 -1.4451 -1.3778
 5939TIP3   OH239231   4.165   2.334  14.681  0.0497 -0.0555 -0.2021
 5939TIP3    H139232   4.163   2.404  14.616 -2.7271  2.3845  2.1803
 5939TIP3    H239233   4.238   2.357  14.739 -1.0143  1.1397  0.7235
 5940TIP3   OH239234   3.181   6.223   5.810 -0.0661  0.2054 -0.4841
 5940TIP3    H139235   3.176   6.268   5.894  0.0488 -1.2399  0.3354
 5940TIP3    H239236   3.221   6.286   5.751 -2.1508  2.0718 -0.0546
 5941TIP3   OH239237   4.996   3.544   3.565 -0.0630 -0.1759  0.2650
 5941TIP3    H139238   5.009   3.533   3.471  1.9904  0.5899  0.4075
 5941TIP3    H239239   5.073   3.593   3.595 -0.9003  0.0362  2.2693
 5942TIP3   OH239240   5.733   5.670   3.113 -0.6216 -0.3394  0.0537
 5942TIP3    H139241   5.809   5.612   3.112 -2.0006 -2.2723  1.3198
 5942TIP3    H239242   5.754   5.738   3.049  1.6332 -1.4845 -0.5130
 5943TIP3   OH239243   6.477   3.641  15.771  0.3014 -0.0243 -0.2113
 5943TIP3    H139244   6.442   3.589  15.699 -1.8235  0.1083  0.6439
 5943TIP3    H239245   6.465   3.586  15.848  0.9650  0.4905  0.2673
 5944TIP3   OH239246   5.040   1.414   5.095  0.8054  0.4472 -0.7859
 5944TIP3    H139247   4.982   1.338   5.089  1.1313  0.1201  0.0540
 5944TIP3    H239248   4.984   1.489   5.073  0.0486  0.1391  0.0118
 5945TIP3   OH239249   0.336   3.203  15.954 -0.0181 -0.1180 -0.5375
 5945TIP3    H139250   0.341   3.205  15.858 -0.4252 -0.4513 -0.5681
 5945TIP3    H239251   0.275   3.132  15.973  0.6226 -0.5370 -0.0108
 5946TIP3   OH239252   6.018   2.527   0.604  0.0144 -0.0648  0.2512
 5946TIP3    H139253   5.952   2.546   0.670 -0.4486 -1.6535  0.2809
 5946TIP3    H239254   6.039   2.612   0.566 -0.9838  0.6483  1.2423
 5947TIP3   OH239255   4.616   4.387  11.675  0.0136 -0.1883  0.5626
 5947TIP3    H139256   4.683   4.440  11.719 -0.1683  0.5425 -0.0101
 5947TIP3    H239257   4.665   4.327  11.620  0.2070  0.7306 -0.2906
 5948TIP3   OH239258   0.869   2.836  15.329 -0.4535 -0.0002  0.1278
 5948TIP3    H139259   0.900   2.787  15.253  2.0027  0.7980  0.5477
 5948TIP3    H239260   0.945   2.885  15.359 -2.2281  2.3269  1.0951
 5949TIP3   OH239261   0.496   0.151   4.801 -0.4139 -0.2520 -0.4915
 5949TIP3    H139262   0.585   0.117   4.793 -0.3231 -0.0730 -0.2542
 5949TIP3    H239263   0.506   0.238   4.839 -0.7122 -0.4189 -0.0107
 5950TIP3   OH239264   1.152   1.812  11.103  0.5294 -0.2930 -0.0437
 5950TIP3    H139265   1.074   1.805  11.157  0.3093  1.1219 -0.1542
 5950TIP3    H239266   1.165   1.906  11.090  2.6773 -0.4425  0.5838
 5951TIP3   OH239267   3.241   0.903   3.910  0.0250 -0.0774 -0.3847
 5951TIP3    H139268   3.205   0.815   3.917  1.8059 -0.8852 -0.6939
 5951TIP3    H239269   3.336   0.890   3.913  0.3235  2.0162  1.5228
 5952TIP3   OH239270   0.050   2.243  11.820  0.4745  0.0569  1.1389
 5952TIP3    H139271   0.097   2.225  11.739 -0.4772 -1.5779  0.8848
 5952TIP3    H239272   0.116   2.236  11.888  1.1979  0.9893  0.5504
 5953TIP3   OH239273   4.391   4.932   3.043 -0.2343  0.6290 -0.2891
 5953TIP3    H139274   4.305   4.899   3.015 -2.2016  2.6927  2.6888
 5953TIP3    H239275   4.391   5.024   3.017  0.2100  1.1353  1.3571
 5954TIP3   OH239276   4.488   4.388  16.065 -0.1936 -0.0257  0.0719
 5954TIP3    H139277   4.539   4.416  15.989 -0.2044  1.4621  0.5860
 5954TIP3    H239278   4.539   4.316  16.103  0.2141 -0.2493 -0.8593
 5955TIP3   OH239279   6.122   4.626   2.662  0.6212 -0.2266  0.3547
 5955TIP3    H139280   6.170   4.673   2.730 -0.4919 -0.5015  1.3681
 5955TIP3    H239281   6.145   4.534   2.676 -0.7439 -0.4432  1.3365
 5956TIP3   OH239282   3.927   0.966   0.917  0.2795 -0.0713  0.5158
 5956TIP3    H139283   3.841   1.005   0.930 -0.8416 -2.1528 -0.2385
 5956TIP3    H239284   3.917   0.875   0.945  1.9614 -0.6431 -0.5618
 5957TIP3   OH239285   3.608   5.596   5.714 -0.0310  0.0297  0.5338
 5957TIP3    H139286   3.700   5.613   5.732 -0.7518  4.1500  1.4050
 5957TIP3    H239287   3.569   5.580   5.800 -0.4631  0.6030  0.4509
 5958TIP3   OH239288   2.497   1.252  13.159  0.1429 -0.0274 -0.3005
 5958TIP3    H139289   2.538   1.301  13.231  1.8364 -1.0976 -0.4929
 5958TIP3    H239290   2.514   1.160  13.179 -0.6249 -0.4220 -1.3462
 5959TIP3   OH239291   3.176   3.019   2.746  0.3185 -0.0885 -0.3959
 5959TIP3    H139292   3.198   3.073   2.670  1.9622 -0.8905 -0.5523
 5959TIP3    H239293   3.185   2.929   2.714 -1.1719 -0.4609  0.1773
 5960TIP3   OH239294   2.524   1.561  14.109  0.2939  0.9597  0.2973
 5960TIP3    H139295   2.531   1.483  14.163  0.6598  2.3131  2.2965
 5960TIP3    H239296   2.606   1.563  14.060  0.9209  0.8413  1.3160
 5961TIP3   OH239297   3.032   6.264   3.409  0.3786 -0.6588  0.1654
 5961TIP3    H139298   2.969   6.211   3.359 -1.2427  0.1713  1.2380
 5961TIP3    H239299   3.068   6.325   3.345  0.0801 -1.1238 -0.4647
 5962TIP3   OH239300   1.876   3.323  16.714  0.3338  0.0673  0.5339
 5962TIP3    H139301   1.940   3.350  16.780  0.6839  1.7179 -0.4039
 5962TIP3    H239302   1.913   3.354  16.631 -0.8734 -0.4750 -0.2439
 5963TIP3   OH239303   3.994   6.110  10.715 -0.3253 -0.2931 -0.0675
 5963TIP3    H139304   4.009   6.187  10.659  0.7737  0.1686  0.8129
 5963TIP3    H239305   3.902   6.089  10.702 -0.1341 -0.1633 -1.9984
 5964TIP3   OH239306   4.527   2.498  11.677 -0.5928  0.2604 -0.0328
 5964TIP3    H139307   4.619   2.486  11.703 -0.4976  0.5972 -0.2110
 5964TIP3    H239308   4.527   2.580  11.629 -0.3983 -1.3007 -2.9290
 5965TIP3   OH239309   4.651   3.082  15.094 -0.0797  0.7380 -0.3202
 5965TIP3    H139310   4.641   3.145  15.165 -1.2161  0.0931  0.1239
 5965TIP3    H239311   4.598   3.117  15.023 -1.0815  0.0870  0.0841
 5966TIP3   OH239312   4.738   1.017   0.844 -0.1086 -0.0319  0.1474
 5966TIP3    H139313   4.742   1.050   0.933  1.9706 -0.2432  0.1837
 5966TIP3    H239314   4.738   0.922   0.853  0.5812 -0.0584 -0.0718
 5967TIP3   OH239315   5.635   3.481   3.949  0.0890  0.2005 -0.2225
 5967TIP3    H139316   5.730   3.470   3.947 -0.0577 -1.2291 -1.0896
 5967TIP3    H239317   5.612   3.469   4.041  0.5071 -2.4395 -0.3716
 5968TIP3   OH239318   6.335   1.326   0.038 -0.1307 -0.0803  0.3344
 5968TIP3    H139319   6.365   1.236   0.042  0.5922  0.1635  0.5664
 5968TIP3    H239320   6.393   1.368  -0.026 -0.5599  0.1855  0.1133
 5969TIP3   OH239321   1.322   5.634  11.190  0.1903  0.6047 -0.1866
 5969TIP3    H139322   1.249   5.589  11.233  0.5374 -0.1551 -0.3832
 5969TIP3    H239323   1.396   5.575  11.200  0.3781  0.5975 -1.4656
 5970TIP3   OH239324   2.384   0.132  15.893  0.0524  0.0198 -0.1136
 5970TIP3    H139325   2.401   0.052  15.943 -2.4398 -0.9194 -0.5909
 5970TIP3    H239326   2.462   0.145  15.840  2.0240  0.0151  2.6125
 5971TIP3   OH239327   1.869   4.848  13.029 -0.0708 -0.1433  0.6155
 5971TIP3    H139328   1.873   4.896  13.111 -4.3232  0.2385  0.8110
 5971TIP3    H239329   1.892   4.913  12.962  0.9422  0.2069  1.2731
 5972TIP3   OH239330   1.370   4.150  14.123  0.2475  0.5013  0.1744
 5972TIP3    H139331   1.422   4.143  14.043  1.1316 -1.0470  0.8211
 5972TIP3    H239332   1.281   4.126  14.097  0.0079  2.2812 -0.7676
 5973TIP3   OH239333   5.642   2.429  13.948  0.6596 -0.0490  0.1317
 5973TIP3    H139334   5.729   2.469  13.956  0.4426  0.3034  0.8363
 5973TIP3    H239335   5.594   2.461  14.024  0.0787 -0.6700  0.0396
 5974TIP3   OH239336   0.916   5.483  11.922 -0.2260  0.2303 -0.2745
 5974TIP3    H139337   0.936   5.422  11.994  0.1746  1.2758  0.5366
 5974TIP3    H239338   0.892   5.427  11.849 -0.9255 -0.8668  0.7563
 5975TIP3   OH239339   3.814   2.372  10.564  0.5193  0.0274 -0.0874
 5975TIP3    H139340   3.909   2.377  10.557  0.4812 -0.0576 -0.7847
 5975TIP3    H239341   3.787   2.316  10.490 -0.2272  1.7466 -1.1924
 5976TIP3   OH239342   6.315   2.350   4.817 -0.6414  0.0537  0.2298
 5976TIP3    H139343   6.311   2.445   4.828 -0.9074  0.0613  0.0831
 5976TIP3    H239344   6.225   2.321   4.833 -0.5237 -0.1931  0.4524
 5977TIP3   OH239345   1.068   1.234  14.836 -0.2171  0.1533 -0.2122
 5977TIP3    H139346   1.036   1.260  14.750  0.3655 -0.1070 -0.5072
 5977TIP3    H239347   1.162   1.251  14.834 -0.4376  1.7282  0.9478
 5978TIP3   OH239348   4.852   6.336   5.828 -0.3012 -0.5791  0.6381
 5978TIP3    H139349   4.898   6.364   5.907  0.9238 -0.1713 -0.1724
 5978TIP3    H239350   4.922   6.322   5.764 -1.3252  0.7734 -0.8810
 5979TIP3   OH239351   4.521   6.510  14.025 -0.1126 -0.1327 -0.0888
 5979TIP3    H139352   4.597   6.509  13.967 -0.1395 -0.8677 -0.1206
 5979TIP3    H239353   4.515   6.600  14.055 -0.5383  0.4606 -1.8214
 5980TIP3   OH239354   2.198   5.526  11.377  0.1894 -0.0438  0.3536
 5980TIP3    H139355   2.193   5.581  11.456  2.1550 -0.8487  1.0925
 5980TIP3    H239356   2.238   5.583  11.311 -1.7439  0.7340 -0.2342
 5981TIP3   OH239357   1.700   0.088   1.705  0.0362  0.1188  0.3688
 5981TIP3    H139358   1.723   0.170   1.748  1.3735  0.1841 -0.4172
 5981TIP3    H239359   1.607   0.078   1.721 -0.3060  2.1207 -0.0529
 5982TIP3   OH239360   3.193   2.387  16.060  0.2866 -0.1824 -0.2062
 5982TIP3    H139361   3.191   2.350  16.148  0.0060  0.8898  0.2549
 5982TIP3    H239362   3.185   2.311  16.002 -1.8900 -0.7500  0.7284
 5983TIP3   OH239363   3.649   5.151  11.010  0.0133 -0.0282  0.4208
 5983TIP3    H139364   3.726   5.130  10.957 -0.2706 -0.6814  0.2518
 5983TIP3    H239365   3.592   5.198  10.950 -0.4032 -0.9593  0.0545
 5984TIP3   OH239366   2.216   1.137  11.291 -0.0225  0.0601 -0.3259
 5984TIP3    H139367   2.231   1.115  11.199 -0.1545 -0.5320 -0.2104
 5984TIP3    H239368   2.224   1.053  11.337  0.8975  0.4767  0.3178
 5985TIP3   OH239369   0.768   1.434   5.038  0.4630  0.3293  1.0657
 5985TIP3    H139370   0.715   1.454   5.116  0.0328  0.6506  0.6954
 5985TIP3    H239371   0.851   1.403   5.073 -0.1702 -0.7552  1.6696
 5986TIP3   OH239372   2.377   2.107  11.739  0.1703  0.0515  0.1134
 5986TIP3    H139373   2.347   2.016  11.737 -0.5956  0.3033 -0.4672
 5986TIP3    H239374   2.386   2.131  11.647 -0.7276  0.9052  0.2305
 5987TIP3   OH239375   3.183   1.582  14.208  0.5564 -0.7441  0.0322
 5987TIP3    H139376   3.263   1.622  14.176  0.8644 -0.5342  1.0429
 5987TIP3    H239377   3.114   1.644  14.185  1.0075  0.2962  1.4136
 5988TIP3   OH239378   1.000   3.584  15.831 -0.2038  0.1012  0.4184
 5988TIP3    H139379   0.994   3.489  15.824  0.3521 -0.1517  2.5476
 5988TIP3    H239380   0.999   3.601  15.926  2.3156  2.0000  0.2152
 5989TIP3   OH239381   0.166   6.101  15.587  0.4848  0.1718  0.3562
 5989TIP3    H139382   0.142   6.018  15.628 -1.4768  0.6393  0.2624
 5989TIP3    H239383   0.109   6.106  15.510  0.3838  1.7143  0.5097
 5990TIP3   OH239384   3.965   2.319  13.778  0.2036  0.5027  0.4410
 5990TIP3    H139385   4.052   2.355  13.759 -0.6940  2.4152 -0.3158
 5990TIP3    H239386   3.965   2.308  13.873  0.4309  3.0120  0.8164
 5991TIP3   OH239387   6.557   2.803   5.326 -0.3369  0.1492 -0.4879
 5991TIP3    H139388   6.483   2.838   5.374  0.1870  0.1368  0.3347
 5991TIP3    H239389   6.586   2.875   5.269 -0.5606  0.3637 -0.3296
 5992TIP3   OH239390   1.760   0.213   4.003 -0.4925 -0.3843 -0.1350
 5992TIP3    H139391   1.777   0.229   4.095 -1.2762  2.3722 -0.3493
 5992TIP3    H239392   1.845   0.191   3.965  0.1092 -0.0558  1.0009
 5993TIP3   OH239393   1.128   3.839  16.138  0.3696  0.5636  0.1559
 5993TIP3    H139394   1.155   3.818  16.049 -0.1593  1.6330 -0.2650
 5993TIP3    H239395   1.070   3.767  16.163 -1.6437  1.5883 -1.3588
 5994TIP3   OH239396   0.879   2.195   6.486 -0.1595 -0.4523  0.3317
 5994TIP3    H139397   0.902   2.280   6.524  0.8929 -0.6994  0.2856
 5994TIP3    H239398   0.810   2.214   6.423 -0.9915  0.1532  1.3979
 5995TIP3   OH239399   1.401   1.755  10.977  0.3013  0.0268  0.2478
 5995TIP3    H139400   1.436   1.684  10.923  1.6293  0.3290  0.6575
 5995TIP3    H239401   1.344   1.711  11.040 -0.3399 -0.4558 -0.6388
 5996TIP3   OH239402   4.179   2.441  16.072 -0.0088  0.6803  0.5566
 5996TIP3    H139403   4.219   2.372  16.019 -0.8708  0.8724 -0.3778
 5996TIP3    H239404   4.249   2.506  16.085 -0.3880  1.8638 -2.5081
 5997TIP3   OH239405   6.651   2.367  12.267  0.2974  0.3019 -0.0099
 5997TIP3    H139406   6.622   2.331  12.350 -1.6253 -3.7918 -2.1425
 5997TIP3    H239407   6.746   2.351  12.265  0.2876  0.0494  1.2097
 5998TIP3   OH239408   4.923   4.649   2.028 -0.1353 -0.6420  0.4005
 5998TIP3    H139409   5.015   4.671   2.039  0.0278  0.8064 -2.8918
 5998TIP3    H239410   4.923   4.559   1.995  0.1136 -0.5279  0.0929
 5999TIP3   OH239411   1.134   4.694  14.358 -0.2164  0.2155 -0.0160
 5999TIP3    H139412   1.172   4.766  14.408 -0.4893 -0.1151  0.6919
 5999TIP3    H239413   1.124   4.728  14.270 -1.1580  1.3527  0.5029
 6000TIP3   OH239414   2.826   4.560   5.736 -0.7368  0.3184  0.2263
 6000TIP3    H139415   2.837   4.654   5.723 -0.3305  0.2187 -0.1936
 6000TIP3    H239416   2.846   4.546   5.828  0.0715  0.5269  0.0950
 6001TIP3   OH239417   5.652   0.849   1.720 -0.4386 -0.3283  0.0988
 6001TIP3    H139418   5.610   0.780   1.770 -0.2206  0.3335  1.2336
 6001TIP3    H239419   5.585   0.917   1.712 -0.7281 -0.7325 -1.2070
 6002TIP3   OH239420   3.484   0.816   1.046 -0.2107 -0.3572 -0.6301
 6002TIP3    H139421   3.452   0.760   1.117  1.1726 -0.3691  0.0198
 6002TIP3    H239422   3.507   0.898   1.090 -0.1490 -0.0601 -1.2127
 6003TIP3   OH239423   2.430   2.507   1.434  0.4234 -0.1001 -0.1205
 6003TIP3    H139424   2.453   2.415   1.451  0.6806 -0.1688 -0.8004
 6003TIP3    H239425   2.409   2.509   1.341  0.2886  0.5103 -0.0784
 6004TIP3   OH239426   5.691   6.067   0.022 -0.2709 -0.1868  0.0753
 6004TIP3    H139427   5.641   6.131   0.074  0.7975  0.9486 -0.2376
 6004TIP3    H239428   5.699   6.108  -0.064  2.0461  0.1809  0.3898
 6005TIP3   OH239429   6.751   0.310  14.461  0.2229 -0.5055 -0.0575
 6005TIP3    H139430   6.804   0.242  14.420 -0.4095 -1.0669  0.0239
 6005TIP3    H239431   6.714   0.267  14.539 -0.8539 -0.3285 -0.4615
 6006TIP3   OH239432   3.340   0.427  15.390  0.2044  0.3849  0.2478
 6006TIP3    H139433   3.322   0.521  15.391  0.0617  0.3759 -0.7939
 6006TIP3    H239434   3.435   0.421  15.379 -0.0617  0.4495 -3.0282
 6007TIP3   OH239435   0.867   1.313   1.683 -0.1978 -0.0402 -0.1209
 6007TIP3    H139436   0.771   1.307   1.680 -0.1620 -1.1883  0.7643
 6007TIP3    H239437   0.891   1.341   1.594 -1.2872 -0.6694 -0.6427
 6008TIP3   OH239438   3.296   6.577   3.501 -0.4365 -0.3748  0.2164
 6008TIP3    H139439   3.329   6.492   3.529  0.2368  0.3561  1.8113
 6008TIP3    H239440   3.372   6.635   3.507 -1.6706  1.1625  3.0361
 6009TIP3   OH239441   2.695   1.591  11.858 -0.0224 -0.3055  0.2148
 6009TIP3    H139442   2.775   1.556  11.897  1.4408 -0.1428 -2.3767
 6009TIP3    H239443   2.701   1.686  11.871  0.7880 -0.1866 -0.8401
 6010TIP3   OH239444   0.746   3.222  15.804  0.2189  0.0245  0.0453
 6010TIP3    H139445   0.704   3.263  15.728  0.3647  0.4217  0.1780
 6010TIP3    H239446   0.706   3.135  15.809 -1.0213  0.5954  0.5128
 6011TIP3   OH239447   1.042   2.478  11.901  0.0050  0.1649  0.7787
 6011TIP3    H139448   0.974   2.421  11.936 -0.2615  0.8268  1.3529
 6011TIP3    H239449   1.048   2.550  11.963  2.2773 -0.5963  1.5378
 6012TIP3   OH239450   4.795   1.261   4.003 -0.0509 -0.6936  0.1519
 6012TIP3    H139451   4.701   1.260   4.022 -0.2305 -2.1045 -0.6594
 6012TIP3    H239452   4.831   1.190   4.055  0.7647  0.4400  1.1941
 6013TIP3   OH239453   0.463   1.480  11.565  0.4049  0.2493 -0.1821
 6013TIP3    H139454   0.461   1.574  11.585  4.3641  0.0881  1.9708
 6013TIP3    H239455   0.522   1.473  11.490  1.7961 -0.5869  0.9413
 6014TIP3   OH239456   5.459   5.698  14.168  0.5203 -0.3185  0.3824
 6014TIP3    H139457   5.449   5.784  14.128 -0.6207 -0.0772  1.1532
 6014TIP3    H239458   5.440   5.712  14.260  3.2266 -0.8366  1.1236
 6015TIP3   OH239459   1.727   4.032  16.542  0.1539 -0.0884 -0.6278
 6015TIP3    H139460   1.657   4.045  16.478  0.1370  0.7099 -0.4613
 6015TIP3    H239461   1.805   4.070  16.500 -0.0173  1.1389  0.1053
 6016TIP3   OH239462   3.250   0.587  16.567 -0.1131 -0.2965  0.1617
 6016TIP3    H139463   3.214   0.630  16.645  1.0547 -1.3788  1.3417
 6016TIP3    H239464   3.260   0.658  16.504 -0.6707  0.6994  1.1398
 6017TIP3   OH239465   6.754   3.347  12.722  0.5210 -0.0164  0.2077
 6017TIP3    H139466   6.791   3.429  12.689  2.7414 -1.0323 -0.0450
 6017TIP3    H239467   6.786   3.280  12.661 -1.4854 -1.0681  0.2270
 6018TIP3   OH239468   1.900   5.740  15.258  0.2129  0.0241  0.5276
 6018TIP3    H139469   1.906   5.753  15.352  0.3675  0.0425  0.5154
 6018TIP3    H239470   1.815   5.699  15.245  0.5065 -0.6665  0.7495
 6019TIP3   OH239471   3.583   0.591  10.737  0.1327 -0.7846 -0.1510
 6019TIP3    H139472   3.495   0.608  10.771  0.6401 -0.0714  0.8864
 6019TIP3    H239473   3.619   0.678  10.718  1.5253 -0.7963  1.9594
 6020TIP3   OH239474   0.069   0.774   5.595  0.0804 -0.4613 -0.3836
 6020TIP3    H139475   0.157   0.805   5.572 -0.3530  0.9592 -0.1913
 6020TIP3    H239476   0.010   0.836   5.552 -0.7861  0.1547  1.6170
 6021TIP3   OH239477   3.874   3.349   1.023  0.1797 -0.0201  0.4540
 6021TIP3    H139478   3.896   3.352   0.930 -0.2292  3.4572  0.3259
 6021TIP3    H239479   3.781   3.327   1.026 -0.3746  2.0480 -0.1783
 6022TIP3   OH239480   6.767   0.675   5.125  0.1530 -0.3455 -0.2982
 6022TIP3    H139481   6.776   0.720   5.042 -1.2792 -1.7262 -1.2643
 6022TIP3    H239482   6.725   0.739   5.183 -0.5546  0.0473 -1.2176
 6023TIP3   OH239483   3.867   0.613   1.988 -0.3632 -0.3690  0.2691
 6023TIP3    H139484   3.860   0.518   1.990 -0.3893 -0.4143 -0.9683
 6023TIP3    H239485   3.800   0.644   2.048  0.6778 -1.1483  1.8881
 6024TIP3   OH239486   1.583   5.992  13.170  0.5230  0.2463  0.3032
 6024TIP3    H139487   1.621   6.070  13.211 -0.2906  0.8087 -0.0039
 6024TIP3    H239488   1.654   5.958  13.114  0.7177  1.0640  0.0351
 6025TIP3   OH239489   3.635   4.540  15.715  0.0029  0.4653 -0.3118
 6025TIP3    H139490   3.664   4.580  15.798 -0.3566  0.0321  0.0307
 6025TIP3    H239491   3.542   4.561  15.710  0.2776  1.5124 -1.2094
 6026TIP3   OH239492   6.045   3.914  14.809 -0.6915 -0.3812 -0.0168
 6026TIP3    H139493   6.057   4.004  14.779 -0.0393 -0.7810 -1.0026
 6026TIP3    H239494   5.998   3.871  14.738 -0.2420 -1.0407  0.0784
 6027TIP3   OH239495   2.194   3.440   3.585 -0.5917 -0.1501 -0.2771
 6027TIP3    H139496   2.260   3.501   3.618 -0.6991 -1.1221  1.8716
 6027TIP3    H239497   2.237   3.355   3.585 -0.7600 -0.2787 -2.3073
 6028TIP3   OH239498   6.478   5.709  15.610 -0.4263  0.9997  0.1833
 6028TIP3    H139499   6.485   5.631  15.666  2.0082  0.9850 -0.0422
 6028TIP3    H239500   6.463   5.673  15.522  1.5719  0.6721 -0.0696
 6029TIP3   OH239501   0.725   4.534  16.049  0.0829  0.2898 -0.1002
 6029TIP3    H139502   0.696   4.508  16.137 -1.4048 -1.6953 -1.0753
 6029TIP3    H239503   0.803   4.587  16.064 -0.2552  0.2206  2.4166
 6030TIP3   OH239504   2.867   1.625  14.181 -0.7590  0.1826  0.0026
 6030TIP3    H139505   2.826   1.540  14.202 -2.0439  0.6823 -0.3818
 6030TIP3    H239506   2.927   1.605  14.109 -1.7692 -0.2522 -0.7485
 6031TIP3   OH239507   5.870   1.126   3.747  0.5129  0.3435  0.3132
 6031TIP3    H139508   5.834   1.206   3.784  2.2200  1.0968  0.4264
 6031TIP3    H239509   5.956   1.151   3.714  0.8397 -1.3108 -0.1980
 6032TIP3   OH239510   5.296   2.158  14.181 -0.6111 -0.1935  0.0020
 6032TIP3    H139511   5.356   2.100  14.133 -0.4569  0.4816 -0.6329
 6032TIP3    H239512   5.245   2.201  14.113 -0.7625  0.3802  0.4730
 6033TIP3   OH239513   0.205   0.502   4.214  0.5479 -0.2733  0.4704
 6033TIP3    H139514   0.139   0.570   4.199  0.1794 -0.7952 -0.3363
 6033TIP3    H239515   0.223   0.467   4.127  2.5291  0.4249  0.5442
 6034TIP3   OH239516   0.478   0.130  16.024 -0.5880 -0.4278  0.5022
 6034TIP3    H139517   0.517   0.214  16.003 -3.6144  1.7341  2.7715
 6034TIP3    H239518   0.418   0.112  15.951  1.4065 -1.7559 -0.9491
 6035TIP3   OH239519   4.539   3.672   3.992 -0.3979  0.0542 -0.0330
 6035TIP3    H139520   4.453   3.629   3.995 -0.0960 -0.7336 -1.5427
 6035TIP3    H239521   4.598   3.611   4.035 -0.4514  0.2340  0.2975
 6036TIP3   OH239522   0.709   6.724  11.732 -0.4974  0.3561  0.1495
 6036TIP3    H139523   0.721   6.811  11.695 -2.2568  0.4328 -0.3704
 6036TIP3    H239524   0.697   6.739  11.825  1.8012  0.3787  0.4837
 6037TIP3   OH239525   3.507   0.465   0.725  0.7234  0.0960  0.4076
 6037TIP3    H139526   3.461   0.490   0.805  0.3420  0.9763 -0.0797
 6037TIP3    H239527   3.489   0.535   0.663  1.1831 -0.4738 -0.3970
 6038TIP3   OH239528   0.929   2.481  13.707 -0.3128 -0.1682  0.1364
 6038TIP3    H139529   0.928   2.442  13.620 -0.6146 -0.2329  0.1668
 6038TIP3    H239530   1.005   2.539  13.707  0.5190 -1.2282  0.3040
 6039TIP3   OH239531   3.424   4.427   0.110  0.2479  0.2969  0.2384
 6039TIP3    H139532   3.502   4.465   0.152  1.1380 -0.0200 -1.0643
 6039TIP3    H239533   3.456   4.395   0.026 -1.2874  0.0482 -0.2711
 6040TIP3   OH239534   4.439   4.654   4.767 -0.0581  0.2631 -0.3306
 6040TIP3    H139535   4.411   4.745   4.773  1.2538  0.7667 -1.3020
 6040TIP3    H239536   4.361   4.607   4.739 -1.3615  0.6753  2.2464
 6041TIP3   OH239537   2.571   5.448   4.085  0.3886 -0.0056 -0.1752
 6041TIP3    H139538   2.556   5.410   3.999 -2.2469  0.2285  0.1169
 6041TIP3    H239539   2.532   5.535   4.080  2.6596  1.1410  0.4504
 6042TIP3   OH239540   6.621   6.246  12.025 -0.5358  0.0150  0.5191
 6042TIP3    H139541   6.703   6.213  12.062 -0.3621 -0.7058 -0.4613
 6042TIP3    H239542   6.613   6.200  11.941 -1.6414  0.5284  0.3323
 6043TIP3   OH239543   5.324   1.415   4.507  0.2503  0.1111  0.5975
 6043TIP3    H139544   5.354   1.498   4.471  0.9165  0.1253  1.1642
 6043TIP3    H239545   5.295   1.437   4.596 -1.8559  0.1789 -0.0400
 6044TIP3   OH239546   1.139   5.374   2.744 -0.0695 -0.4718 -0.0033
 6044TIP3    H139547   1.139   5.282   2.721 -0.2856 -0.2857 -0.7655
 6044TIP3    H239548   1.066   5.412   2.695  0.6254  0.2918 -0.4896
 6045TIP3   OH239549   2.722   0.869  14.917 -0.0493 -0.1504 -0.7143
 6045TIP3    H139550   2.723   0.945  14.859 -1.7524  0.1150 -0.4585
 6045TIP3    H239551   2.641   0.879  14.968  0.6051 -1.2009  0.5952
 6046TIP3   OH239552   4.228   5.867  14.585  0.0479  0.4558 -0.0459
 6046TIP3    H139553   4.143   5.909  14.601  0.5944  1.4085  0.4183
 6046TIP3    H239554   4.288   5.940  14.568  1.0629 -0.1150  0.9969
 6047TIP3   OH239555   3.473   5.554  16.651 -0.5174  0.4010  0.3460
 6047TIP3    H139556   3.487   5.636  16.698 -3.5392  1.7755 -0.9214
 6047TIP3    H239557   3.413   5.504  16.707  2.4095 -1.7923  1.8418
 6048TIP3   OH239558   0.875   1.588   4.595 -0.2513  0.0537 -0.3015
 6048TIP3    H139559   0.924   1.567   4.674 -0.0282 -0.2014 -0.5031
 6048TIP3    H239560   0.905   1.523   4.530 -0.1858  0.4652 -0.6881
 6049TIP3   OH239561   6.593   5.418  14.541  0.2151 -0.0955 -0.3844
 6049TIP3    H139562   6.594   5.387  14.631 -2.0788 -0.9080 -0.5781
 6049TIP3    H239563   6.594   5.338  14.487  1.2264  0.3667 -1.0869
 6050TIP3   OH239564   0.201   3.967   0.499 -0.6134 -0.1180 -0.2588
 6050TIP3    H139565   0.252   4.020   0.560 -0.0505  0.2866 -1.0694
 6050TIP3    H239566   0.193   4.021   0.420 -0.3000 -1.0954 -0.9805
 6051TIP3   OH239567   5.232   2.491  14.141  0.7322 -0.0107  0.6995
 6051TIP3    H139568   5.174   2.563  14.118  1.4830  1.2491  2.5791
 6051TIP3    H239569   5.212   2.472  14.233 -0.8903 -3.6343 -0.1916
 6052TIP3   OH239570   2.911   5.207   1.396 -0.3374  0.0602 -0.2444
 6052TIP3    H139571   2.932   5.190   1.488  1.4953  2.0288 -0.2227
 6052TIP3    H239572   2.993   5.241   1.359 -1.9738  2.8135 -1.6691
 6053TIP3   OH239573   2.374   5.646  13.984 -0.0387 -0.1740  0.0413
 6053TIP3    H139574   2.343   5.687  13.903 -1.7991 -0.4586  0.5310
 6053TIP3    H239575   2.425   5.715  14.028 -0.8261  0.6674 -0.3448
 6054TIP3   OH239576   4.653   0.540   5.596 -0.3908 -0.0295  0.1364
 6054TIP3    H139577   4.722   0.570   5.536  0.4958  1.0666  1.6434
 6054TIP3    H239578   4.648   0.445   5.581  2.7801 -0.4797  1.2627
 6055TIP3   OH239579   4.978   2.876   4.562  0.3075  0.5535 -0.4712
 6055TIP3    H139580   5.055   2.852   4.512  0.0657 -1.7151  0.1305
 6055TIP3    H239581   4.936   2.793   4.584 -0.8220  1.5567  1.5468
 6056TIP3   OH239582   6.487   0.660  12.423  0.4930 -0.2516 -0.1960
 6056TIP3    H139583   6.539   0.651  12.344  0.5899  0.0393 -0.1691
 6056TIP3    H239584   6.510   0.584  12.477  1.8844  0.5284  0.3790
 6057TIP3   OH239585   6.501   2.545  13.085  0.2432  0.1815  0.3269
 6057TIP3    H139586   6.497   2.468  13.028 -0.8804  0.5702 -0.1525
 6057TIP3    H239587   6.590   2.545  13.120  0.6028 -0.6999 -0.5478
 6058TIP3   OH239588   5.071   1.777  15.545 -0.1776 -0.2692  0.1457
 6058TIP3    H139589   5.008   1.831  15.498 -1.0583 -0.3255  1.2186
 6058TIP3    H239590   5.054   1.795  15.637 -0.0073 -1.8414  0.5147
 6059TIP3   OH239591   2.456   4.053  11.954  0.0055  0.0521 -0.0634
 6059TIP3    H139592   2.361   4.039  11.959 -0.3231  2.1092  0.0586
 6059TIP3    H239593   2.487   3.978  11.903 -1.6366 -0.8174  0.1235
 6060TIP3   OH239594   3.482   3.540   2.360  0.2573  0.0665 -0.1501
 6060TIP3    H139595   3.529   3.579   2.287 -1.6736  2.4140 -0.2608
 6060TIP3    H239596   3.542   3.548   2.434  2.7009 -3.3357 -1.4891
 6061TIP3   OH239597   6.415   3.914   0.068 -0.3932  0.5987  0.4833
 6061TIP3    H139598   6.445   4.004   0.081  0.0335  0.2927  1.8238
 6061TIP3    H239599   6.450   3.867   0.143 -0.1043 -0.8255 -0.5228
 6062TIP3   OH239600   2.208   3.628   1.451 -0.7134 -0.1723  0.2226
 6062TIP3    H139601   2.194   3.599   1.361  0.0953  0.7096 -0.2061
 6062TIP3    H239602   2.161   3.564   1.505  0.9913 -2.3076 -0.6680
 6063TIP3   OH239603   2.526   5.236  16.470 -0.2531 -0.0263 -0.6534
 6063TIP3    H139604   2.568   5.212  16.553 -2.4085  1.5214  0.9958
 6063TIP3    H239605   2.545   5.329  16.459 -2.2839  0.4525 -0.4031
 6064TIP3   OH239606   1.028   0.200   3.761 -0.2487 -0.0197  0.7482
 6064TIP3    H139607   1.091   0.212   3.832 -0.5223 -0.6679  1.1016
 6064TIP3    H239608   1.040   0.109   3.733 -0.5480  0.0590  0.3491
 6065TIP3   OH239609   3.762   5.751   3.338 -0.2899 -0.6880 -0.1951
 6065TIP3    H139610   3.694   5.800   3.291 -0.3093  0.1736  0.6979
 6065TIP3    H239611   3.715   5.710   3.410  0.1666  0.0965  0.5567
 6066TIP3   OH239612   6.748   6.292  16.637 -0.3684 -0.3581  0.1773
 6066TIP3    H139613   6.843   6.282  16.632 -0.3879 -1.1637  1.2119
 6066TIP3    H239614   6.713   6.205  16.620 -0.9462  0.0107 -0.5663
 6067TIP3   OH239615   3.417   4.199   5.046  0.2435 -0.1240  0.6705
 6067TIP3    H139616   3.492   4.244   5.007  0.8319 -1.6243 -0.0175
 6067TIP3    H239617   3.376   4.154   4.972 -0.8871  0.0516  1.1813
 6068TIP3   OH239618   2.402   5.771  13.650  0.1948  0.5322 -0.2224
 6068TIP3    H139619   2.440   5.840  13.595 -0.5422  1.2808  0.1866
 6068TIP3    H239620   2.393   5.697  13.591  2.9323  0.0492 -0.1858
 6069TIP3   OH239621   5.957   2.099   2.379 -0.0233  0.2875 -0.6067
 6069TIP3    H139622   5.879   2.089   2.325  0.0337 -0.5759 -0.5300
 6069TIP3    H239623   6.029   2.108   2.317 -0.0943  0.4046 -0.6725
 6070TIP3   OH239624   6.353   2.490  11.354  0.1460  0.1958 -0.8322
 6070TIP3    H139625   6.280   2.437  11.387 -0.7162  1.7738 -0.0574
 6070TIP3    H239626   6.338   2.497  11.260 -0.3256 -0.0579 -0.7774
 6071TIP3   OH239627   4.583   3.757  13.933 -0.1183  0.2720 -0.1642
 6071TIP3    H139628   4.581   3.746  14.029 -2.1559 -0.1779 -0.2087
 6071TIP3    H239629   4.555   3.847  13.919  0.5380  0.4533 -0.3397
 6072TIP3   OH239630   3.227   2.453  10.872 -0.4725 -0.2976 -0.3470
 6072TIP3    H139631   3.283   2.489  10.941  0.2514 -2.5585  0.3443
 6072TIP3    H239632   3.195   2.371  10.909 -1.4027 -0.7616 -2.1162
 6073TIP3   OH239633   1.888   5.047  17.106 -0.2652  0.6490  0.3632
 6073TIP3    H139634   1.857   5.068  17.018 -1.8232  2.3486  1.2433
 6073TIP3    H239635   1.829   4.978  17.137  1.0788 -0.8814 -0.3228
 6074TIP3   OH239636   0.949   4.918  11.265 -0.1324 -0.5052 -0.4932
 6074TIP3    H139637   1.043   4.905  11.253 -0.2605 -0.8791 -1.1321
 6074TIP3    H239638   0.920   4.960  11.184 -0.3234  0.6397  0.1616
 6075TIP3   OH239639   0.242   2.244   4.010  0.1720  0.2554  0.4942
 6075TIP3    H139640   0.184   2.289   4.071  0.4572  1.8228 -0.3668
 6075TIP3    H239641   0.185   2.183   3.963 -0.3019  0.0406  1.3156
 6076TIP3   OH239642   1.215   3.764  15.854 -0.2694  0.6491 -0.0642
 6076TIP3    H139643   1.296   3.716  15.838  0.0653  0.9314  0.7651
 6076TIP3    H239644   1.146   3.706  15.822  0.1320 -0.3602  0.8492
 6077TIP3   OH239645   2.052   4.067   5.027 -0.2817  0.1065  0.1659
 6077TIP3    H139646   2.116   4.116   5.078  1.5727  1.4306 -3.1067
 6077TIP3    H239647   2.009   4.133   4.972  1.4557 -1.5542 -3.5448
 6078TIP3   OH239648   0.371   5.274   6.457  0.1903 -0.0071  0.5305
 6078TIP3    H139649   0.415   5.266   6.372 -0.3572 -0.8267  0.3155
 6078TIP3    H239650   0.438   5.309   6.515  0.9365 -0.6050  0.0522
 6079TIP3   OH239651   0.825   1.140   3.186 -0.3264  0.4162  0.0792
 6079TIP3    H139652   0.777   1.071   3.232  0.4906  0.2410  0.6843
 6079TIP3    H239653   0.898   1.162   3.245 -0.1053  1.2119 -0.4811
 6080TIP3   OH239654   6.342   5.536   0.941 -0.1778  0.4961  0.6610
 6080TIP3    H139655   6.347   5.446   0.907 -0.7836  0.8004 -0.2637
 6080TIP3    H239656   6.310   5.526   1.031  0.3526 -0.2461  0.7843
 6081TIP3   OH239657   1.397   6.380  15.768 -0.7798 -0.0314  0.2398
 6081TIP3    H139658   1.447   6.461  15.763 -1.7183  0.5640 -4.9882
 6081TIP3    H239659   1.463   6.311  15.772  0.2539  0.8817 -0.5124
 6082TIP3   OH239660   1.663   2.348   4.878 -0.3483 -0.5061 -0.0445
 6082TIP3    H139661   1.739   2.304   4.917  1.8157  4.0033  1.4246
 6082TIP3    H239662   1.680   2.346   4.784  1.1874 -0.2928  0.2050
 6083TIP3   OH239663   5.911   5.921   1.636  0.2176  0.0273  0.5944
 6083TIP3    H139664   5.916   5.996   1.696 -3.0041  0.1269  0.9126
 6083TIP3    H239665   5.844   5.946   1.572  0.1992 -1.9540 -0.2296
 6084TIP3   OH239666   0.807   1.506   1.291 -0.0064 -0.3682  0.7838
 6084TIP3    H139667   0.898   1.537   1.297 -0.6033  1.7431 -0.1084
 6084TIP3    H239668   0.814   1.411   1.303  2.2223 -0.1903  1.4982
 6085TIP3   OH239669   5.866   2.493   0.376  0.0839 -0.1994  0.7057
 6085TIP3    H139670   5.960   2.513   0.370 -0.2838  1.3100 -1.3995
 6085TIP3    H239671   5.829   2.566   0.425 -0.2282  0.2666 -0.2010
 6086TIP3   OH239672   2.774   2.330   0.339 -0.1252  0.1091  0.0613
 6086TIP3    H139673   2.806   2.360   0.254  1.5449  1.0435  0.9590
 6086TIP3    H239674   2.818   2.246   0.353 -2.1866 -1.2253 -0.9536
 6087TIP3   OH239675   4.012   6.351   0.910 -0.3446 -0.0826 -0.0959
 6087TIP3    H139676   4.025   6.320   1.000 -2.1861  1.5180  0.8171
 6087TIP3    H239677   4.073   6.424   0.901 -0.9492  0.4828  0.2913
 6088TIP3   OH239678   6.529   0.506   5.220  0.3273 -0.0768 -0.3626
 6088TIP3    H139679   6.603   0.552   5.180 -1.0642  1.7938 -0.9481
 6088TIP3    H239680   6.522   0.425   5.171  1.0049  0.4486 -1.3595
 6089TIP3   OH239681   3.224   5.371  11.381 -0.1040  0.3797 -0.0751
 6089TIP3    H139682   3.142   5.372  11.331  0.2315  0.6683 -0.6162
 6089TIP3    H239683   3.195   5.376  11.472 -0.6613  1.2285 -0.2868
 6090TIP3   OH239684   5.627   6.071  13.241 -0.2687  0.2912  0.4952
 6090TIP3    H139685   5.639   5.986  13.284  2.0666  0.6397  0.6749
 6090TIP3    H239686   5.542   6.064  13.196 -0.0823 -2.1831  0.3936
 6091TIP3   OH239687   6.584   6.460   4.680  0.2059  0.7475  0.8189
 6091TIP3    H139688   6.611   6.426   4.766 -1.8014 -0.5197  1.0062
 6091TIP3    H239689   6.611   6.393   4.618 -1.3686  0.0189  0.8809
 6092TIP3   OH239690   6.159   4.950   6.616 -0.4035 -0.9262 -0.2304
 6092TIP3    H139691   6.100   4.931   6.689 -1.8231  0.1879 -1.0135
 6092TIP3    H239692   6.112   4.919   6.538  0.6759 -1.2829 -0.7549
 6093TIP3   OH239693   5.186   4.756   0.373 -0.0886 -0.4734  0.3202
 6093TIP3    H139694   5.207   4.695   0.444 -0.7545 -0.3883  0.5975
 6093TIP3    H239695   5.225   4.716   0.295  0.9623 -0.3870  0.7861
 6094TIP3   OH239696   3.776   3.052   5.022 -0.3089  0.2505 -0.1304
 6094TIP3    H139697   3.714   3.116   5.056  0.5421  1.1510 -0.2452
 6094TIP3    H239698   3.800   3.084   4.936  0.3283 -0.0795 -0.0880
 6095TIP3   OH239699   6.340   2.077   0.774 -0.5211  0.4839 -0.1449
 6095TIP3    H139700   6.420   2.063   0.723  1.1012  2.6968  1.5971
 6095TIP3    H239701   6.284   2.129   0.717 -0.7316 -0.9750 -1.3364
 6096TIP3   OH239702   6.369   3.369   5.521 -0.0862 -0.3304  0.0778
 6096TIP3    H139703   6.353   3.385   5.614 -0.6253  0.1298 -0.0872
 6096TIP3    H239704   6.282   3.370   5.481  0.1510 -0.3994 -0.4513
 6097TIP3   OH239705   0.623   2.191   1.315 -0.2569 -0.2048  0.4911
 6097TIP3    H139706   0.654   2.100   1.309  0.2720 -0.0166  0.2476
 6097TIP3    H239707   0.672   2.237   1.246  0.6205  0.5741  1.6024
 6098TIP3   OH239708   4.517   2.640   0.144 -0.2755  0.5207 -0.2272
 6098TIP3    H139709   4.452   2.577   0.114 -1.2254  0.8832  0.9642
 6098TIP3    H239710   4.590   2.631   0.083 -1.1367 -0.4293 -1.1548
 6099TIP3   OH239711   5.856   1.288  16.975  0.5778 -0.0789 -0.2042
 6099TIP3    H139712   5.933   1.344  16.968  0.9110 -0.4368  0.5082
 6099TIP3    H239713   5.814   1.315  17.057 -0.1278  0.2025 -0.6497
 6100TIP3   OH239714   0.347   2.272  10.572 -0.4264  0.1501  0.1336
 6100TIP3    H139715   0.398   2.344  10.608  0.2646 -0.0297 -0.4602
 6100TIP3    H239716   0.256   2.301  10.579 -0.2907  0.2870  1.6135
 6101TIP3   OH239717   4.593   2.140   1.123 -0.2845 -0.1852  0.5898
 6101TIP3    H139718   4.573   2.224   1.164 -0.4083  1.0431 -1.8313
 6101TIP3    H239719   4.684   2.147   1.096 -0.7916 -0.0882 -1.2091
 6102TIP3   OH239720   1.213   0.661   2.536  0.0669  0.4350  0.3811
 6102TIP3    H139721   1.147   0.682   2.470  0.8002 -1.3478 -0.9982
 6102TIP3    H239722   1.275   0.733   2.531  0.6256 -0.1366 -1.6211
 6103TIP3   OH239723   3.911   1.171   5.945  0.2103  0.3358  0.2123
 6103TIP3    H139724   3.873   1.084   5.939  0.1811  0.4370 -2.0879
 6103TIP3    H239725   3.838   1.229   5.966 -0.2855  0.0885 -0.7566
 6104TIP3   OH239726   6.077   1.010  11.251  0.7224 -0.4726 -0.4617
 6104TIP3    H139727   6.106   0.994  11.161  3.2032 -0.4756  0.2710
 6104TIP3    H239728   6.129   1.085  11.281 -1.2399  0.6026  0.4840
 6105TIP3   OH239729   1.497   2.237   4.269  0.0808 -0.0126  0.2487
 6105TIP3    H139730   1.422   2.291   4.295 -0.9641 -1.1411 -0.3224
 6105TIP3    H239731   1.487   2.156   4.318  1.3932  0.1212  0.7691
 6106TIP3   OH239732   1.892   2.090   2.095  0.3956 -0.2196 -0.6542
 6106TIP3    H139733   1.804   2.066   2.126 -0.4893  0.3083 -2.6343
 6106TIP3    H239734   1.878   2.164   2.037  2.1388 -0.2876 -1.2143
 6107TIP3   OH239735   3.691   2.873  13.464  0.3720 -0.0730  0.1218
 6107TIP3    H139736   3.748   2.804  13.429  0.4068 -0.6454  1.2797
 6107TIP3    H239737   3.635   2.897  13.390  0.3204 -1.3820 -0.2896
 6108TIP3   OH239738   1.946   5.780   5.453 -0.0865 -0.4205 -0.2051
 6108TIP3    H139739   2.029   5.752   5.493 -1.8521 -1.2877  3.2345
 6108TIP3    H239740   1.909   5.700   5.416 -0.7577 -0.7693  1.1275
 6109TIP3   OH239741   3.242   1.537   4.911 -0.6162  0.4516 -0.1905
 6109TIP3    H139742   3.238   1.610   4.849 -1.3887  1.2036  0.7218
 6109TIP3    H239743   3.248   1.578   4.997  0.0587 -0.5754  0.2705
 6110TIP3   OH239744   6.211   5.881   2.248 -0.0593 -0.3307  0.3487
 6110TIP3    H139745   6.297   5.923   2.257  0.6641 -1.4192 -1.0785
 6110TIP3    H239746   6.214   5.838   2.163 -0.2847 -4.2707  2.1173
 6111TIP3   OH239747   3.118   2.720  14.137  0.3187  0.2710 -0.3500
 6111TIP3    H139748   3.133   2.720  14.043  1.8146  0.3684 -0.1311
 6111TIP3    H239749   3.106   2.812  14.160  1.7134  0.4472 -0.2171
 6112TIP3   OH239750   0.607   5.652  15.917 -0.1260  0.4472 -0.3057
 6112TIP3    H139751   0.651   5.664  16.001 -0.4990 -1.0427  0.1242
 6112TIP3    H239752   0.516   5.677  15.934  0.0259  1.2099 -0.5701
 6113TIP3   OH239753   3.512   4.203   3.799  0.1813 -0.0890  0.2341
 6113TIP3    H139754   3.430   4.234   3.761  0.5747  0.4207 -0.2175
 6113TIP3    H239755   3.542   4.134   3.740  0.2808  0.0090  0.1674
 6114TIP3   OH239756   4.749   2.079   3.415  0.5277 -0.3487  0.4008
 6114TIP3    H139757   4.653   2.075   3.422  0.2583  1.6902 -1.1135
 6114TIP3    H239758   4.773   2.001   3.366 -0.9330  1.1093 -2.9803
 6115TIP3   OH239759   1.937   4.193   3.233  0.6634 -0.3901  0.2503
 6115TIP3    H139760   1.890   4.220   3.154  0.0389  1.4299  1.1921
 6115TIP3    H239761   1.942   4.098   3.227  0.4404 -0.3068 -1.8658
 6116TIP3   OH239762   6.380   3.582  16.343  0.0288 -0.1569  0.2375
 6116TIP3    H139763   6.368   3.576  16.438 -0.2565 -0.1046  0.2031
 6116TIP3    H239764   6.413   3.670  16.328 -0.2588 -0.0476  0.2503
 6117TIP3   OH239765   1.454   1.175   1.837  0.0438 -0.1475 -0.6480
 6117TIP3    H139766   1.394   1.168   1.912 -1.8760  1.2420 -1.9597
 6117TIP3    H239767   1.501   1.257   1.852  0.1139 -0.1886 -0.6446
 6118TIP3   OH239768   0.688   6.552  11.501  0.1215  0.2662 -0.1976
 6118TIP3    H139769   0.750   6.589  11.437 -2.0027  1.0524 -1.9581
 6118TIP3    H239770   0.706   6.600  11.582 -0.2965  2.8408 -1.5293
 6119TIP3   OH239771   6.456   2.712   3.825  0.1903 -0.0366  0.1473
 6119TIP3    H139772   6.371   2.718   3.869  0.3677  0.8270  0.3776
 6119TIP3    H239773   6.513   2.672   3.891 -0.7294 -3.7532 -1.0323
 6120TIP3   OH239774   2.613   3.530  14.131  0.4028  0.6126  0.2839
 6120TIP3    H139775   2.553   3.464  14.166  0.3641  1.3132  1.5875
 6120TIP3    H239776   2.605   3.521  14.036  1.4048 -2.1768  0.3688
 6121TIP3   OH239777   4.652   6.596  16.892 -0.6551  0.1671  0.1548
 6121TIP3    H139778   4.664   6.609  16.798 -2.3532 -0.4401 -0.1999
 6121TIP3    H239779   4.557   6.584  16.902 -0.2602 -2.8649  1.5033
 6122TIP3   OH239780   4.761   0.994  11.433  0.4464 -0.6401 -0.4176
 6122TIP3    H139781   4.759   1.057  11.504  1.0907  0.0746 -1.0196
 6122TIP3    H239782   4.780   0.910  11.476  0.1755 -0.3333  0.3171
 6123TIP3   OH239783   5.595   1.130  12.870  0.5435 -0.2830 -0.4834
 6123TIP3    H139784   5.537   1.068  12.915 -2.5918  0.5631 -2.9385
 6123TIP3    H239785   5.601   1.096  12.781  2.7098  0.4649 -0.6640
 6124TIP3   OH239786   6.499   3.066  16.505 -0.2718  0.6833 -0.3601
 6124TIP3    H139787   6.526   2.983  16.467  0.0686  0.0201  1.2399
 6124TIP3    H239788   6.558   3.131  16.467  0.1144  0.0483 -0.8579
 6125TIP3   OH239789   0.342   0.033   1.296 -0.1263  0.2090  0.2464
 6125TIP3    H139790   0.247   0.046   1.286 -0.2955  0.5572  2.0284
 6125TIP3    H239791   0.365  -0.028   1.226 -1.7177 -0.0951 -0.0555
 6126TIP3   OH239792   6.389   6.203   1.480 -0.0218  0.2376 -0.1582
 6126TIP3    H139793   6.419   6.269   1.418 -3.6789  1.4198 -0.9089
 6126TIP3    H239794   6.424   6.121   1.446  4.2740  1.5052  0.5367
 6127TIP3   OH239795   5.857   2.468   5.113 -0.0620  0.0126 -0.1238
 6127TIP3    H139796   5.797   2.486   5.185  0.5991 -1.0979  0.7371
 6127TIP3    H239797   5.867   2.553   5.069 -1.8237  0.3287  0.0149
 6128TIP3   OH239798   2.467   3.209   6.787  0.1245 -0.0514 -0.3150
 6128TIP3    H139799   2.440   3.129   6.832  0.7337  0.0580  0.2500
 6128TIP3    H239800   2.525   3.178   6.717 -0.9966 -0.2397 -1.1932
 6129TIP3   OH239801   4.315   2.636  16.468  0.2707 -0.3387 -0.1234
 6129TIP3    H139802   4.329   2.543  16.487 -2.0855 -1.4833 -3.1059
 6129TIP3    H239803   4.400   2.668  16.439  0.6420 -2.2727 -1.3719
 6130TIP3   OH239804   4.335   2.687  14.267 -0.2632 -0.2738  0.6890
 6130TIP3    H139805   4.356   2.778  14.246 -1.0353 -0.0723  0.7491
 6130TIP3    H239806   4.381   2.635  14.200 -1.6975  0.2929 -0.8103
 6131TIP3   OH239807   1.590   3.088  13.469 -0.4266 -0.7528  0.2945
 6131TIP3    H139808   1.580   3.065  13.561 -2.5017  0.9531  0.5852
 6131TIP3    H239809   1.518   3.042  13.425 -1.1877  0.6327  0.0233
 6132TIP3   OH239810   3.874   3.233   5.487  0.3451  0.0420  0.6455
 6132TIP3    H139811   3.933   3.298   5.448 -0.9788  0.7433 -0.2563
 6132TIP3    H239812   3.818   3.205   5.415  0.2516 -1.4131  1.2431
 6133TIP3   OH239813   3.671   0.028   6.187  0.0494  0.8525  0.1136
 6133TIP3    H139814   3.672   0.122   6.203  2.1637  0.3445  4.5212
 6133TIP3    H239815   3.758   0.008   6.153  0.8436  0.2588  2.3145
 6134TIP3   OH239816   3.602   1.566   2.288 -0.1489  0.1467 -0.4107
 6134TIP3    H139817   3.614   1.596   2.378  0.0988  0.1678 -0.4510
 6134TIP3    H239818   3.507   1.568   2.275 -0.1811  0.2139 -0.1747
 6135TIP3   OH239819   4.440   5.279   2.679 -0.2596  0.1846  0.0322
 6135TIP3    H139820   4.411   5.341   2.612  0.4223  0.2337 -0.2284
 6135TIP3    H239821   4.511   5.230   2.637  1.2483  1.2724  1.2026
 6136TIP3   OH239822   4.068   0.299  14.022 -0.7163 -0.1058 -1.0003
 6136TIP3    H139823   4.157   0.275  13.998 -0.2256  1.1988 -0.5990
 6136TIP3    H239824   4.037   0.226  14.076  0.3221 -0.3183 -0.6692
 6137TIP3   OH239825   3.440   5.519   3.467  0.3584  0.8491 -0.3383
 6137TIP3    H139826   3.482   5.582   3.524 -2.0093 -0.0206  2.6274
 6137TIP3    H239827   3.355   5.559   3.445  0.0882 -0.0086 -0.9401
 6138TIP3   OH239828   1.977   1.744   5.597  0.3161 -0.5444  0.0348
 6138TIP3    H139829   1.945   1.666   5.551 -1.4721  1.0655 -1.6635
 6138TIP3    H239830   1.903   1.772   5.651  0.6297  0.4482 -0.0342
 6139TIP3   OH239831   2.787   6.162  13.781 -0.1599 -0.5766  0.0793
 6139TIP3    H139832   2.786   6.257  13.794 -1.4580 -0.6290  0.4956
 6139TIP3    H239833   2.814   6.150  13.690  0.1889  0.1774  0.0762
 6140TIP3   OH239834   4.732   4.450  12.899  0.1627  0.3558  0.2461
 6140TIP3    H139835   4.736   4.406  12.814 -1.0059 -0.2645  0.4992
 6140TIP3    H239836   4.641   4.477  12.909  0.6963  2.2486  0.4255
 6141TIP3   OH239837   3.161   5.905  17.055 -0.2681  0.1145  0.7412
 6141TIP3    H139838   3.100   5.979  17.060 -0.0621  0.3089  0.3839
 6141TIP3    H239839   3.160   5.867  17.143 -0.3953  0.5246  0.9192
 6142TIP3   OH239840   2.634   6.418   5.258  0.1644  0.2461 -0.5841
 6142TIP3    H139841   2.653   6.492   5.200 -0.3358 -0.8328 -2.1865
 6142TIP3    H239842   2.542   6.398   5.242  0.7915 -2.0218 -1.8058
 6143TIP3   OH239843   5.305   1.034  13.452 -0.5444 -0.2071  0.2983
 6143TIP3    H139844   5.275   0.976  13.382  0.2110 -1.9253  1.3332
 6143TIP3    H239845   5.234   1.034  13.516 -0.5821  0.1026  0.2590
 6144TIP3   OH239846   0.626   0.447   1.008  0.0384 -0.2404 -0.0756
 6144TIP3    H139847   0.547   0.400   1.037  0.0640 -0.2674 -0.0505
 6144TIP3    H239848   0.600   0.540   1.011  0.4213 -0.1573  1.2014
 6145TIP3   OH239849   2.848   2.136   1.586 -0.1747 -0.2389 -0.0007
 6145TIP3    H139850   2.801   2.169   1.510  0.8192  0.8230 -0.1911
 6145TIP3    H239851   2.787   2.077   1.629 -1.6176  0.9456 -0.3271
 6146TIP3   OH239852   4.760   2.228   0.343  0.0811  0.1868  0.2224
 6146TIP3    H139853   4.848   2.230   0.380  0.3773 -0.2550 -0.4352
 6146TIP3    H239854   4.709   2.287   0.398  0.2689 -1.1256  1.9012
 6147TIP3   OH239855   3.313   3.177   5.115  0.2208 -0.0341  0.2469
 6147TIP3    H139856   3.243   3.211   5.170 -0.7247 -0.2988 -0.7552
 6147TIP3    H239857   3.288   3.200   5.026  2.0016  0.8771 -0.0669
 6148TIP3   OH239858   2.416   5.745   0.578 -0.4627 -0.7359 -0.0026
 6148TIP3    H139859   2.464   5.703   0.506  1.3449  1.3499 -0.1430
 6148TIP3    H239860   2.324   5.737   0.554  0.0213 -1.4766 -1.7484
 6149TIP3   OH239861   4.226   1.252   3.158  0.0467  0.1790  0.0434
 6149TIP3    H139862   4.133   1.242   3.177 -0.0237  0.1344 -0.3136
 6149TIP3    H239863   4.235   1.224   3.066 -0.0704  2.8128 -0.8441
 6150TIP3   OH239864   5.007   2.115   2.074  0.1689  0.2091 -0.5284
 6150TIP3    H139865   5.081   2.174   2.090 -1.3471  1.9147  0.6233
 6150TIP3    H239866   4.933   2.157   2.118 -0.7396 -3.2607  1.6475
 6151TIP3   OH239867   2.751   2.436  16.573 -0.1003 -0.0477 -0.0639
 6151TIP3    H139868   2.743   2.345  16.545 -0.2579  0.4283 -1.6773
 6151TIP3    H239869   2.811   2.434  16.647  1.8419 -1.2256 -1.5950
 6152TIP3   OH239870   4.105   4.392  13.052 -0.5160  0.4133 -0.3097
 6152TIP3    H139871   4.023   4.440  13.056 -1.2424 -0.5965 -1.9823
 6152TIP3    H239872   4.114   4.351  13.138  0.5931  4.0991  1.5292
 6153TIP3   OH239873   6.342   5.737   3.724  0.5594 -0.0493 -0.1024
 6153TIP3    H139874   6.424   5.693   3.702  1.1173  1.0174 -0.2232
 6153TIP3    H239875   6.289   5.730   3.644  0.8425 -0.0619 -0.2908
 6154TIP3   OH239876   5.737   6.652  16.812 -0.3331 -0.4420 -0.2828
 6154TIP3    H139877   5.685   6.627  16.887  0.1611 -0.6562 -0.0081
 6154TIP3    H239878   5.685   6.720  16.768 -0.0363  0.6417  0.9849
 6155TIP3   OH239879   5.343   1.328  14.438  0.2637 -0.0328  0.0327
 6155TIP3    H139880   5.318   1.355  14.350 -0.8364 -0.4069  0.2122
 6155TIP3    H239881   5.370   1.409  14.481  0.0693  0.2742 -0.4104
 6156TIP3   OH239882   0.533   5.979  13.774 -0.2126  0.4599 -0.1620
 6156TIP3    H139883   0.562   6.011  13.860  1.1250  1.4003 -0.9168
 6156TIP3    H239884   0.569   5.891  13.768 -1.2819 -0.0553  0.6812
 6157TIP3   OH239885   0.631   1.269   5.608 -0.4472  0.3172 -0.1397
 6157TIP3    H139886   0.588   1.202   5.554 -0.5068  0.3813 -0.1716
 6157TIP3    H239887   0.572   1.282   5.682  0.0740 -0.4425  0.4270
 6158TIP3   OH239888   5.091   6.234   1.952 -0.4244  0.2679 -0.3541
 6158TIP3    H139889   5.160   6.167   1.955 -0.4141  0.3143  1.5994
 6158TIP3    H239890   5.011   6.184   1.936 -0.3601 -0.1844  0.6802
 6159TIP3   OH239891   4.655   2.115  16.992  0.2640  0.4696  0.0119
 6159TIP3    H139892   4.705   2.048  16.946  0.3548 -0.6118  1.6103
 6159TIP3    H239893   4.668   2.095  17.085 -0.1383  2.3976  0.5300
 6160TIP3   OH239894   4.010   3.224   4.945 -0.3559  0.2340 -0.0333
 6160TIP3    H139895   3.927   3.238   4.899  0.5917  1.9382 -1.3699
 6160TIP3    H239896   4.053   3.155   4.895  0.1690  1.2671 -1.0528
 6161TIP3   OH239897   3.839   6.812   2.495 -0.1967 -0.4905  0.2534
 6161TIP3    H139898   3.748   6.801   2.467 -0.4292  0.2569  0.6668
 6161TIP3    H239899   3.834   6.875   2.568  0.9046  1.7758 -1.5023
 6162TIP3   OH239900   6.374   2.621   1.195 -0.0198  0.3842  0.0939
 6162TIP3    H139901   6.389   2.565   1.118  0.9081  1.0670 -0.2556
 6162TIP3    H239902   6.441   2.689   1.187  0.0913  0.4704  1.5178
 6163TIP3   OH239903   2.451   3.802   3.578  0.0670  0.6079 -0.2165
 6163TIP3    H139904   2.398   3.723   3.589  0.7629  0.0647 -0.6979
 6163TIP3    H239905   2.389   3.874   3.591 -0.2378  0.0238  2.1354
 6164TIP3   OH239906   6.267   0.837  17.045  0.4931  0.4170  0.1788
 6164TIP3    H139907   6.171   0.838  17.039  0.3179  1.2650  2.2645
 6164TIP3    H239908   6.286   0.760  17.099  0.8977  0.9591  0.8125
 6165TIP3   OH239909   6.506   2.043   2.508 -0.1265  0.6365 -0.1555
 6165TIP3    H139910   6.448   1.980   2.551  2.6701 -0.9930  1.5727
 6165TIP3    H239911   6.479   2.128   2.543 -1.5627 -0.0202  0.4256
 6166TIP3   OH239912   5.151   3.030   1.744 -0.3488  0.1392 -0.1354
 6166TIP3    H139913   5.133   3.108   1.797 -1.5831  0.5701 -1.1320
 6166TIP3    H239914   5.193   2.969   1.805  0.7372  1.5940  0.6439
 6167TIP3   OH239915   6.156   1.586   1.641 -0.3722  0.0543  0.0930
 6167TIP3    H139916   6.199   1.590   1.726  0.3759 -0.2919 -0.2616
 6167TIP3    H239917   6.131   1.494   1.632  0.4301 -0.1200 -0.4771
 6168TIP3   OH239918   5.290   0.792   4.790 -0.4171 -0.1383  0.0275
 6168TIP3    H139919   5.298   0.887   4.802  3.5178 -0.2463 -0.4122
 6168TIP3    H239920   5.246   0.761   4.869  1.0786  1.7761  1.6990
 6169TIP3   OH239921   3.016   3.924  16.590 -0.4865  0.4968  0.5721
 6169TIP3    H139922   3.032   3.999  16.533 -0.0620  0.1653  0.2472
 6169TIP3    H239923   3.027   3.959  16.679  3.8292  0.0670  0.4575
 6170TIP3   OH239924   2.255   5.306  12.686 -0.4582  0.0493  0.2583
 6170TIP3    H139925   2.347   5.278  12.685  0.4130  2.5318  1.1721
 6170TIP3    H239926   2.242   5.340  12.775 -2.7907 -1.6295  0.6606
 6171TIP3   OH239927   1.463   3.425  14.125  0.3210 -0.4046 -0.6552
 6171TIP3    H139928   1.409   3.348  14.108  0.6343 -1.7493  3.3275
 6171TIP3    H239929   1.413   3.475  14.189  1.7014  0.8543 -0.5229
 6172TIP3   OH239930   0.447   4.651   3.795 -0.1831  0.6091 -0.2036
 6172TIP3    H139931   0.468   4.566   3.757  0.2734  0.1231  1.1026
 6172TIP3    H239932   0.352   4.658   3.788 -0.1405  0.3991 -1.1244
 6173TIP3   OH239933   1.554   4.711  11.341 -0.8431 -0.4427 -0.2926
 6173TIP3    H139934   1.531   4.654  11.415  1.6944 -0.0563  0.8890
 6173TIP3    H239935   1.580   4.651  11.271 -0.9364 -0.7634 -0.0526
 6174TIP3   OH239936   0.643   3.409   2.501 -0.4445  0.5569 -0.0621
 6174TIP3    H139937   0.664   3.472   2.569 -2.5243 -0.2687  1.4269
 6174TIP3    H239938   0.603   3.461   2.431 -1.5854  0.9927  0.8885
 6175TIP3   OH239939   2.020   4.062   0.579  0.0296  0.3594  0.3602
 6175TIP3    H139940   2.049   3.996   0.641  1.5920  1.3868  0.7954
 6175TIP3    H239941   2.049   4.030   0.493  0.4879  0.2989  0.5316
 6176TIP3   OH239942   2.373   6.166   2.923 -0.6938  0.1710 -0.5920
 6176TIP3    H139943   2.361   6.254   2.888 -0.5852  0.4643  0.0979
 6176TIP3    H239944   2.466   6.161   2.946 -1.0726  0.5802  1.1944
 6177TIP3   OH239945   0.126   5.757  11.296  0.0894  0.3083  0.5554
 6177TIP3    H139946   0.080   5.832  11.335  2.1133  1.9939 -0.0928
 6177TIP3    H239947   0.218   5.784  11.295  0.7042 -1.6533 -0.9852
 6178TIP3   OH239948   3.612   0.753  16.322  0.4886  0.4558  0.0457
 6178TIP3    H139949   3.639   0.755  16.414  1.4608  1.5180 -0.2491
 6178TIP3    H239950   3.607   0.844  16.296 -0.5310  0.1872 -0.7650
 6179TIP3   OH239951   6.573   2.701   3.010 -0.1468 -0.6696 -0.2700
 6179TIP3    H139952   6.636   2.633   2.988 -1.0228 -0.6109 -3.4446
 6179TIP3    H239953   6.574   2.761   2.935 -1.4381  1.2814  1.1547
 6180TIP3   OH239954   5.792   0.394  13.183 -0.3412  0.3144  0.6154
 6180TIP3    H139955   5.865   0.453  13.202  1.0223 -0.4030 -1.9228
 6180TIP3    H239956   5.719   0.452  13.163  0.3209  1.1139  0.4405
 6181TIP3   OH239957   2.907   3.353  12.357  0.2569  0.0541 -0.0454
 6181TIP3    H139958   2.891   3.315  12.271  1.3269 -0.2754 -0.1164
 6181TIP3    H239959   2.972   3.421  12.342  1.5719 -0.9788  0.6716
 6182TIP3   OH239960   4.951   5.109  16.601  0.4410  0.3665  0.5669
 6182TIP3    H139961   4.908   5.049  16.540  0.2789 -0.8497  1.8176
 6182TIP3    H239962   4.883   5.134  16.663  0.4521  2.0669 -0.0496
 6183TIP3   OH239963   2.603   2.780  12.471  0.6598  0.0460 -0.1882
 6183TIP3    H139964   2.614   2.702  12.415 -2.6802 -1.7320  1.3165
 6183TIP3    H239965   2.532   2.829  12.429 -1.0845 -0.7177  1.6733
 6184TIP3   OH239966   5.695   6.339  16.336 -0.3466  0.2747  0.5724
 6184TIP3    H139967   5.668   6.411  16.394  2.1978  1.5591  0.3085
 6184TIP3    H239968   5.753   6.285  16.390 -0.8555 -0.6079  0.2548
 6185TIP3   OH239969   3.712   2.185  10.381  0.5025  0.0151 -0.3438
 6185TIP3    H139970   3.630   2.156  10.340 -0.1850  0.4799  0.6629
 6185TIP3    H239971   3.764   2.105  10.389 -1.3870 -1.0908  2.4511
 6186TIP3   OH239972   5.574   6.009   2.810  0.2692 -0.0632 -0.1678
 6186TIP3    H139973   5.531   6.013   2.896 -1.6309  0.8496 -1.0918
 6186TIP3    H239974   5.584   6.101   2.785 -0.5709 -0.3167 -1.5357
 6187TIP3   OH239975   6.678   6.408   4.316 -0.4978  0.2638 -0.1588
 6187TIP3    H139976   6.713   6.334   4.366  1.0321  0.9964 -0.1051
 6187TIP3    H239977   6.636   6.367   4.240  1.5057 -0.6480 -0.8468
 6188TIP3   OH239978   5.657   1.065  15.455  0.1226 -0.3019  0.9461
 6188TIP3    H139979   5.627   0.986  15.500 -0.5631  1.3950  3.6772
 6188TIP3    H239980   5.579   1.098  15.410 -0.0476 -0.2334  1.2891
 6189TIP3   OH239981   0.451   4.864  15.720  0.1024  0.3584 -0.2891
 6189TIP3    H139982   0.408   4.797  15.667 -1.1651  0.1546  0.9530
 6189TIP3    H239983   0.466   4.822  15.805  0.3500  1.2816  0.1405
 6190TIP3   OH239984   3.000   2.714   4.134  0.1411 -0.0015  0.0860
 6190TIP3    H139985   2.949   2.763   4.199 -0.4574 -0.3279 -0.1212
 6190TIP3    H239986   3.081   2.763   4.124 -0.5345  1.0802 -0.2857
 6191TIP3   OH239987   3.617   1.786   5.521 -0.3099 -0.1353  0.4846
 6191TIP3    H139988   3.695   1.740   5.552  0.8265  1.0495 -0.4894
 6191TIP3    H239989   3.559   1.716   5.491 -0.5802 -1.1763  3.1956
 6192TIP3   OH239990   3.015   6.255   3.684 -0.4369  0.1389 -0.7953
 6192TIP3    H139991   3.074   6.192   3.725 -0.2351 -0.0188 -1.3205
 6192TIP3    H239992   3.046   6.262   3.594 -1.5199 -0.3144 -1.2115
 6193TIP3   OH239993   2.441   4.438   1.966 -0.0780 -0.0985 -0.0336
 6193TIP3    H139994   2.504   4.501   1.933 -0.3283  0.1585 -0.0196
 6193TIP3    H239995   2.370   4.439   1.902  1.2100 -2.5503 -1.7037
 6194TIP3   OH239996   2.702   6.761  13.602 -0.3388  0.3976 -0.0927
 6194TIP3    H139997   2.624   6.748  13.657  0.2136  0.4936  0.7251
 6194TIP3    H239998   2.773   6.724  13.653  0.5464  2.4082  0.2326
 6195TIP3   OH239999   2.437   2.682  15.174  0.5578  0.2853 -0.0031
 6195TIP3    H140000   2.483   2.598  15.180 -0.1093 -0.0559  0.5823
 6195TIP3    H240001   2.486   2.741  15.230  0.3743 -0.0386  0.5081
 6196TIP3   OH240002   5.460   4.538  16.829 -0.1895 -0.1515  0.4113
 6196TIP3    H140003   5.422   4.578  16.751 -1.0294  0.3758  1.0791
 6196TIP3    H240004   5.532   4.596  16.854 -0.7936  0.4202  0.8219
 6197TIP3   OH240005   0.054   4.543  11.950  0.2011  0.0145  0.0928
 6197TIP3    H140006  -0.013   4.610  11.963  0.1670 -0.2932  1.6790
 6197TIP3    H240007   0.048   4.487  12.027  2.2625 -0.0566  0.2595
 6198TIP3   OH240008   3.979   0.280  14.862 -0.3060  0.0167  0.1572
 6198TIP3    H140009   3.922   0.209  14.831  1.6019 -0.6393 -2.1197
 6198TIP3    H240010   4.021   0.245  14.940  1.5148 -1.9807 -1.5854
 6199TIP3   OH240011   2.377   4.175   4.453 -0.2101 -0.1626 -0.0507
 6199TIP3    H140012   2.404   4.264   4.477 -1.1856 -0.2010  1.3405
 6199TIP3    H240013   2.458   4.124   4.454  0.3839  0.7293 -1.0246
 6200TIP3   OH240014   5.123   2.417   1.833  0.5526  0.3207 -0.0420
 6200TIP3    H140015   5.093   2.413   1.924 -1.7685 -0.5339 -0.7724
 6200TIP3    H240016   5.196   2.356   1.829  0.2076 -0.1953  1.0880
 6201TIP3   OH240017   2.975   4.223   1.305 -0.2953  0.4249 -0.1638
 6201TIP3    H140018   2.888   4.225   1.343 -1.2185  0.3163 -2.1331
 6201TIP3    H240019   3.020   4.298   1.344 -0.7079 -0.3852  2.0108
 6202TIP3   OH240020   4.904   6.641  13.630 -0.2470 -0.5623  0.0508
 6202TIP3    H140021   4.910   6.581  13.556 -1.1595  0.5516 -0.9608
 6202TIP3    H240022   4.852   6.714  13.598 -1.2440 -0.3468  2.0005
 6203TIP3   OH240023   0.077   5.263  16.692  0.5345 -0.2441 -1.2699
 6203TIP3    H140024   0.079   5.179  16.737  0.6909 -0.0102 -0.8368
 6203TIP3    H240025   0.167   5.276  16.662  0.3421 -0.5939 -2.0162
 6204TIP3   OH240026   3.304   5.677   2.492  0.6170  0.1320  0.4480
 6204TIP3    H140027   3.266   5.753   2.447 -1.3913 -0.3216  1.2684
 6204TIP3    H240028   3.294   5.605   2.430  1.6111  0.3184  0.0576
 6205TIP3   OH240029   3.842   6.053  11.612 -0.0959  0.0966 -0.4539
 6205TIP3    H140030   3.884   6.043  11.697  0.8544 -0.2522 -0.9456
 6205TIP3    H240031   3.771   6.115  11.627  0.6161  0.7261  0.4135
 6206TIP3   OH240032   0.613   5.922  16.320 -0.0293 -0.3688 -0.3476
 6206TIP3    H140033   0.706   5.936  16.337  0.4302 -0.2993 -2.5412
 6206TIP3    H240034   0.575   5.902  16.405  2.3377 -2.3316  0.3516
 6207TIP3   OH240035   4.860   2.584   4.236 -0.3972  0.4820 -0.3832
 6207TIP3    H140036   4.770   2.550   4.238 -0.8167  1.5822  0.1101
 6207TIP3    H240037   4.897   2.556   4.320  0.4563 -1.7853 -1.4186
 6208TIP3   OH240038   3.925   3.794  14.137 -0.1239 -0.5015  0.4725
 6208TIP3    H140039   3.852   3.756  14.187 -0.5242 -1.2928 -0.6485
 6208TIP3    H240040   3.893   3.793  14.046 -0.2757  2.8695  0.3945
 6209TIP3   OH240041   3.896   2.085   5.008  0.1799  0.5248 -0.1706
 6209TIP3    H140042   3.926   2.078   4.917  1.0410  1.9087 -0.0245
 6209TIP3    H240043   3.938   2.011   5.052  0.1740  0.1459 -0.7758
 6210TIP3   OH240044   4.199   6.237  14.493  0.7459  0.5165  0.7839
 6210TIP3    H140045   4.109   6.240  14.524  1.4043 -1.0988  3.1179
 6210TIP3    H240046   4.193   6.197  14.406 -0.8676  1.9908  0.1482
 6211TIP3   OH240047   3.876   5.510   6.000  0.1556  0.0934 -0.0199
 6211TIP3    H140048   3.955   5.459   6.020  0.5979  0.9230  0.4227
 6211TIP3    H240049   3.809   5.473   6.056  1.0705  1.5381  2.1894
 6212TIP3   OH240050   1.807   5.468  11.125  0.0241  0.1984  0.0924
 6212TIP3    H140051   1.863   5.544  11.139 -1.0248  1.2415 -1.2047
 6212TIP3    H240052   1.781   5.472  11.033 -0.3033 -1.5768  0.0555
 6213TIP3   OH240053   6.479   5.670   2.871 -0.4544  0.2861 -0.0662
 6213TIP3    H140054   6.394   5.703   2.843  0.2164  0.4839 -2.0080
 6213TIP3    H240055   6.542   5.735   2.839  0.4773 -0.1724  0.7853
 6214TIP3   OH240056   6.491   1.910  15.169  0.3235 -0.2914 -0.0484
 6214TIP3    H140057   6.564   1.942  15.117 -0.4325  0.8991 -0.3994
 6214TIP3    H240058   6.457   1.835  15.119 -0.4858  0.9227 -1.3944
 6215TIP3   OH240059   6.129   3.037   2.951  0.0900 -0.1975 -0.6537
 6215TIP3    H140060   6.184   3.055   2.875  0.4169  1.2167 -0.1130
 6215TIP3    H240061   6.069   2.968   2.922  0.4484  0.0566 -2.0622
 6216TIP3   OH240062   2.084   0.958  15.380  0.0445  0.6651  0.6852
 6216TIP3    H140063   2.129   0.894  15.434 -1.4812 -0.2725  0.8877
 6216TIP3    H240064   2.115   1.043  15.412  0.1584  0.0942  2.1338
 6217TIP3   OH240065   5.440   3.406  15.695 -0.3150  0.2063  0.0590
 6217TIP3    H140066   5.468   3.337  15.754  0.5100 -0.1852 -0.7644
 6217TIP3    H240067   5.450   3.369  15.607 -0.7847  1.0296 -0.3641
 6218TIP3   OH240068   0.820   3.708  16.501 -0.0745  0.4513  0.1227
 6218TIP3    H140069   0.764   3.768  16.452  0.9076  1.0015 -0.3368
 6218TIP3    H240070   0.905   3.751  16.506  0.7580 -1.0328 -0.4997
 6219TIP3   OH240071   6.814   6.191  12.223  0.0464  0.1406 -0.2230
 6219TIP3    H140072   6.849   6.192  12.312 -0.4579 -1.2572  0.0243
 6219TIP3    H240073   6.849   6.110  12.184 -1.8436 -0.6702 -0.3632
 6220TIP3   OH240074   1.270   1.191   6.851 -0.0269 -0.0073 -0.0892
 6220TIP3    H140075   1.355   1.235   6.857  0.4742 -1.0191  0.5872
 6220TIP3    H240076   1.285   1.120   6.788 -0.7038  0.4865 -0.8337
 6221TIP3   OH240077   1.516   5.799   0.008  0.4130 -0.4604  0.2871
 6221TIP3    H140078   1.598   5.813   0.056  0.5078 -0.1314  0.0296
 6221TIP3    H240079   1.470   5.732   0.059  0.9470 -0.8223  0.3090
 6222TIP3   OH240080   3.642   2.248   1.697 -0.3343  0.2132  0.3718
 6222TIP3    H140081   3.721   2.299   1.716 -0.5818  0.3988  0.9192
 6222TIP3    H240082   3.584   2.309   1.653  0.1580 -0.1607 -0.8312
 6223TIP3   OH240083   0.482   5.077   4.673  0.0594  0.2443 -0.5783
 6223TIP3    H140084   0.470   4.984   4.650 -1.9114  0.8624 -2.3339
 6223TIP3    H240085   0.403   5.100   4.721 -0.7736  1.6414 -2.5014
 6224TIP3   OH240086   2.194   3.576   2.638 -0.2039 -0.3444 -0.2196
 6224TIP3    H140087   2.142   3.574   2.718  2.2246  0.5519  1.4810
 6224TIP3    H240088   2.271   3.522   2.656  0.4579 -0.0492 -1.9065
 6225TIP3   OH240089   5.390   1.136  13.943  0.4761  0.5137 -0.5292
 6225TIP3    H140090   5.301   1.099  13.942  1.1959 -1.3517 -0.7204
 6225TIP3    H240091   5.434   1.093  13.870  2.4957 -1.2791  1.5884
 6226TIP3   OH240092   5.208   6.504  14.050  0.1108  0.4696 -0.4434
 6226TIP3    H140093   5.238   6.568  14.114 -1.3981  1.6785 -0.8686
 6226TIP3    H240094   5.146   6.449  14.098  1.0023 -0.3696 -0.2170
 6227TIP3   OH240095   6.105   2.147  15.008 -0.0881 -0.0529  0.4469
 6227TIP3    H140096   6.142   2.110  14.927 -0.6129 -0.3451  0.3353
 6227TIP3    H240097   6.012   2.124  15.004 -0.4911  1.4987  0.2521
 6228TIP3   OH240098   6.498   1.858  13.589  0.2964  0.3264  0.2624
 6228TIP3    H140099   6.534   1.801  13.657  0.9343 -0.8063 -0.9742
 6228TIP3    H240100   6.424   1.902  13.631  1.1276  0.2338  1.8927
 6229TIP3   OH240101   2.971   4.531  16.849 -0.3570  0.4679  0.0349
 6229TIP3    H140102   3.059   4.492  16.854 -1.0860 -1.2794 -0.1540
 6229TIP3    H240103   2.949   4.552  16.939  0.2342  0.8992  0.0881
 6230TIP3   OH240104   5.946   4.252   0.289  0.2218 -0.6314  0.2020
 6230TIP3    H140105   5.910   4.167   0.263 -0.3815 -0.3861  0.2185
 6230TIP3    H240106   5.882   4.316   0.256  0.2712 -0.2306  0.8711
 6231TIP3   OH240107   4.743   3.051  13.788 -0.4175 -0.2093 -0.1096
 6231TIP3    H140108   4.652   3.055  13.816 -0.2469  0.0422  0.4207
 6231TIP3    H240109   4.759   3.135  13.745 -0.0436  0.3562  1.0630
 6232TIP3   OH240110   6.129   0.849   3.771 -0.2741  0.4839  0.1305
 6232TIP3    H140111   6.175   0.770   3.742  0.2767  0.8463  0.0032
 6232TIP3    H240112   6.187   0.921   3.746 -0.6980  0.9208  0.3909
 6233TIP3   OH240113   0.078   3.298   2.705  0.4768 -0.0219  0.0478
 6233TIP3    H140114   0.139   3.279   2.633 -0.0842 -0.7334 -0.2447
 6233TIP3    H240115   0.030   3.376   2.675  0.6994  0.0742 -0.0633
 6234TIP3   OH240116   0.469   4.999   4.322 -0.3276 -0.0433 -0.6709
 6234TIP3    H140117   0.463   4.940   4.397 -0.8994 -0.5004 -1.0640
 6234TIP3    H240118   0.514   4.947   4.255 -0.0212  0.2845 -0.7228
 6235TIP3   OH240119   4.318   2.976   4.987  0.1284 -0.0508  0.0558
 6235TIP3    H140120   4.223   2.964   4.974  0.0914 -0.0748  0.3581
 6235TIP3    H240121   4.349   2.889   5.012  0.4851 -0.4281 -1.5582
 6236TIP3   OH240122   0.643   4.567   1.406  0.0311 -0.2400 -0.0378
 6236TIP3    H140123   0.578   4.497   1.410 -2.6312  2.1165  0.8535
 6236TIP3    H240124   0.681   4.569   1.494 -1.0512  0.4053  0.4361
 6237TIP3   OH240125   3.712   4.983  12.233  0.3745  0.2224 -0.5647
 6237TIP3    H140126   3.636   5.029  12.198  0.1788  0.0037 -0.4296
 6237TIP3    H240127   3.678   4.898  12.260  0.7579 -0.0388 -0.9127
 6238TIP3   OH240128   6.615   2.721  15.699  0.2220  0.2992  0.0417
 6238TIP3    H140129   6.704   2.686  15.709 -0.4053 -1.9040 -1.3383
 6238TIP3    H240130   6.627   2.799  15.646  1.3923  0.3635  0.3627
 6239TIP3   OH240131   2.820   0.688  11.883 -1.1594  0.1169 -0.0789
 6239TIP3    H140132   2.900   0.733  11.854 -1.6229 -0.7871 -3.1247
 6239TIP3    H240133   2.850   0.603  11.914 -0.8664  0.0233 -0.6115
 6240TIP3   OH240134   3.170   2.185  14.421  0.1743 -0.1477  0.4441
 6240TIP3    H140135   3.127   2.267  14.396  1.5084  0.5698  0.4530
 6240TIP3    H240136   3.198   2.147  14.338  1.5761  0.5553  0.5655
 6241TIP3   OH240137   6.157   1.480  15.375  0.3894 -0.2677 -0.3446
 6241TIP3    H140138   6.218   1.526  15.434  0.4928 -0.3283 -0.4037
 6241TIP3    H240139   6.138   1.399  15.421 -0.9387  0.4583  0.4485
 6242TIP3   OH240140   1.917   6.599   6.370 -0.2546 -0.4241  0.1797
 6242TIP3    H140141   1.870   6.532   6.322  0.3788 -0.3781 -0.5265
 6242TIP3    H240142   1.945   6.556   6.451  0.5709 -1.1717 -0.4847
 6243TIP3   OH240143   4.672   0.909   5.019 -0.1567  0.1444  0.0073
 6243TIP3    H140144   4.723   0.849   4.965  0.3280  1.9694 -1.6543
 6243TIP3    H240145   4.584   0.870   5.022 -0.0030 -0.3656 -1.4946
 6244TIP3   OH240146   5.755   0.106  12.213 -0.3131 -0.2622 -0.4123
 6244TIP3    H140147   5.765   0.053  12.134  0.8997  0.1088 -0.5254
 6244TIP3    H240148   5.723   0.044  12.279  0.2087 -0.9376 -0.7781
 6245TIP3   OH240149   6.113   0.884  16.723  0.1995 -0.4996  0.4232
 6245TIP3    H140150   6.075   0.931  16.649  1.6123  0.9336  0.5527
 6245TIP3    H240151   6.191   0.841  16.687  0.3698 -0.5763  0.8716
 6246TIP3   OH240152   6.034   0.275  16.230 -0.6853  0.0913  0.1701
 6246TIP3    H140153   6.057   0.360  16.268 -0.3203 -0.1994  0.6175
 6246TIP3    H240154   6.106   0.254  16.171 -0.1147 -0.5030  1.0520
 6247TIP3   OH240155   4.213   5.359  14.840  0.4831  0.0943  0.3138
 6247TIP3    H140156   4.187   5.306  14.764  0.2981  0.0459  0.4107
 6247TIP3    H240157   4.298   5.324  14.865  0.5108  0.0601  0.1734
 6248TIP3   OH240158   1.325   1.017  15.130  0.5700 -0.5853  0.0927
 6248TIP3    H140159   1.357   1.099  15.167  0.3634 -1.5936  2.7387
 6248TIP3    H240160   1.396   0.987  15.073  1.8163  0.1506  1.1867
 6249TIP3   OH240161   5.202   5.328  15.593 -0.8063 -0.4095 -0.4278
 6249TIP3    H140162   5.252   5.288  15.521 -1.4376 -1.1161 -0.4860
 6249TIP3    H240163   5.194   5.420  15.568 -1.3416 -0.7185 -1.4618
 6250TIP3   OH240164   3.995   5.969  14.690 -0.4760  0.6156  0.7114
 6250TIP3    H140165   3.941   5.897  14.660  0.0535 -0.2088  1.6658
 6250TIP3    H240166   3.958   5.992  14.776  0.9054 -0.2553  1.5805
 6251TIP3   OH240167   2.793   5.058  15.851 -0.2260 -0.3192  0.3155
 6251TIP3    H140168   2.738   4.998  15.901 -1.5729  0.7869  0.2063
 6251TIP3    H240169   2.744   5.140  15.848 -0.6060 -0.4966 -3.4494
 6252TIP3   OH240170   1.256   2.839  11.974  0.1103 -0.1138  0.2600
 6252TIP3    H140171   1.320   2.897  11.934  0.0349  0.6662  1.2383
 6252TIP3    H240172   1.300   2.806  12.053 -0.6860  0.4383  0.9472
 6253TIP3   OH240173   3.895   3.984   0.179  0.4480  0.0270 -0.5038
 6253TIP3    H140174   3.832   4.046   0.142  0.5942  0.4560 -0.0525
 6253TIP3    H240175   3.938   4.033   0.249  0.5191 -0.6094 -0.0922
 6254TIP3   OH240176   5.867   5.629  11.761  0.3694  0.4653 -0.0944
 6254TIP3    H140177   5.900   5.682  11.834  0.6722  0.2300 -0.0567
 6254TIP3    H240178   5.867   5.688  11.686  1.9604  0.1793 -0.3579
 6255TIP3   OH240179   0.385   2.154   0.042 -0.0272  0.2357  0.3196
 6255TIP3    H140180   0.440   2.085   0.078  0.2192  0.5645  0.5914
 6255TIP3    H240181   0.340   2.191   0.119 -2.7576 -1.8153 -0.1769
 6256TIP3   OH240182   1.228   3.221  15.144  0.2993  0.1872 -0.0319
 6256TIP3    H140183   1.243   3.307  15.183  1.0055 -0.1817  0.5254
 6256TIP3    H240184   1.139   3.197  15.171 -0.0273  0.8775 -0.4638
 6257TIP3   OH240185   6.705   3.380   3.619  0.3168 -0.0443  0.0586
 6257TIP3    H140186   6.618   3.362   3.584  0.0728 -0.5794  0.9073
 6257TIP3    H240187   6.748   3.295   3.621  0.3137 -0.0318  1.0607
 6258TIP3   OH240188   2.912   0.105  16.091 -0.4523 -0.0241  0.1194
 6258TIP3    H140189   2.856   0.139  16.161 -1.2715 -3.1766  1.1749
 6258TIP3    H240190   2.857   0.110  16.013 -1.3209 -0.7360  0.6535
 6259TIP3   OH240191   1.297   4.417  10.630  0.5700 -0.0158 -0.2301
 6259TIP3    H140192   1.262   4.350  10.572 -0.4954 -0.4906  0.8941
 6259TIP3    H240193   1.374   4.376  10.671  1.0108  0.1324 -0.8969
 6260TIP3   OH240194   0.063   2.352   5.288  0.1302  0.3353 -0.2993
 6260TIP3    H140195  -0.031   2.363   5.270  0.3637  0.6666 -1.3875
 6260TIP3    H240196   0.099   2.440   5.278  0.7705 -0.0257 -1.2489
 6261TIP3   OH240197   5.127   4.679   2.935  0.7188 -0.1513 -0.2960
 6261TIP3    H140198   5.194   4.722   2.882  1.0861  0.7860  0.8776
 6261TIP3    H240199   5.104   4.600   2.886  1.9165  0.0534 -1.2311
 6262TIP3   OH240200   2.678   2.852   6.737  0.6456 -0.5309  0.3161
 6262TIP3    H140201   2.739   2.780   6.751 -0.0516 -0.8556  1.9326
 6262TIP3    H240202   2.595   2.810   6.715  1.0314 -0.0842 -2.3703
 6263TIP3   OH240203   6.530   0.419  12.535 -0.5370 -0.0427 -0.4235
 6263TIP3    H140204   6.482   0.407  12.616 -0.6307  1.6703 -0.1951
 6263TIP3    H240205   6.619   0.388  12.555 -0.2478  1.4187  0.7185
 6264TIP3   OH240206   2.403   4.325   2.896 -0.6656  0.4134 -0.1411
 6264TIP3    H140207   2.459   4.389   2.940  1.3249 -0.3299 -1.4861
 6264TIP3    H240208   2.314   4.360   2.908  0.2461  2.9467 -0.0623
 6265TIP3   OH240209   0.090   2.498  13.206  0.5634  0.3147  0.0221
 6265TIP3    H140210   0.106   2.489  13.300 -2.4331 -0.4461  0.5531
 6265TIP3    H240211   0.100   2.592  13.189  1.0253  0.4786  1.1057
 6266TIP3   OH240212   0.857   0.226   0.773  0.2813  0.1193 -0.0332
 6266TIP3    H140213   0.798   0.153   0.794 -0.0542  0.0736 -1.0739
 6266TIP3    H240214   0.930   0.184   0.727  0.2466  0.3899 -0.3403
 6267TIP3   OH240215   0.610   6.814  13.824  0.1266 -0.1508  0.2594
 6267TIP3    H140216   0.685   6.873  13.833 -0.2171  0.4857 -0.9239
 6267TIP3    H240217   0.534   6.871  13.820 -0.2133 -0.6515 -0.8704
 6268TIP3   OH240218   2.619   2.121  16.631 -0.3215 -0.6861  0.6057
 6268TIP3    H140219   2.578   2.045  16.589 -2.1186 -0.4285  1.7738
 6268TIP3    H240220   2.631   2.094  16.723  2.6363 -0.9017  0.2341
 6269TIP3   OH240221   1.166   6.656  11.778  0.2109 -0.0291  0.6699
 6269TIP3    H140222   1.120   6.713  11.716  0.9547  1.5605  1.5424
 6269TIP3    H240223   1.099   6.633  11.842 -0.2908 -0.8157 -0.1040
 6270TIP3   OH240224   5.050   1.698   1.508  0.7259 -0.3059  0.1442
 6270TIP3    H140225   5.058   1.612   1.549  1.9033 -0.0633  0.4418
 6270TIP3    H240226   5.083   1.760   1.572 -2.0940  0.6802  0.8231
 6271TIP3   OH240227   6.655   4.938   5.589  0.0217  0.0688 -0.1610
 6271TIP3    H140228   6.742   4.979   5.596  1.2954 -2.5004  0.0372
 6271TIP3    H240229   6.613   4.984   5.516  2.3831 -0.0180 -1.6981
 6272TIP3   OH240230   1.528   1.244   5.584 -0.3121  0.0980  0.1047
 6272TIP3    H140231   1.517   1.257   5.678 -1.2176  0.9304 -0.1079
 6272TIP3    H240232   1.470   1.171   5.563 -0.2760  0.0577  0.1416
 6273TIP3   OH240233   3.894   5.761   3.038  0.3866 -0.0321  0.1950
 6273TIP3    H140234   3.854   5.847   3.027 -0.4737 -0.3922  0.4508
 6273TIP3    H240235   3.988   5.778   3.035  0.2254  0.7058 -1.3384
 6274TIP3   OH240236   3.345   3.034  15.540  0.5536 -0.1497 -0.8335
 6274TIP3    H140237   3.275   3.082  15.584  0.8761  0.4448 -0.9596
 6274TIP3    H240238   3.341   3.065  15.449 -1.0402 -2.3879 -1.6396
 6275TIP3   OH240239   4.200   2.692   0.644  0.5999  0.0538  0.3821
 6275TIP3    H140240   4.240   2.607   0.626  0.3364  0.0954 -0.4158
 6275TIP3    H240241   4.247   2.753   0.588  1.3232  0.5842  1.5155
 6276TIP3   OH240242   0.845   4.238  13.325  0.7124  0.2608 -0.0203
 6276TIP3    H140243   0.790   4.269  13.397  1.6215  3.3003 -0.5167
 6276TIP3    H240244   0.920   4.297  13.324  2.8718 -2.2905 -0.8639
 6277TIP3   OH240245   5.345   4.590  13.498  0.6465  0.2121  0.0767
 6277TIP3    H140246   5.293   4.530  13.552  0.5882  0.1952  0.0022
 6277TIP3    H240247   5.344   4.550  13.411  0.3688  0.4729 -0.0390
 6278TIP3   OH240248   5.557   2.262  16.877 -0.4731 -0.1187 -0.0940
 6278TIP3    H140249   5.651   2.267  16.892  0.0444 -1.1466 -2.5121
 6278TIP3    H240250   5.542   2.318  16.800 -1.4131 -1.8061 -1.1880
 6279TIP3   OH240251   1.421   2.175  12.372 -0.0550  0.1384 -0.8315
 6279TIP3    H140252   1.485   2.138  12.311  0.0295 -1.1961  0.0322
 6279TIP3    H240253   1.442   2.135  12.456 -0.0536  2.0686  0.1493
 6280TIP3   OH240254   5.056   1.653  11.211 -0.3661 -0.6182  0.5624
 6280TIP3    H140255   5.082   1.716  11.143  1.8499 -1.2932  0.7135
 6280TIP3    H240256   5.053   1.569  11.167  2.3818 -1.2851  1.4555
 6281TIP3   OH240257   1.189   1.095   4.467 -0.5205  0.0597 -0.3948
 6281TIP3    H140258   1.259   1.043   4.429 -0.0092  0.0951  0.4700
 6281TIP3    H240259   1.109   1.045   4.450 -0.1759 -0.4290 -0.5835
 6282TIP3   OH240260   4.512   1.291   1.097 -0.8059  0.0455  0.0662
 6282TIP3    H140261   4.544   1.381   1.109 -0.4507 -0.0927  0.1748
 6282TIP3    H240262   4.468   1.270   1.179  0.3023 -0.3606  0.5724
 6283TIP3   OH240263   6.704   3.685   2.895 -0.1814 -0.2506 -0.2956
 6283TIP3    H140264   6.611   3.683   2.915 -0.2092 -1.6999 -0.4492
 6283TIP3    H240265   6.710   3.725   2.809 -0.5720  0.6851  0.1060
 6284TIP3   OH240266   1.066   2.430   3.687 -0.0469  0.7250  0.0471
 6284TIP3    H140267   1.095   2.402   3.774  0.9417 -0.9657 -0.7725
 6284TIP3    H240268   0.974   2.454   3.699 -0.0887 -0.0059  1.4372
 6285TIP3   OH240269   3.496   6.215  12.547 -0.2976  0.4662 -1.0476
 6285TIP3    H140270   3.579   6.262  12.544  1.1542 -1.6651  1.1479
 6285TIP3    H240271   3.513   6.133  12.501 -1.0829 -0.1086 -0.3532
 6286TIP3   OH240272   4.682   2.860   0.884 -0.0595 -0.3112 -0.1361
 6286TIP3    H140273   4.729   2.807   0.819  0.3077 -0.8476  0.5462
 6286TIP3    H240274   4.636   2.796   0.938 -1.5897  0.2054 -0.7783
 6287TIP3   OH240275   5.641   6.704  13.484  0.2578  0.0133  1.1618
 6287TIP3    H140276   5.723   6.725  13.438 -0.0326 -0.5050  0.3929
 6287TIP3    H240277   5.661   6.626  13.535  0.5542  0.5328  1.8449
 6288TIP3   OH240278   5.073   0.013  15.696  0.3954  0.0062 -0.2613
 6288TIP3    H140279   5.087   0.041  15.605  0.1381  0.1943 -0.2412
 6288TIP3    H240280   5.000   0.065  15.727 -0.9406 -1.5769 -0.6257
 6289TIP3   OH240281   6.159   4.931   3.820  0.8567 -0.2182 -0.6595
 6289TIP3    H140282   6.186   4.844   3.847 -1.3292 -1.0172 -0.7953
 6289TIP3    H240283   6.115   4.967   3.897 -1.6914 -0.8508 -1.7041
 6290TIP3   OH240284   1.881   5.855  13.757 -0.5653 -0.2384  0.0362
 6290TIP3    H140285   1.922   5.920  13.814  2.3816  0.5321 -2.6920
 6290TIP3    H240286   1.947   5.786  13.748 -0.6309 -0.0361 -2.8359
 6291TIP3   OH240287   4.146   6.399  16.909  0.1882  0.1002 -0.0950
 6291TIP3    H140288   4.121   6.367  16.822 -1.3487  0.4018  0.2110
 6291TIP3    H240289   4.129   6.493  16.906  2.4660  0.5630 -0.2292
 6292TIP3   OH240290   0.225   4.733  11.320 -0.5374  0.6204 -1.1260
 6292TIP3    H140291   0.205   4.640  11.332  0.6625  0.5981  1.4798
 6292TIP3    H240292   0.296   4.735  11.257  0.3320 -0.3835 -0.2158
 6293TIP3   OH240293   3.919   6.231   3.264  0.3778 -0.5093  0.0704
 6293TIP3    H140294   4.013   6.229   3.247  0.5095  1.4165  0.3163
 6293TIP3    H240295   3.906   6.169   3.336  1.3233 -1.3661 -0.4749
 6294TIP3   OH240296   1.313   4.634   0.367 -0.1510 -0.0702  0.5141
 6294TIP3    H140297   1.366   4.711   0.387  0.3511 -0.6937  1.6375
 6294TIP3    H240298   1.247   4.666   0.305  1.2764  0.8144 -0.6281
 6295TIP3   OH240299   5.616   2.438  12.195  0.3308  0.5398  0.3997
 6295TIP3    H140300   5.627   2.426  12.290  0.2645  0.9765  0.4630
 6295TIP3    H240301   5.634   2.352  12.158 -0.4976  0.1426  0.8826
 6296TIP3   OH240302   4.409   5.238  12.132  0.0757 -0.4933  0.5419
 6296TIP3    H140303   4.458   5.180  12.074 -0.5510  1.1898 -1.8038
 6296TIP3    H240304   4.469   5.311  12.149 -1.4073  1.5879 -2.3601
 6297TIP3   OH240305   5.868   4.927   5.772  0.5548  0.2344  0.2858
 6297TIP3    H140306   5.889   4.977   5.851  0.1461 -2.0213  1.9261
 6297TIP3    H240307   5.927   4.852   5.775  1.4518  0.7462 -2.3205
 6298TIP3   OH240308   2.757   5.399   0.740 -0.0093  0.0152 -0.0561
 6298TIP3    H140309   2.779   5.310   0.712  0.2310 -0.3323  1.1587
 6298TIP3    H240310   2.761   5.451   0.660  2.1977 -0.6049 -0.4252
 6299TIP3   OH240311   6.554   1.462  16.921 -0.0365  0.2719  0.3182
 6299TIP3    H140312   6.534   1.391  16.860  1.6182  0.5889 -0.6689
 6299TIP3    H240313   6.643   1.489  16.898  0.2216  1.1644  2.1600
 6300TIP3   OH240314   2.521   6.571   0.853 -0.4735  0.2770  0.6453
 6300TIP3    H140315   2.614   6.552   0.862 -0.3730  1.0703  1.5195
 6300TIP3    H240316   2.509   6.654   0.900 -1.9025 -0.6193  1.9432
 6301TIP3   OH240317   4.849   2.693  12.324  0.4325 -0.1568  0.1334
 6301TIP3    H140318   4.764   2.714  12.361  0.0403 -2.7010  0.9005
 6301TIP3    H240319   4.895   2.777  12.318 -2.2146  1.3359 -0.6331
 6302TIP3   OH240320   4.482   1.016  11.110 -0.6099 -0.1256  0.1506
 6302TIP3    H140321   4.500   0.945  11.172  1.9375 -1.0415 -1.4920
 6302TIP3    H240322   4.477   0.973  11.025  0.2229  1.5532 -0.7870
 6303TIP3   OH240323   6.507   0.914   2.486  0.1205  0.0707 -0.3057
 6303TIP3    H140324   6.539   0.999   2.458  0.3089  0.1032  0.0038
 6303TIP3    H240325   6.587   0.862   2.501  0.0877  0.5272  1.6524
 6304TIP3   OH240326   5.537   1.852   6.022  0.3192  0.2848 -0.0886
 6304TIP3    H140327   5.619   1.820   6.059 -0.0093 -1.4830 -0.7889
 6304TIP3    H240328   5.562   1.928   5.971  1.1089  1.3948  1.8281
 6305TIP3   OH240329   1.073   0.380   4.564  0.1613 -0.9381 -0.3444
 6305TIP3    H140330   1.078   0.425   4.648  0.9983 -0.4173 -0.6555
 6305TIP3    H240331   1.038   0.293   4.585 -0.4706 -0.5135  0.4121
 6306TIP3   OH240332   2.417   2.554  15.530 -0.0558 -0.1843 -0.2288
 6306TIP3    H140333   2.360   2.628  15.510 -0.9415  0.2514  3.2283
 6306TIP3    H240334   2.494   2.593  15.572 -0.2631 -1.1166  1.0983
 6307TIP3   OH240335   4.298   5.369  13.941  0.8212 -0.2537 -0.2605
 6307TIP3    H140336   4.277   5.459  13.963  1.0187 -0.4072  0.5818
 6307TIP3    H240337   4.367   5.345  14.003  0.7312 -0.9973 -0.4416
 6308TIP3   OH240338   1.413   0.901  16.672  0.5846  0.6108  0.2541
 6308TIP3    H140339   1.348   0.835  16.697  1.9912 -0.4941  1.1053
 6308TIP3    H240340   1.486   0.851  16.635  0.9348  1.8382 -0.8097
 6309TIP3   OH240341   4.568   6.051  13.706 -0.3319 -0.1341  0.4709
 6309TIP3    H140342   4.503   6.104  13.752  0.2380  1.1459 -0.1368
 6309TIP3    H240343   4.592   5.982  13.768 -1.8963 -0.3455  0.8818
 6310TIP3   OH240344   3.570   3.738  13.395 -0.4000 -0.3590  0.0675
 6310TIP3    H140345   3.501   3.788  13.439  0.6684 -1.1459  2.8356
 6310TIP3    H240346   3.537   3.649  13.393 -0.4230 -0.3415 -0.7949
 6311TIP3   OH240347   4.017   4.054  11.119  0.5173 -0.6967  0.6832
 6311TIP3    H140348   4.080   4.064  11.048 -3.4597  1.6761 -2.9541
 6311TIP3    H240349   4.037   4.126  11.178 -0.1448  1.5911 -1.7193
 6312TIP3   OH240350   0.077   1.240  15.508 -0.5340  0.2555 -0.4148
 6312TIP3    H140351   0.076   1.229  15.603 -0.1096  0.3880 -0.3928
 6312TIP3    H240352  -0.011   1.217  15.480 -1.2358  2.0128  0.2132
 6313TIP3   OH240353   2.486   5.256  13.103  0.0262  0.9023 -0.1350
 6313TIP3    H140354   2.392   5.247  13.086 -0.2474 -0.0448  1.5659
 6313TIP3    H240355   2.525   5.176  13.070 -0.1165  0.2860  1.1320
 6314TIP3   OH240356   1.787   3.546  10.835  0.0169 -0.2651 -0.3186
 6314TIP3    H140357   1.778   3.593  10.752  2.0678  0.5298 -0.1664
 6314TIP3    H240358   1.750   3.605  10.901  0.7052  0.2560 -0.3850
 6315TIP3   OH240359   4.103   6.258  13.167 -0.3164 -0.1103 -0.8518
 6315TIP3    H140360   4.025   6.268  13.112 -0.5687  0.6888 -0.3697
 6315TIP3    H240361   4.128   6.166  13.157 -0.2764  0.0376 -2.3909
 6316TIP3   OH240362   2.627   5.921   0.952  0.3087 -0.7409  0.6058
 6316TIP3    H140363   2.588   6.005   0.930 -1.9252 -1.3286  1.9184
 6316TIP3    H240364   2.625   5.871   0.871  1.5351  0.3939 -0.1485
 6317TIP3   OH240365   4.625   4.948   5.329  1.4997  0.7599  0.0577
 6317TIP3    H140366   4.696   4.889   5.353  0.9937  0.3690  0.6394
 6317TIP3    H240367   4.549   4.891   5.316  0.7052  1.3387  1.7581
 6318TIP3   OH240368   0.675   1.913  12.336 -0.1661  0.2371  0.5987
 6318TIP3    H140369   0.762   1.952  12.327  0.1888 -0.8821 -1.4122
 6318TIP3    H240370   0.615   1.981  12.306  0.4200 -0.4463 -2.5015
 6319TIP3   OH240371   0.546   5.580  10.787  0.2624  0.1698  0.0724
 6319TIP3    H140372   0.599   5.539  10.856  0.9880  0.6585 -0.1830
 6319TIP3    H240373   0.483   5.634  10.835  0.1221 -0.2473  0.3734
 6320TIP3   OH240374   2.266   3.089   2.129 -0.2122  0.3788  1.0572
 6320TIP3    H140375   2.344   3.113   2.078 -0.7190  0.2288  0.1955
 6320TIP3    H240376   2.291   3.106   2.220  0.4203  1.4598  0.7063
 6321TIP3   OH240377   5.807   3.797   4.776 -0.4986 -0.3049 -0.7668
 6321TIP3    H140378   5.827   3.871   4.833 -0.5992 -0.4813 -0.4976
 6321TIP3    H240379   5.890   3.776   4.733 -0.1154 -0.9752  0.2711
 6322TIP3   OH240380   5.815   1.266  15.598 -0.2430 -0.0820  0.3470
 6322TIP3    H140381   5.894   1.297  15.555  0.6544 -0.8527  1.3988
 6322TIP3    H240382   5.780   1.199  15.538  0.0664  0.0361  0.0283
 6323TIP3   OH240383   4.070   0.481   2.566 -0.1384 -0.2531 -0.2273
 6323TIP3    H140384   4.103   0.409   2.619 -1.3282 -1.0636 -0.5458
 6323TIP3    H240385   4.130   0.554   2.584 -0.3177 -0.5807  1.9758
 6324TIP3   OH240386   1.803   3.793   3.323 -0.5859  0.4737  0.2205
 6324TIP3    H140387   1.861   3.815   3.250  1.0181 -0.6623  1.0986
 6324TIP3    H240388   1.832   3.850   3.394  0.4071 -1.0030  1.0612
 6325TIP3   OH240389   1.322   1.321  12.422  0.3445 -0.3892 -0.4699
 6325TIP3    H140390   1.271   1.240  12.424  0.1308 -0.2441  0.1960
 6325TIP3    H240391   1.411   1.294  12.442 -0.0149 -0.2639  1.4529
 6326TIP3   OH240392   6.581   2.889   1.386  0.1923 -0.3022  0.5106
 6326TIP3    H140393   6.632   2.814   1.358  2.2365  0.9998  0.5655
 6326TIP3    H240394   6.530   2.914   1.308 -0.1029 -1.3780  0.3449
 6327TIP3   OH240395   6.217   5.535   2.903  0.4358  0.0497  0.0543
 6327TIP3    H140396   6.240   5.625   2.929  0.9105  0.5550 -1.9461
 6327TIP3    H240397   6.272   5.480   2.959 -0.7320  0.9130  2.1643
 6328TIP3   OH240398   6.186   6.480   4.917 -0.5888  0.2218  0.4770
 6328TIP3    H140399   6.232   6.417   4.861  1.2278  0.1846  1.8962
 6328TIP3    H240400   6.158   6.428   4.993 -1.2056  0.6542  0.5462
 6329TIP3   OH240401   4.827   2.942   5.273  0.5274  0.1417 -0.1099
 6329TIP3    H140402   4.852   2.849   5.282 -1.5330 -0.3686  1.0061
 6329TIP3    H240403   4.879   2.987   5.340  0.0021 -0.5779  0.8161
 6330TIP3   OH240404   3.059   1.938  12.496 -0.8765  0.2172  0.5434
 6330TIP3    H140405   3.097   1.859  12.457 -2.5155 -0.5072  0.3257
 6330TIP3    H240406   3.131   2.001  12.498  0.5857 -1.4004  1.0969
 6331TIP3   OH240407   6.346   4.771  11.517  0.0246  0.4789 -0.2873
 6331TIP3    H140408   6.330   4.787  11.424 -0.7612  0.5967 -0.1417
 6331TIP3    H240409   6.324   4.854  11.560 -0.1434  0.2633  0.0559
 6332TIP3   OH240410   4.508   3.926   4.076 -0.7898  0.2632  0.3199
 6332TIP3    H140411   4.417   3.953   4.088 -0.8164  0.4252 -0.2234
 6332TIP3    H240412   4.504   3.851   4.017 -0.4600  1.2984 -1.0469
 6333TIP3   OH240413   5.639   4.414  14.225  0.1832  0.3567  0.0899
 6333TIP3    H140414   5.554   4.444  14.258  0.6435  0.3624  1.3100
 6333TIP3    H240415   5.669   4.485  14.168  0.7040  1.7480  1.9771
 6334TIP3   OH240416   5.438   5.044   1.212 -0.2376  0.1452  0.4209
 6334TIP3    H140417   5.394   4.994   1.143  0.6667 -2.3787  1.5282
 6334TIP3    H240418   5.524   5.066   1.175 -0.2341 -0.0988  0.2792
 6335TIP3   OH240419   2.403   6.309   5.573 -0.1568 -0.2415 -0.2758
 6335TIP3    H140420   2.309   6.322   5.586  0.0963 -0.1196  1.6407
 6335TIP3    H240421   2.442   6.331   5.657  1.4915 -1.4183 -0.6935
 6336TIP3   OH240422   1.079   1.083  16.483 -0.3244  0.5392  0.1360
 6336TIP3    H140423   1.072   1.075  16.388  0.8196  0.4352  0.0508
 6336TIP3    H240424   1.161   1.130  16.497  0.5037 -1.1150  1.1290
 6337TIP3   OH240425   5.148   0.695  14.302  0.9909  0.0541  0.6363
 6337TIP3    H140426   5.172   0.617  14.353  1.6784 -0.1751 -0.0161
 6337TIP3    H240427   5.228   0.747  14.301  1.3571 -0.4903 -1.1722
 6338TIP3   OH240428   6.553   5.263  12.647 -0.0975  0.4103 -0.0734
 6338TIP3    H140429   6.582   5.287  12.736  1.0885 -0.0697 -0.3060
 6338TIP3    H240430   6.507   5.180  12.658 -1.6642  1.3024  0.3400
 6339TIP3   OH240431   0.410   6.631  14.174 -0.3851  0.3110  0.2532
 6339TIP3    H140432   0.504   6.645  14.191 -0.6255  1.1152  1.0434
 6339TIP3    H240433   0.406   6.547  14.129  1.2358  2.4829 -4.6727
 6340TIP3   OH240434   3.255   5.098   1.742  0.7911 -0.3690  0.6178
 6340TIP3    H140435   3.297   5.176   1.780 -0.7254  0.8882 -0.1819
 6340TIP3    H240436   3.300   5.085   1.659 -0.4834  1.1167 -0.3475
 6341TIP3   OH240437   6.103   1.862   3.742  0.0611  0.5992  0.1406
 6341TIP3    H140438   6.009   1.881   3.740 -0.3988 -1.3848  0.8987
 6341TIP3    H240439   6.114   1.803   3.816  1.5146 -1.0992 -1.3286
 6342TIP3   OH240440   5.865   3.258  10.787  0.7681 -0.8854  0.8619
 6342TIP3    H140441   5.818   3.202  10.725 -0.0135  1.8243 -1.2293
 6342TIP3    H240442   5.957   3.251  10.761  0.8834 -2.2444  1.5765
 6343TIP3   OH240443   1.122   5.844   5.597 -0.8182 -0.1247 -0.1394
 6343TIP3    H140444   1.095   5.868   5.686 -0.2633 -1.1458  0.3224
 6343TIP3    H240445   1.098   5.920   5.543 -1.6012  0.3090  0.7948
 6344TIP3   OH240446   0.122   5.351   3.567  0.2399  0.5430  0.1246
 6344TIP3    H140447   0.117   5.373   3.474  0.5382 -0.3167 -0.1054
 6344TIP3    H240448   0.216   5.346   3.586  0.1877 -0.7193  0.1098
 6345TIP3   OH240449   5.781   4.296  10.954  0.7201  0.2216  0.2341
 6345TIP3    H140450   5.787   4.299  10.858  1.9701  0.1889  0.3022
 6345TIP3    H240451   5.722   4.223  10.972 -1.7180  1.8826 -0.5602
 6346TIP3   OH240452   0.552   2.104  13.116  0.2489  0.5723 -0.0578
 6346TIP3    H140453   0.483   2.131  13.177  0.2846  1.1424 -0.2602
 6346TIP3    H240454   0.608   2.046  13.167 -0.5805 -0.1890  0.0036
 6347TIP3   OH240455   2.621   4.242  15.618  0.3729  0.3493 -0.1386
 6347TIP3    H140456   2.569   4.279  15.547  2.2658 -0.0852 -1.8443
 6347TIP3    H240457   2.662   4.318  15.660  0.8410  0.4925 -0.8411
 6348TIP3   OH240458   0.634   3.692  13.368  0.0861 -0.0388 -0.3152
 6348TIP3    H140459   0.637   3.761  13.433 -0.5842  0.0110 -0.3227
 6348TIP3    H240460   0.662   3.734  13.287  0.5296  0.0018 -0.1410
 6349TIP3   OH240461   3.352   0.874  14.794 -0.1453 -1.0757  0.7593
 6349TIP3    H140462   3.446   0.857  14.800  0.4227  0.9919 -1.0234
 6349TIP3    H240463   3.318   0.800  14.743  0.6027 -1.5659  0.9465
 6350TIP3   OH240464   0.182   2.959  16.216  1.0958  0.4877 -0.3535
 6350TIP3    H140465   0.204   2.868  16.237  0.5741  0.2486 -0.8312
 6350TIP3    H240466   0.143   2.993  16.297  0.2944 -0.0358 -0.5164
 6351TIP3   OH240467   1.944   4.797  16.930  0.0416 -0.2704 -0.2991
 6351TIP3    H140468   1.921   4.888  16.951  0.9213 -0.4527  1.7283
 6351TIP3    H240469   2.005   4.805  16.857 -0.9927  0.6573 -1.0913
 6352TIP3   OH240470   3.963   5.700  13.360  0.0014 -0.0821 -0.3228
 6352TIP3    H140471   4.055   5.720  13.348  0.4216 -1.3267  0.5933
 6352TIP3    H240472   3.933   5.670  13.274  1.0377 -1.7754 -0.1328
 6353TIP3   OH240473   1.647   6.128  16.695  0.7089 -0.6919 -0.4391
 6353TIP3    H140474   1.722   6.186  16.682  1.5259 -1.5755  0.3067
 6353TIP3    H240475   1.678   6.041  16.670 -0.2453 -0.9809 -0.6788
 6354TIP3   OH240476   5.172   5.731  16.344  0.0751  0.2059  0.5067
 6354TIP3    H140477   5.138   5.815  16.313 -0.3191  0.1719  0.8533
 6354TIP3    H240478   5.266   5.746  16.354  0.0655  0.4922  0.1975
 6355TIP3   OH240479   4.863   6.798  15.330 -0.3219 -0.4112 -0.1191
 6355TIP3    H140480   4.838   6.789  15.421 -1.4225  0.2629 -0.3256
 6355TIP3    H240481   4.786   6.838  15.288  1.0059  1.5175 -0.8584
 6356TIP3   OH240482   3.710   4.381  11.355  0.1136  0.3097  0.2455
 6356TIP3    H140483   3.676   4.358  11.442 -2.1174  4.3132  0.6765
 6356TIP3    H240484   3.636   4.366  11.296  0.6359  0.4552 -0.4508
 6357TIP3   OH240485   3.573   4.765   0.154 -0.3989  0.2011  0.4828
 6357TIP3    H140486   3.540   4.855   0.159 -1.4496  0.0332 -1.9289
 6357TIP3    H240487   3.668   4.773   0.161 -0.5713  1.2568  2.2157
 6358TIP3   OH240488   2.058   4.585  16.660  0.0824 -0.2284 -0.2724
 6358TIP3    H140489   2.078   4.526  16.587 -0.5136  0.5780 -1.1022
 6358TIP3    H240490   2.059   4.672  16.622 -0.4503  0.1962  0.6422
 6359TIP3   OH240491   5.663   5.577   5.341  0.4052 -0.0840 -0.0276
 6359TIP3    H140492   5.687   5.491   5.377 -0.0075 -0.3124 -0.2873
 6359TIP3    H240493   5.590   5.606   5.395  1.2039  0.5802  0.7193
 6360TIP3   OH240494   5.522   5.437  15.127 -0.0756  0.3386  0.2754
 6360TIP3    H140495   5.508   5.510  15.186  0.6841  1.6713 -1.1094
 6360TIP3    H240496   5.447   5.379  15.141 -0.2432  0.9439  2.0230
 6361TIP3   OH240497   5.289   6.804  14.500  0.0122 -0.4164 -0.0741
 6361TIP3    H140498   5.365   6.854  14.529 -0.1500  1.5406 -2.6110
 6361TIP3    H240499   5.214   6.859  14.522 -0.3057 -0.3351 -1.2686
 6362TIP3   OH240500   2.620   3.559  15.869 -0.1847 -0.5003  0.2713
 6362TIP3    H140501   2.546   3.599  15.914  0.1692 -1.5338  1.8879
 6362TIP3    H240502   2.695   3.614  15.892  0.1833 -1.5965  1.9393
 6363TIP3   OH240503   0.545   6.323   5.587  0.1082 -0.2808 -0.5338
 6363TIP3    H140504   0.557   6.405   5.538  0.9050 -0.5739 -0.8473
 6363TIP3    H240505   0.630   6.307   5.628  1.3258 -2.9862 -3.6712
 6364TIP3   OH240506   5.739   3.808  10.744  0.5717 -0.3551  0.0465
 6364TIP3    H140507   5.792   3.803  10.664 -0.7628 -0.2392 -0.8877
 6364TIP3    H240508   5.693   3.891  10.736  0.2159 -0.4758  0.8060
 6365TIP3   OH240509   2.851   6.475  13.872  0.0666  0.1829  0.0096
 6365TIP3    H140510   2.877   6.446  13.960  0.8157  0.6261 -0.0518
 6365TIP3    H240511   2.757   6.458  13.868  0.2465 -1.0640  0.4216
 6366TIP3   OH240512   3.396   6.146   6.102 -0.0575 -0.0577 -0.0029
 6366TIP3    H140513   3.478   6.184   6.134  0.6088 -2.8786  2.0100
 6366TIP3    H240514   3.417   6.054   6.089 -2.8236 -0.7829  0.1654
 6367TIP3   OH240515   1.477   4.386  17.102  0.0798 -0.2188  0.2235
 6367TIP3    H140516   1.572   4.380  17.090  0.3984 -0.9588  2.5606
 6367TIP3    H240517   1.440   4.331  17.034  1.4853 -1.8946  0.7436
 6368TIP3   OH240518   2.114   3.111   3.033 -0.7811 -0.9213 -0.0542
 6368TIP3    H140519   2.155   3.086   2.950 -3.0918  0.2780 -1.6903
 6368TIP3    H240520   2.042   3.049   3.043 -1.8759  0.2880 -0.1627
 6369TIP3   OH240521   2.429   5.506  15.106 -0.5550 -0.6404 -0.1373
 6369TIP3    H140522   2.358   5.475  15.163 -0.7722  0.8310  0.4342
 6369TIP3    H240523   2.426   5.601  15.113  1.1959 -0.5227 -0.4555
 6370TIP3   OH240524   3.148   2.504  13.816  0.0094  0.1677  0.1629
 6370TIP3    H140525   3.177   2.499  13.724 -0.2228  0.7817  0.0547
 6370TIP3    H240526   3.177   2.590  13.846  0.9706 -0.4138  0.9865
 6371TIP3   OH240527   5.635   3.529   5.488  0.2729  0.7904 -0.8624
 6371TIP3    H140528   5.569   3.598   5.495  0.1386  0.5678  0.2612
 6371TIP3    H240529   5.623   3.493   5.401 -1.4308  0.4059 -0.4956
 6372TIP3   OH240530   1.197   3.800  10.382  0.8304  0.4932  0.0745
 6372TIP3    H140531   1.239   3.882  10.409 -0.2425  1.4702 -1.1382
 6372TIP3    H240532   1.103   3.818  10.387  0.5795 -0.6196 -0.3709
 6373TIP3   OH240533   5.088   5.991  16.310  0.1896 -0.2718 -0.1696
 6373TIP3    H140534   5.144   6.040  16.249  0.0104 -0.0425 -0.1511
 6373TIP3    H240535   5.016   6.051  16.331  0.3243 -0.2963  0.3830
 6374TIP3   OH240536   0.648   0.132   1.899 -0.2783 -0.0145 -0.1770
 6374TIP3    H140537   0.730   0.172   1.929 -0.1786  1.9971 -2.7872
 6374TIP3    H240538   0.675   0.049   1.859  0.8393  1.3638 -2.4974
 6375TIP3   OH240539   5.128   1.267  12.314 -0.0628 -0.1294  0.1106
 6375TIP3    H140540   5.081   1.308  12.241  0.1927  1.9522  1.0568
 6375TIP3    H240541   5.061   1.249  12.379  0.1223  0.9480  0.6226
 6376TIP3   OH240542   4.102   4.049   5.542 -0.5136  0.5144  0.2275
 6376TIP3    H140543   4.189   4.087   5.550 -0.5311  0.3417  1.3359
 6376TIP3    H240544   4.058   4.072   5.623 -1.2489 -0.0585  0.0030
 6377TIP3   OH240545   5.177   3.252  12.197  0.4837 -0.0593  0.4491
 6377TIP3    H140546   5.219   3.166  12.192 -0.4695 -0.5960  1.4363
 6377TIP3    H240547   5.227   3.306  12.135  1.6945 -1.0574  0.5074
 6378TIP3   OH240548   6.559   3.231  10.994  0.1210 -0.7104 -0.3701
 6378TIP3    H140549   6.486   3.270  10.946 -0.8785 -3.7498 -1.5673
 6378TIP3    H240550   6.568   3.143  10.957  3.5837 -0.9306  0.6437
 6379TIP3   OH240551   3.462   6.451  15.094  0.9635 -0.2145  0.0216
 6379TIP3    H140552   3.450   6.371  15.144  0.2735  0.0097  0.2230
 6379TIP3    H240553   3.555   6.473  15.106  0.8408 -0.2255  1.1074
 6380TIP3   OH240554   2.927   0.392  11.929 -0.4960  0.5528 -0.4927
 6380TIP3    H140555   2.898   0.306  11.958  1.7238 -0.3587 -0.8127
 6380TIP3    H240556   2.928   0.445  12.009  0.7345 -0.5297  0.2518
 6381TIP3   OH240557   5.559   0.114  12.528  0.2606  0.0039 -0.0232
 6381TIP3    H140558   5.512   0.033  12.545  2.2933 -1.6604 -1.6835
 6381TIP3    H240559   5.525   0.145  12.444 -0.0127  0.4987  0.2646
 6382TIP3   OH240560   2.153   2.593  15.729 -0.3388 -0.0737  0.1949
 6382TIP3    H140561   2.093   2.530  15.691 -1.3678  1.1813 -0.3261
 6382TIP3    H240562   2.192   2.638  15.654  0.2369  0.0551  0.5624
 6383TIP3   OH240563   2.878   1.872  11.573 -0.2402  0.4341 -0.5538
 6383TIP3    H140564   2.891   1.867  11.667  1.0416  0.3102 -0.7141
 6383TIP3    H240565   2.956   1.830  11.536 -1.3090 -0.6334 -1.6643
 6384TIP3   OH240566   5.276   2.753   0.041  0.1228  0.1944  0.6821
 6384TIP3    H140567   5.240   2.664   0.039  0.8430 -0.0946 -1.3507
 6384TIP3    H240568   5.199   2.809   0.047 -0.3948 -0.5375  1.0680
 6385TIP3   OH240569   3.190   0.923  12.511 -0.4568  0.2642 -0.5311
 6385TIP3    H140570   3.219   1.001  12.558 -2.0101  1.1937 -1.0239
 6385TIP3    H240571   3.234   0.928  12.426 -2.0137  1.7178 -1.3171
 6386TIP3   OH240572   6.480   5.143  15.730  0.3738  0.1065  0.1343
 6386TIP3    H140573   6.528   5.177  15.805  1.6124  1.5988 -1.2597
 6386TIP3    H240574   6.545   5.141  15.659 -1.2353  0.7482 -1.4262
 6387TIP3   OH240575   0.872   1.771  15.658  0.1186 -1.2785  0.4892
 6387TIP3    H140576   0.940   1.791  15.723  1.9748  2.1653 -2.1560
 6387TIP3    H240577   0.918   1.720  15.591 -1.2535 -3.0493  0.8202
 6388TIP3   OH240578   0.017   6.552  11.386  0.3389 -0.6543  0.4745
 6388TIP3    H140579  -0.075   6.559  11.359  0.7287  0.5273 -0.6494
 6388TIP3    H240580   0.013   6.520  11.476 -1.0821 -3.0687 -0.3487
 6389TIP3   OH240581   3.678   2.954  12.508 -0.0583 -0.4945  0.2744
 6389TIP3    H140582   3.716   2.920  12.589 -0.8452  0.8708  1.2616
 6389TIP3    H240583   3.588   2.919  12.508 -0.9064  1.5556  1.3494
 6390TIP3   OH240584   1.689   5.445   2.526 -0.4723  0.3120  0.0942
 6390TIP3    H140585   1.656   5.463   2.614  0.4014 -1.4908  0.8466
 6390TIP3    H240586   1.783   5.463   2.531 -0.5894  1.2518 -0.8002
 6391TIP3   OH240587   4.641   4.691  16.434 -0.8614  0.1694 -0.0447
 6391TIP3    H140588   4.694   4.711  16.512 -1.0036 -2.7289  0.9206
 6391TIP3    H240589   4.591   4.770  16.418  1.2346  1.8356  1.0830
 6392TIP3   OH240590   3.802   0.699   2.436  0.8187 -0.0317 -0.3659
 6392TIP3    H140591   3.806   0.748   2.518  3.2193  0.1895 -0.5302
 6392TIP3    H240592   3.806   0.608   2.463  2.3383  0.0513 -0.1970
 6393TIP3   OH240593   6.483   4.083  16.088 -0.3361 -0.3273  0.0236
 6393TIP3    H140594   6.391   4.096  16.108 -0.6395 -1.9247 -0.2268
 6393TIP3    H240595   6.485   4.066  15.994  0.2488  0.0013 -0.0264
 6394TIP3   OH240596   2.538   6.615  14.340  0.3298 -0.1220  0.0931
 6394TIP3    H140597   2.478   6.674  14.386  0.3538 -0.8207  1.0478
 6394TIP3    H240598   2.611   6.672  14.314  0.3386  0.2885  0.9720
 6395TIP3   OH240599   0.683   4.421   6.678  0.4050  0.2019  0.1777
 6395TIP3    H140600   0.595   4.458   6.686  0.1888 -0.1478 -0.4528
 6395TIP3    H240601   0.694   4.409   6.583  1.0008 -0.0645  0.2830
 6396TIP3   OH240602   4.077   4.162   3.208 -0.9616 -0.0697 -0.1727
 6396TIP3    H140603   4.077   4.071   3.179 -1.4842  0.0734 -0.6699
 6396TIP3    H240604   4.125   4.162   3.290 -2.0445 -1.0088  0.4910
 6397TIP3   OH240605   6.323   6.764  15.665 -0.1933 -0.0310  0.0759
 6397TIP3    H140606   6.250   6.729  15.613 -0.8814  0.6110  0.5784
 6397TIP3    H240607   6.402   6.739  15.617 -0.7497 -0.7268 -0.4890
 6398TIP3   OH240608   2.586   1.823   4.993 -0.1220 -0.3102 -0.0692
 6398TIP3    H140609   2.626   1.845   5.076 -0.0186 -1.5753  0.2279
 6398TIP3    H240610   2.497   1.796   5.015 -0.3112 -0.0193 -0.4481
 6399TIP3   OH240611   1.941   1.353  15.104  0.2071 -0.6156 -0.0289
 6399TIP3    H140612   1.948   1.351  15.200  1.0105 -2.1206 -0.0923
 6399TIP3    H240613   1.985   1.274  15.075  1.2019  0.4949 -1.7441
 6400TIP3   OH240614   6.560   3.447   5.766 -0.3754 -0.3852  0.0518
 6400TIP3    H140615   6.540   3.365   5.719  1.0419 -0.2471 -0.8723
 6400TIP3    H240616   6.560   3.514   5.697 -0.4707  0.2073  0.6257
 6401TIP3   OH240617   4.252   5.688   0.982 -0.2566  0.9925  0.0227
 6401TIP3    H140618   4.290   5.655   0.900 -0.3502  0.9635 -0.0100
 6401TIP3    H240619   4.316   5.750   1.015  0.3350  0.1266  0.5459
 6402TIP3   OH240620   4.077   2.887  15.522 -1.1051  0.5419  0.3955
 6402TIP3    H140621   4.040   2.920  15.441 -0.4451 -0.4052 -0.3084
 6402TIP3    H240622   4.083   2.963  15.579 -0.8391  1.3674 -0.7209
 6403TIP3   OH240623   0.644   6.502   6.007 -0.3494  0.2730  0.2810
 6403TIP3    H140624   0.564   6.532   5.963  0.2131  2.4623  0.6309
 6403TIP3    H240625   0.706   6.574   5.997  0.9308 -0.5456  1.7346
 6404TIP3   OH240626   6.381   5.494  15.909 -0.0897 -0.6456  0.0010
 6404TIP3    H140627   6.470   5.509  15.878  0.9762  1.1432  3.3934
 6404TIP3    H240628   6.342   5.582  15.914 -0.5036 -0.8876  2.4215
 6405TIP3   OH240629   0.916   2.357   1.656  0.0917 -0.2640  0.0687
 6405TIP3    H140630   0.836   2.409   1.657 -0.0238 -0.4251 -0.6041
 6405TIP3    H240631   0.983   2.417   1.622  0.5467  0.2595  1.7600
 6406TIP3   OH240632   5.700   1.422  12.171 -0.2946  0.4393  0.3819
 6406TIP3    H140633   5.708   1.405  12.265 -1.8751 -2.6080  0.0808
 6406TIP3    H240634   5.761   1.361  12.131 -0.2706  1.1119 -0.6296
 6407TIP3   OH240635   5.869   4.417  14.820  0.2549 -0.2019  0.6151
 6407TIP3    H140636   5.869   4.511  14.837  0.9749 -0.1939  0.5999
 6407TIP3    H240637   5.804   4.382  14.881 -2.3036  0.6428 -1.4324
 6408TIP3   OH240638   2.443   2.953  11.094 -0.4447 -0.3124  0.3428
 6408TIP3    H140639   2.444   3.036  11.140  0.0061  1.2853 -2.3310
 6408TIP3    H240640   2.490   2.893  11.151 -0.0274  1.4733  1.9680
 6409TIP3   OH240641   3.674   5.207  14.447  0.1508 -0.0154  0.3368
 6409TIP3    H140642   3.740   5.169  14.389 -2.1555 -2.2155 -1.0187
 6409TIP3    H240643   3.678   5.301  14.429  1.3801 -0.3454 -1.3090
 6410TIP3   OH240644   3.858   1.924  14.622 -0.1924 -0.2239 -0.0164
 6410TIP3    H140645   3.939   1.972  14.640  0.0202 -0.3420 -0.6298
 6410TIP3    H240646   3.819   1.971  14.548 -0.6612 -0.1990  0.2443
 6411TIP3   OH240647   2.015   3.994   3.934 -0.0308 -0.0846 -0.0469
 6411TIP3    H140648   2.077   3.925   3.911 -0.9133 -0.8124 -0.3307
 6411TIP3    H240649   1.929   3.954   3.919 -0.6232  0.2297  2.2042
 6412TIP3   OH240650   4.445   1.652  13.214  0.4443 -0.4303 -0.7325
 6412TIP3    H140651   4.503   1.588  13.171 -0.5517 -0.1813 -2.5201
 6412TIP3    H240652   4.406   1.701  13.143 -0.4539  0.7681  0.5330
 6413TIP3   OH240653   6.731   1.496   5.023 -0.3137 -0.3579  0.5395
 6413TIP3    H140654   6.643   1.533   5.010  0.0009 -0.1134 -1.1405
 6413TIP3    H240655   6.780   1.565   5.067 -0.9572 -0.5079  1.5266
 6414TIP3   OH240656   3.140   6.531  16.710 -0.4536 -0.7784  0.2327
 6414TIP3    H140657   3.080   6.508  16.781 -1.4001 -0.8588 -0.5542
 6414TIP3    H240658   3.105   6.614  16.675  0.1803 -0.5777  0.0691
 6415TIP3   OH240659   3.546   6.292   3.129 -0.3824 -0.0361 -0.4279
 6415TIP3    H140660   3.622   6.349   3.122 -0.2293 -0.4214 -2.2790
 6415TIP3    H240661   3.472   6.346   3.101 -0.4397 -0.3607 -0.8995
 6416TIP3   OH240662   6.181   6.499  10.924  0.1398  0.1426  0.8582
 6416TIP3    H140663   6.245   6.437  10.889 -0.9167  0.8583 -2.7365
 6416TIP3    H240664   6.226   6.583  10.921 -0.7316  0.6118 -1.4725
 6417TIP3   OH240665   5.274   2.430   0.566 -0.1344  0.0688 -0.0771
 6417TIP3    H140666   5.245   2.505   0.515 -0.7006 -0.4384 -0.5156
 6417TIP3    H240667   5.194   2.397   0.608 -0.1826 -1.2092 -1.1134
 6418TIP3   OH240668   5.621   0.757   4.068 -0.1918 -0.1159 -0.0256
 6418TIP3    H140669   5.650   0.666   4.069  1.9780  0.5246 -0.0142
 6418TIP3    H240670   5.659   0.794   3.988 -0.7450  0.8901  0.1525
 6419TIP3   OH240671   6.363   4.833   0.540 -0.5170  0.2658  0.4865
 6419TIP3    H140672   6.373   4.829   0.445 -1.5850 -0.3375  0.3807
 6419TIP3    H240673   6.436   4.782   0.574 -0.7395 -0.4267 -0.0527
 6420TIP3   OH240674   6.225   4.093   0.085  0.1738  0.2600  0.0003
 6420TIP3    H140675   6.217   4.072  -0.008  0.4844  1.0353 -0.2083
 6420TIP3    H240676   6.262   4.014   0.125  1.5124  0.4619 -0.7915
 6421TIP3   OH240677   6.776   0.615   1.679 -0.7253  0.2793  0.2578
 6421TIP3    H140678   6.791   0.688   1.738 -1.3004 -0.1679  0.9745
 6421TIP3    H240679   6.761   0.655   1.594  1.7748  0.8710  0.0271
 6422TIP3   OH240680   4.829   1.764  12.144 -0.2220  0.1954  0.5993
 6422TIP3    H140681   4.775   1.774  12.066 -0.0566 -1.5937  0.2121
 6422TIP3    H240682   4.849   1.854  12.171  0.6849  0.9213 -2.1026
 6423TIP3   OH240683   3.047   2.242   2.505  0.2315  0.3180  0.1555
 6423TIP3    H140684   3.084   2.172   2.560  0.2761 -0.0651 -0.3455
 6423TIP3    H240685   3.082   2.323   2.541 -0.2359  0.1188  1.0649
 6424TIP3   OH240686   4.218   6.313  10.735  0.5404  0.1946  0.5963
 6424TIP3    H140687   4.245   6.267  10.814 -1.1741 -0.2597  0.9628
 6424TIP3    H240688   4.221   6.405  10.758 -2.7943  0.0393  2.3009
 6425TIP3   OH240689   4.818   1.456  10.620 -0.3042  0.1037  0.4858
 6425TIP3    H140690   4.770   1.378  10.591 -2.0540  1.3379 -0.1354
 6425TIP3    H240691   4.905   1.424  10.643 -0.6557 -1.8630 -0.7035
 6426TIP3   OH240692   0.396   4.950  12.256  0.4503 -0.0560 -0.8354
 6426TIP3    H140693   0.394   5.029  12.310  0.0109 -0.7109  0.1416
 6426TIP3    H240694   0.482   4.912  12.272 -0.0395 -0.7693  0.2056
 6427TIP3   OH240695   4.224   4.511   4.133  0.4634  0.3749 -0.5188
 6427TIP3    H140696   4.183   4.461   4.061  1.4785 -0.0140 -0.8421
 6427TIP3    H240697   4.311   4.532   4.100  0.3279  1.7056 -0.0695
 6428TIP3   OH240698   6.066   3.241  16.045 -0.1750  0.0403 -0.1886
 6428TIP3    H140699   5.982   3.278  16.070 -0.8271  0.0228 -2.1342
 6428TIP3    H240700   6.045   3.177  15.977  1.3046 -0.8416  0.1372
 6429TIP3   OH240701   3.683   6.167   5.049 -0.1603 -0.3819 -0.1305
 6429TIP3    H140702   3.766   6.133   5.018  0.1916  0.4755 -0.1619
 6429TIP3    H240703   3.617   6.111   5.009  0.4304 -2.1316  1.2198
 6430TIP3   OH240704   3.995   5.255   3.857 -0.2206  0.0686  0.0032
 6430TIP3    H140705   4.008   5.266   3.763  0.2700 -0.6088 -0.0144
 6430TIP3    H240706   3.972   5.163   3.867 -0.1106  0.1014  0.5684
 6431TIP3   OH240707   6.651   1.486   0.471 -0.7432  0.4604  0.3027
 6431TIP3    H140708   6.648   1.401   0.515 -0.8947  0.2974 -0.0145
 6431TIP3    H240709   6.686   1.546   0.536  2.4791 -0.4681 -0.4100
 6432TIP3   OH240710   0.710   2.935   1.158  0.4512  0.4593  0.2964
 6432TIP3    H140711   0.628   2.913   1.116  1.1450 -0.5639 -0.5608
 6432TIP3    H240712   0.741   3.013   1.112 -0.2960  1.1879  0.9998
 6433TIP3   OH240713   2.610   0.163   5.274  0.1915 -0.4796  0.7848
 6433TIP3    H140714   2.536   0.221   5.293 -0.9847 -1.3619 -0.8667
 6433TIP3    H240715   2.630   0.122   5.358 -0.0482  1.0285  1.6192
 6434TIP3   OH240716   3.129   4.860  16.770  0.1600 -0.3549  0.4245
 6434TIP3    H140717   3.106   4.937  16.719  0.1767 -0.7979 -0.2548
 6434TIP3    H240718   3.046   4.828  16.804  0.2027  0.2351  1.1161
 6435TIP3   OH240719   4.492   2.725   1.776 -0.6492  0.4418 -0.0570
 6435TIP3    H140720   4.439   2.764   1.707 -0.0634  0.6930 -0.3745
 6435TIP3    H240721   4.550   2.795   1.805  0.0669 -0.0379 -0.2837
 6436TIP3   OH240722   6.384   5.766  16.211 -0.0297  0.9026 -0.2096
 6436TIP3    H140723   6.323   5.753  16.139  1.6540 -2.1029 -1.2706
 6436TIP3    H240724   6.328   5.776  16.288 -1.9647 -1.3863 -1.1690
 6437TIP3   OH240725   2.968   5.479   5.145 -0.0163 -0.5276 -0.4080
 6437TIP3    H140726   2.927   5.455   5.228  0.2006 -0.4379 -0.2759
 6437TIP3    H240727   3.014   5.400   5.117  0.5774 -0.3129 -0.0449
 6438TIP3   OH240728   6.510   3.140   3.355 -0.6490  0.6596 -0.6379
 6438TIP3    H140729   6.497   3.202   3.427 -1.4779  0.3646 -0.5285
 6438TIP3    H240730   6.434   3.153   3.298  0.5941  1.7675 -2.1313
 6439TIP3   OH240731   3.468   2.694  15.195  0.2468  0.4571  0.4387
 6439TIP3    H140732   3.498   2.784  15.212  1.4857 -0.0273  0.9617
 6439TIP3    H240733   3.387   2.705  15.145  1.2845  1.8594 -1.0399
 6440TIP3   OH240734   1.951   5.365  10.135  0.3723  0.2492  0.1515
 6440TIP3    H140735   1.974   5.276  10.162 -0.6658 -1.0497 -2.7752
 6440TIP3    H240736   1.890   5.395  10.202 -1.0162 -2.1662  0.1087
 6441TIP3   OH240737   2.807   1.249   4.161  0.1895  0.3325 -0.5054
 6441TIP3    H140738   2.752   1.327   4.174  1.2891  0.8839  1.1599
 6441TIP3    H240739   2.875   1.277   4.101 -0.4917  0.0616 -1.4336
 6442TIP3   OH240740   6.230   2.295  15.204  0.5092  0.1098 -0.4458
 6442TIP3    H140741   6.210   2.243  15.126  1.5742 -0.1052 -0.5829
 6442TIP3    H240742   6.272   2.375  15.170 -1.3353  1.2260 -0.2597
 6443TIP3   OH240743   2.839   3.121  11.866 -0.5847 -0.1897  0.5281
 6443TIP3    H140744   2.782   3.044  11.866 -2.4992  1.1342 -0.3205
 6443TIP3    H240745   2.919   3.093  11.821 -1.6481 -1.4289 -0.6730
 6444TIP3   OH240746   6.246   4.617   3.441  1.0043 -0.0416  0.1093
 6444TIP3    H140747   6.172   4.663   3.400 -0.1335  0.2020  2.2956
 6444TIP3    H240748   6.323   4.667   3.413 -0.0885  2.6958  1.5605
 6445TIP3   OH240749   0.855   4.057   5.097 -0.3580  0.5922  0.0786
 6445TIP3    H140750   0.826   4.003   5.170 -0.4605  0.5519  0.0086
 6445TIP3    H240751   0.947   4.034   5.085 -0.3917  0.4609  0.0719
 6446TIP3   OH240752   1.129   1.247  10.894  1.0404  0.0877  0.2141
 6446TIP3    H140753   1.140   1.152  10.900  1.9501  0.0024 -1.7764
 6446TIP3    H240754   1.058   1.258  10.830  1.9106  0.7274 -0.6701
 6447TIP3   OH240755   4.252   2.544   1.276  0.3434  0.0877 -0.1921
 6447TIP3    H140756   4.196   2.513   1.347  1.3496 -0.0141  0.5774
 6447TIP3    H240757   4.295   2.622   1.311  0.8541  0.0303 -0.6751
 6448TIP3   OH240758   3.318   1.421  10.899 -0.1794 -0.2577  0.3723
 6448TIP3    H140759   3.304   1.442  10.806 -2.5963 -1.5545  0.3579
 6448TIP3    H240760   3.242   1.459  10.943  0.6248 -0.1923  1.7550
 6449TIP3   OH240761   4.008   1.301  13.269  0.1619 -0.5431  0.3885
 6449TIP3    H140762   4.068   1.293  13.195 -0.8589  0.3240 -0.5664
 6449TIP3    H240763   3.997   1.395  13.281  0.2437 -0.6713  1.6048
 6450TIP3   OH240764   6.610   5.304  12.204  0.4282 -0.0833 -0.1242
 6450TIP3    H140765   6.644   5.352  12.280  0.9640  0.0295 -0.4341
 6450TIP3    H240766   6.516   5.326  12.203  0.3986 -0.1669  0.5600
 6451TIP3   OH240767   6.133   6.075  13.292  0.2602 -0.4096  0.0087
 6451TIP3    H140768   6.044   6.102  13.268 -0.3348 -0.0986  2.2788
 6451TIP3    H240769   6.190   6.126  13.235 -0.9904 -0.8874 -1.7613
 6452TIP3   OH240770   0.113   6.645  14.728 -0.1376 -0.8875  0.2471
 6452TIP3    H140771   0.072   6.582  14.669  1.2484 -0.7675 -0.8868
 6452TIP3    H240772   0.082   6.619  14.815 -2.3106 -0.9859 -0.5096
 6453TIP3   OH240773   0.688   3.437  11.035  0.0211 -0.5905  0.1418
 6453TIP3    H140774   0.771   3.391  11.020  0.6481  1.5172 -4.0763
 6453TIP3    H240775   0.621   3.378  11.001  0.2059 -0.6844 -0.0580
 6454TIP3   OH240776   1.431   1.781  16.362 -0.2386 -0.4156 -0.2612
 6454TIP3    H140777   1.396   1.773  16.274 -2.2311  1.2371  0.3137
 6454TIP3    H240778   1.506   1.841  16.353 -0.4388 -0.2451 -0.8270
 6455TIP3   OH240779   0.712   4.479   0.805  0.1237 -0.0868 -0.4374
 6455TIP3    H140780   0.730   4.385   0.817 -1.8208 -0.6375 -1.5177
 6455TIP3    H240781   0.719   4.493   0.711 -0.1364  0.7600 -0.3393
 6456TIP3   OH240782   5.783   0.948  11.606  0.2071 -0.0119 -0.6003
 6456TIP3    H140783   5.867   0.927  11.565  0.8395 -1.9944  1.5109
 6456TIP3    H240784   5.724   0.878  11.576 -0.0241 -0.0063 -0.1588
 6457TIP3   OH240785   3.780   1.663   2.106  0.3861  0.0135 -0.3446
 6457TIP3    H140786   3.714   1.652   2.175  1.8142 -0.5374  0.9915
 6457TIP3    H240787   3.804   1.755   2.111  1.2700 -0.2488  0.6867
 6458TIP3   OH240788   5.025   1.390  16.438  0.4495 -0.4253 -0.7018
 6458TIP3    H140789   5.091   1.322  16.428  1.2822  0.2631 -0.1161
 6458TIP3    H240790   5.065   1.468  16.398  0.2365  0.1388  0.1409
 6459TIP3   OH240791   2.980   2.980   6.004  0.0842  0.0595 -0.1965
 6459TIP3    H140792   2.901   3.032   5.988 -0.0417 -0.1485 -0.2634
 6459TIP3    H240793   2.964   2.938   6.088  0.4161  0.5477  0.1178
 6460TIP3   OH240794   0.173   2.531   4.461 -0.6524 -0.0371  0.0004
 6460TIP3    H140795   0.244   2.538   4.526 -1.1710  0.7446  0.5041
 6460TIP3    H240796   0.093   2.532   4.513 -1.0613  0.0237 -0.6235
 6461TIP3   OH240797   4.263   5.622   3.003 -0.2030 -0.1399  0.0367
 6461TIP3    H140798   4.182   5.572   2.987 -0.7373  0.5931  0.3833
 6461TIP3    H240799   4.255   5.699   2.946  0.9234 -0.7404 -0.9981
 6462TIP3   OH240800   0.448   2.745  16.715  0.1285 -0.6995  0.3223
 6462TIP3    H140801   0.507   2.815  16.744  0.1898 -0.4365 -0.4223
 6462TIP3    H240802   0.408   2.714  16.796  1.3525 -0.9526  0.8636
 6463TIP3   OH240803   3.871   0.033  12.450  0.5477 -0.3827  0.7922
 6463TIP3    H140804   3.812   0.104  12.476 -0.3713 -0.4187 -1.0035
 6463TIP3    H240805   3.958   0.075  12.444  0.6582 -0.2191  2.9807
 6464TIP3   OH240806   4.571   0.074  11.221  0.1553  0.1416 -0.1938
 6464TIP3    H140807   4.598   0.122  11.299 -2.0019  0.0800  0.6528
 6464TIP3    H240808   4.509   0.134  11.177 -1.7860 -1.3798  0.3324
 6465TIP3   OH240809   0.351   6.464  16.713 -0.1304  0.9131 -0.2996
 6465TIP3    H140810   0.394   6.505  16.638 -1.1375  2.8488  0.1163
 6465TIP3    H240811   0.342   6.372  16.688 -0.9886  1.6072 -2.8270
 6466TIP3   OH240812   5.506   0.375  11.900 -0.5166 -0.1362  0.2758
 6466TIP3    H140813   5.510   0.406  11.809 -1.2746  0.1578  0.3348
 6466TIP3    H240814   5.425   0.413  11.935 -1.3713 -1.9348  0.4357
 6467TIP3   OH240815   4.462   2.314   3.052 -0.3435  0.2574  0.1752
 6467TIP3    H140816   4.440   2.239   3.107 -4.2728 -0.2403 -1.8173
 6467TIP3    H240817   4.542   2.287   3.006 -1.6119 -2.7800 -0.4820
 6468TIP3   OH240818   3.736   5.383   4.167 -0.6974  0.2934  0.6771
 6468TIP3    H140819   3.822   5.383   4.209 -0.1664  0.2876 -0.3658
 6468TIP3    H240820   3.754   5.410   4.077 -1.2123 -3.3568 -0.6771
 6469TIP3   OH240821   2.406   6.374  11.201  0.3833 -0.0867 -0.2618
 6469TIP3    H140822   2.419   6.403  11.291 -0.9230 -0.2213 -0.0115
 6469TIP3    H240823   2.381   6.453  11.153 -0.3921 -0.2714 -0.1766
 6470TIP3   OH240824   5.141   2.479   0.940  0.8063  0.3560  0.2712
 6470TIP3    H140825   5.168   2.453   0.852  1.6597 -0.0975  0.6575
 6470TIP3    H240826   5.077   2.414   0.966 -1.4674  1.9317 -1.0013
 6471TIP3   OH240827   5.009   1.484   4.557  0.4707 -0.0816  0.1603
 6471TIP3    H140828   5.013   1.413   4.621 -2.3026 -0.4395  0.0529
 6471TIP3    H240829   5.032   1.443   4.474 -2.4656 -1.3353 -0.1573
 6472TIP3   OH240830   4.102   5.054   1.477 -0.1356 -0.7176  0.4204
 6472TIP3    H140831   4.157   4.991   1.431 -0.2922 -0.5516 -0.0034
 6472TIP3    H240832   4.109   5.134   1.425 -1.6264 -1.0012 -0.2810
 6473TIP3   OH240833   4.494   3.909   3.189 -0.1944 -0.5602 -0.0259
 6473TIP3    H140834   4.454   3.926   3.275  0.1371 -1.4555  0.3250
 6473TIP3    H240835   4.577   3.867   3.210 -0.2323 -1.0358 -0.7914
 6474TIP3   OH240836   5.351   5.474  14.055  0.7487  0.3930  0.0690
 6474TIP3    H140837   5.271   5.511  14.017  0.2289 -0.6146  0.1349
 6474TIP3    H240838   5.405   5.550  14.078  0.0442  1.0725 -0.4793
 6475TIP3   OH240839   1.747   2.532   6.436 -0.0329 -0.1905  0.2508
 6475TIP3    H140840   1.809   2.508   6.367 -0.0736  1.3429 -0.3713
 6475TIP3    H240841   1.775   2.620   6.463 -1.7291  0.4154  0.1808
 6476TIP3   OH240842   0.488   5.084  14.072 -0.0260 -0.1322  0.4812
 6476TIP3    H140843   0.552   5.017  14.094 -0.6313 -0.9580 -0.1990
 6476TIP3    H240844   0.494   5.148  14.142 -0.5071 -1.6711  1.9947
 6477TIP3   OH240845   2.782   2.957   2.896 -0.0872  0.4104 -0.1030
 6477TIP3    H140846   2.866   2.933   2.934  0.3339  2.8566  0.7050
 6477TIP3    H240847   2.735   3.001   2.967 -1.0282  1.2869 -1.2231
 6478TIP3   OH240848   4.098   3.599  16.247  0.0795  0.2012  0.3074
 6478TIP3    H140849   4.117   3.526  16.307 -0.1279 -0.7371 -0.7276
 6478TIP3    H240850   4.014   3.634  16.276 -0.4274 -0.7872  0.0769
 6479TIP3   OH240851   4.034   5.579  13.623  0.0333 -0.2142  1.1436
 6479TIP3    H140852   4.121   5.557  13.588  0.4413  1.2862  1.1418
 6479TIP3    H240853   3.994   5.632  13.554 -0.8312 -0.7563  1.2201
 6480TIP3   OH240854   2.172   0.320  11.359  0.2159  0.1301 -0.1446
 6480TIP3    H140855   2.141   0.229  11.362 -0.9270  0.5144  0.1234
 6480TIP3    H240856   2.162   0.346  11.268 -1.3567  0.5990  0.1307
 6481TIP3   OH240857   0.811   3.361  11.961 -0.6296  0.1680 -0.3338
 6481TIP3    H140858   0.857   3.443  11.944 -0.6719 -0.0590 -1.6264
 6481TIP3    H240859   0.870   3.311  12.018  0.5457  0.0590 -1.5989
 6482TIP3   OH240860   3.392   2.898   3.847  0.5752 -0.2589 -0.3721
 6482TIP3    H140861   3.309   2.944   3.859  1.0200  0.3938  0.3291
 6482TIP3    H240862   3.370   2.820   3.796 -0.4256  0.0154 -0.3738
 6483TIP3   OH240863   5.795   3.691  11.745  0.1208 -0.2156  0.4169
 6483TIP3    H140864   5.705   3.722  11.733 -0.2359 -1.0580  0.8024
 6483TIP3    H240865   5.788   3.595  11.740  1.1813 -0.2548 -0.7257
 6484TIP3   OH240866   3.831   4.338  13.882 -0.7863 -0.1417 -0.2996
 6484TIP3    H140867   3.877   4.400  13.940  0.3853  0.2905 -1.6357
 6484TIP3    H240868   3.738   4.359  13.893 -0.5668  0.2059  1.0913
 6485TIP3   OH240869   4.323   5.670  11.668 -0.0973  0.4470 -0.5292
 6485TIP3    H140870   4.377   5.651  11.591 -0.9001 -0.6132 -0.8458
 6485TIP3    H240871   4.235   5.642  11.644 -0.2735 -0.3784  0.9454
 6486TIP3   OH240872   2.544   3.875  15.824  0.5981  0.4881 -0.8051
 6486TIP3    H140873   2.606   3.934  15.867  0.2961  2.1478 -2.5495
 6486TIP3    H240874   2.458   3.903  15.855  0.5805 -2.0016  1.8485
 6487TIP3   OH240875   6.685   5.288   1.714 -0.0934 -0.1480 -0.2774
 6487TIP3    H140876   6.664   5.371   1.671 -0.8586 -0.3263 -0.2602
 6487TIP3    H240877   6.667   5.303   1.806  3.7797  0.9964  0.4890
 6488TIP3   OH240878   2.750   1.483  15.034  0.2346 -0.3329  0.0223
 6488TIP3    H140879   2.752   1.499  14.940 -0.1563 -0.0189  0.0668
 6488TIP3    H240880   2.665   1.516  15.063 -0.0355 -1.2528  0.3378
 6489TIP3   OH240881   0.128   0.554  16.918 -0.0977 -0.2191  0.2149
 6489TIP3    H140882   0.209   0.524  16.961  1.5962  1.0597 -1.8869
 6489TIP3    H240883   0.065   0.483  16.935  1.2466 -1.0017  2.4124
 6490TIP3   OH240884   2.811   5.859  15.267  0.5246  0.1107 -0.0394
 6490TIP3    H140885   2.885   5.909  15.233  0.4262 -0.2183 -0.7741
 6490TIP3    H240886   2.847   5.774  15.291  0.3510 -0.1448 -0.6498
 6491TIP3   OH240887   6.450   6.193   0.794  0.1784  0.1782  0.2310
 6491TIP3    H140888   6.440   6.151   0.879  1.1441  0.2568  0.3951
 6491TIP3    H240889   6.382   6.260   0.791  1.2130  1.3490  1.6589
 6492TIP3   OH240890   6.355   0.407  12.757  0.3863  0.3438  0.2261
 6492TIP3    H140891   6.399   0.324  12.775 -0.8537  0.0496  2.1899
 6492TIP3    H240892   6.263   0.383  12.743  0.2458  1.2645 -0.4956
 6493TIP3   OH240893   1.928   6.142  11.470 -0.3953  0.2199 -0.2908
 6493TIP3    H140894   1.988   6.087  11.521 -1.3319 -1.0465 -0.5207
 6493TIP3    H240895   1.919   6.097  11.386 -2.7588 -0.4106  0.2287
 6494TIP3   OH240896   3.663   6.495  12.254 -0.8843 -0.3664 -0.1278
 6494TIP3    H140897   3.746   6.526  12.217 -1.6474  1.1737 -0.6188
 6494TIP3    H240898   3.655   6.540  12.338 -1.0959 -0.7301  0.0526
 6495TIP3   OH240899   0.198   6.031   6.487  0.1798  0.1642 -0.1333
 6495TIP3    H140900   0.215   5.994   6.574  0.3077  0.0263 -0.2170
 6495TIP3    H240901   0.130   5.975   6.450  0.1001  0.2444 -0.1084
 6496TIP3   OH240902   2.217   4.416  13.808 -0.1262 -0.0072  0.0464
 6496TIP3    H140903   2.180   4.486  13.754  0.8104 -0.0088 -0.6070
 6496TIP3    H240904   2.240   4.347  13.746 -3.0003 -1.8694  0.8522
 6497TIP3   OH240905   1.224   6.467  15.554 -0.7749 -0.5165  0.2846
 6497TIP3    H140906   1.240   6.430  15.641 -1.1594 -0.5498  0.3420
 6497TIP3    H240907   1.201   6.392  15.500 -2.8137 -0.2381  0.6937
 6498TIP3   OH240908   5.343   0.210   4.642 -0.4238 -0.5212  0.5290
 6498TIP3    H140909   5.419   0.234   4.695 -0.7988 -1.8218  1.7429
 6498TIP3    H240910   5.272   0.265   4.676  0.0047  0.8979 -0.7987
 6499TIP3   OH240911   5.243   1.051   5.136  0.2810  0.2803 -0.0382
 6499TIP3    H140912   5.257   1.028   5.227 -0.5546  1.3485  0.3862
 6499TIP3    H240913   5.213   0.971   5.094  0.7520 -0.2351  0.6014
 6500TIP3   OH240914   2.343   4.090   2.760 -0.3327 -0.0378 -0.2132
 6500TIP3    H140915   2.364   4.178   2.790 -1.8615  0.3006 -0.0403
 6500TIP3    H240916   2.376   4.032   2.828 -1.1175  0.5465  0.6988
 6501TIP3   OH240917   4.253   5.221   2.399  0.5567 -0.5412  0.5820
 6501TIP3    H140918   4.297   5.305   2.408 -0.4143  0.0828 -0.2699
 6501TIP3    H240919   4.195   5.232   2.324 -0.0241 -1.7843  0.8165
 6502TIP3   OH240920   6.527   0.698   1.479  0.0642 -0.2928  0.1099
 6502TIP3    H140921   6.559   0.767   1.420  2.2001 -1.3563 -0.0998
 6502TIP3    H240922   6.445   0.731   1.513 -0.3327  1.1634 -2.0704
 6503TIP3   OH240923   2.712   5.386  12.880  0.7011  0.2472  0.4504
 6503TIP3    H140924   2.722   5.323  12.951  0.7063  0.5364  0.7090
 6503TIP3    H240925   2.668   5.460  12.920 -0.0416  0.0797 -0.0477
 6504TIP3   OH240926   1.206   6.468   3.567 -0.0413 -0.0447 -0.1247
 6504TIP3    H140927   1.238   6.380   3.586 -3.5896 -1.7403 -1.0043
 6504TIP3    H240928   1.283   6.524   3.572  2.4026 -3.1818  0.4535
 6505TIP3   OH240929   1.573   6.678   4.203  0.2075  0.4794 -0.0767
 6505TIP3    H140930   1.480   6.682   4.227 -0.0871 -0.5750 -0.9485
 6505TIP3    H240931   1.619   6.710   4.281 -0.7846 -1.4784  1.4205
 6506TIP3   OH240932   2.181   5.508  16.383 -0.0189 -0.1439 -0.1223
 6506TIP3    H140933   2.119   5.538  16.317 -0.1247  0.5424  0.2788
 6506TIP3    H240934   2.165   5.414  16.390  0.2891 -0.3052 -1.3773
 6507TIP3   OH240935   6.784   3.976  13.558 -0.0628 -0.2802 -0.0926
 6507TIP3    H140936   6.858   4.028  13.591 -1.4927  0.7849  1.5654
 6507TIP3    H240937   6.767   3.911  13.626 -1.6109  0.4911  0.3073
 6508TIP3   OH240938   4.206   5.801  15.363  0.5091  0.7631  0.6145
 6508TIP3    H140939   4.295   5.767  15.352  0.4056  0.8687 -0.7121
 6508TIP3    H240940   4.216   5.881  15.414  1.1025  0.4267  1.0323
 6509TIP3   OH240941   4.045   4.923  11.978 -0.4440 -0.0792  0.5383
 6509TIP3    H140942   4.045   5.015  12.002  0.5401 -0.4187  2.0190
 6509TIP3    H240943   4.109   4.883  12.038  1.5226 -1.1938 -2.1043
 6510TIP3   OH240944   6.435   5.326   5.153  0.4273  0.1347  0.7327
 6510TIP3    H140945   6.501   5.395   5.163  2.0105 -1.3769  1.2623
 6510TIP3    H240946   6.487   5.246   5.144 -1.3532 -0.9854  0.0786
 6511TIP3   OH240947   0.496   1.714  11.122  0.2932  0.4057  0.0740
 6511TIP3    H140948   0.445   1.706  11.041  0.6691 -0.0399 -0.1259
 6511TIP3    H240949   0.441   1.766  11.180  0.9913  2.8433 -1.2926
 6512TIP3   OH240950   1.554   3.399   3.632 -0.0382 -0.4129 -0.1513
 6512TIP3    H140951   1.547   3.379   3.539  2.3393 -3.4155  0.1705
 6512TIP3    H240952   1.545   3.314   3.676 -1.7595  0.9825  2.4844
 6513TIP3   OH240953   2.634   0.778   2.904  0.5378 -0.1996  0.4433
 6513TIP3    H140954   2.588   0.849   2.950 -1.4947  0.8849 -2.9232
 6513TIP3    H240955   2.691   0.823   2.842 -0.8390 -1.3682 -1.8024
 6514TIP3   OH240956   3.677   1.013  14.788  0.5748  0.4801  0.6656
 6514TIP3    H140957   3.672   0.920  14.769 -1.6136  0.5916  0.5146
 6514TIP3    H240958   3.731   1.049  14.717  1.1020 -0.5941  0.5011
 6515TIP3   OH240959   3.093   1.980  16.907 -0.1774  0.3944 -0.4871
 6515TIP3    H140960   3.154   1.917  16.870  0.7293  1.9707 -1.8139
 6515TIP3    H240961   3.115   2.063  16.865 -1.2253  1.6580  1.2786
 6516TIP3   OH240962   4.525   0.049   5.094 -0.2759 -0.0866 -0.4148
 6516TIP3    H140963   4.449  -0.004   5.072 -2.6658  2.7779  0.4128
 6516TIP3    H240964   4.495   0.108   5.162  2.5994  1.4910 -0.3516
 6517TIP3   OH240965   4.852   5.356   2.688 -0.1032 -0.6109  0.8581
 6517TIP3    H140966   4.926   5.395   2.641  0.0285 -0.3994  1.2334
 6517TIP3    H240967   4.785   5.425   2.689 -0.4604 -0.9431  0.1675
 6518TIP3   OH240968   1.249   1.424  15.064  0.2065  0.0946  0.4101
 6518TIP3    H140969   1.298   1.349  15.096 -1.9705 -1.2157  0.8867
 6518TIP3    H240970   1.281   1.438  14.975  2.1282 -0.0228  1.0382
 6519TIP3   OH240971   0.303   4.851  14.581 -0.0507  0.1849 -0.3846
 6519TIP3    H140972   0.344   4.766  14.565  2.1922  1.3804 -1.4457
 6519TIP3    H240973   0.281   4.885  14.494 -3.6853 -0.4822  0.1411
 6520TIP3   OH240974   3.075   5.395  11.616  0.0865 -0.3660 -0.4499
 6520TIP3    H140975   3.116   5.469  11.662  0.3728 -0.2284 -0.9264
 6520TIP3    H240976   2.985   5.423  11.601 -0.2311 -0.7091  0.6898
 6521TIP3   OH240977   4.585   1.822  16.824  0.0068 -0.6401 -0.2690
 6521TIP3    H140978   4.586   1.736  16.866  0.9911  0.7362  2.7813
 6521TIP3    H240979   4.493   1.837  16.804 -0.5242 -1.4482  1.3423
 6522TIP3   OH240980   6.652   0.392   4.039 -0.0332  0.2797 -0.5147
 6522TIP3    H140981   6.589   0.321   4.024 -0.5978  0.9931 -1.6922
 6522TIP3    H240982   6.722   0.352   4.091 -0.5787 -1.0032 -0.7312
 6523TIP3   OH240983   3.311   5.962   2.711 -0.0521 -0.0197  0.0410
 6523TIP3    H140984   3.226   5.960   2.668 -0.2655  0.9342  0.3831
 6523TIP3    H240985   3.350   6.045   2.683 -0.1963  0.6222  1.6581
 6524TIP3   OH240986   1.140   2.202  11.288  0.4222  0.2633  0.2453
 6524TIP3    H140987   1.192   2.278  11.263 -0.1653  0.3024 -0.9132
 6524TIP3    H240988   1.168   2.133  11.229 -1.8647  0.7021 -1.4974
 6525TIP3   OH240989   1.612   5.809   2.529 -0.1832  0.0557 -0.0929
 6525TIP3    H140990   1.607   5.820   2.623  0.7334 -2.3226  0.3059
 6525TIP3    H240991   1.694   5.761   2.514  0.6016  1.8877 -2.2788
 6526TIP3   OH240992   1.538   3.108   3.682 -0.2006  0.4055 -0.1687
 6526TIP3    H140993   1.552   3.109   3.776  1.4942 -1.1795 -0.3390
 6526TIP3    H240994   1.618   3.146   3.646  0.5899 -1.9231 -1.0257
 6527TIP3   OH240995   4.626   4.827   2.742  0.0058 -0.1984  0.0765
 6527TIP3    H140996   4.651   4.809   2.833 -1.1468  1.0882  0.6791
 6527TIP3    H240997   4.662   4.914   2.724 -0.3926 -0.1402 -0.4598
 6528TIP3   OH240998   2.473   5.224   2.254 -0.6355  0.4798 -0.2375
 6528TIP3    H140999   2.420   5.216   2.175 -0.5555  2.5958 -0.5583
 6528TIP3    H241000   2.410   5.243   2.323 -0.4188  2.1416 -0.4645
 6529TIP3   OH241001   2.040   6.819  12.530  0.1910 -0.3344 -0.1797
 6529TIP3    H141002   2.034   6.902  12.576  2.3932 -1.1206  1.7517
 6529TIP3    H241003   2.064   6.843  12.440 -2.6282  1.1726 -0.6233
 6530TIP3   OH241004   0.297   4.787   1.577 -0.1958  0.2231 -0.2077
 6530TIP3    H141005   0.221   4.769   1.522 -0.2673  2.2962 -0.8916
 6530TIP3    H241006   0.271   4.757   1.664 -1.1118 -0.7045 -0.7806
 6531TIP3   OH241007   3.278   1.775   4.006 -0.0521 -0.5005  0.3160
 6531TIP3    H141008   3.293   1.692   3.961  2.2494  0.6587 -1.2571
 6531TIP3    H241009   3.189   1.800   3.981  0.4838 -0.8156 -2.1392
 6532TIP3   OH241010   5.394   5.673  14.421 -0.1755 -0.3014 -1.0778
 6532TIP3    H141011   5.351   5.588  14.433  1.1348 -0.6726  1.7585
 6532TIP3    H241012   5.486   5.657  14.441  0.2938  1.6044 -1.4890
 6533TIP3   OH241013   0.765   6.216   1.524 -0.2223 -0.4184  0.0451
 6533TIP3    H141014   0.763   6.290   1.585 -0.1839 -0.9157  0.6610
 6533TIP3    H241015   0.825   6.243   1.455 -0.2676  0.1559  0.2276
 6534TIP3   OH241016   1.687   5.714  10.594 -0.0815  0.0647  0.0317
 6534TIP3    H141017   1.755   5.648  10.578 -0.4324 -0.1553 -0.5634
 6534TIP3    H241018   1.710   5.751  10.680 -0.5346 -1.6536  0.9467
 6535TIP3   OH241019   2.808   3.681   5.975 -0.2958  0.3487  0.5720
 6535TIP3    H141020   2.714   3.676   5.958 -0.6347 -0.3832  2.4419
 6535TIP3    H241021   2.833   3.768   5.945 -1.1439 -0.1342 -1.7598
 6536TIP3   OH241022   3.893   0.670  13.795  0.9710 -0.1395  0.0216
 6536TIP3    H141023   3.971   0.679  13.851  0.4104  0.9246  0.6430
 6536TIP3    H241024   3.876   0.575  13.795  1.0825 -0.1920  1.5316
 6537TIP3   OH241025   5.489   0.147   5.592 -0.3760  0.3252 -0.0772
 6537TIP3    H141026   5.471   0.060   5.627  0.7551  0.2064  0.2136
 6537TIP3    H241027   5.537   0.131   5.511  0.6239  0.6836  0.4297
 6538TIP3   OH241028   2.888   3.572   1.755 -0.4822 -0.1335 -0.3671
 6538TIP3    H141029   2.872   3.613   1.840  0.1406 -1.5262  0.4405
 6538TIP3    H241030   2.926   3.642   1.702 -0.8048  0.7317  0.5011
 6539TIP3   OH241031   3.665   0.116  15.845  0.1315 -0.1837  0.4879
 6539TIP3    H141032   3.697   0.057  15.776 -1.4745  0.3924 -0.8064
 6539TIP3    H241033   3.723   0.191  15.841  2.0387 -1.4754  1.9723
 6540TIP3   OH241034   1.844   0.072   1.213 -0.6870 -0.1041 -0.0440
 6540TIP3    H141035   1.932   0.111   1.216  0.1229 -1.7964 -0.4899
 6540TIP3    H241036   1.810   0.097   1.128  0.5872 -1.8465 -1.1258
 6541TIP3   OH241037   0.256   5.104   4.830  0.2955 -0.0574  0.5676
 6541TIP3    H141038   0.220   5.114   4.919  0.1830  0.0673  0.5099
 6541TIP3    H241039   0.232   5.015   4.804 -0.2720  0.1334  0.4029
 6542TIP3   OH241040   0.362   1.737   4.147 -0.3381  0.0876 -0.1517
 6542TIP3    H141041   0.416   1.700   4.217 -1.7028  1.7041  1.9105
 6542TIP3    H241042   0.377   1.681   4.072 -0.3864 -3.1231  2.0343
 6543TIP3   OH241043   5.144   2.182   1.265  0.0583 -0.6300  0.6978
 6543TIP3    H141044   5.124   2.186   1.359 -2.1569  0.4054  0.2528
 6543TIP3    H241045   5.201   2.257   1.249  0.4452 -0.8084  1.2024
 6544TIP3   OH241046   4.773   6.320   2.076 -0.3736 -0.4413 -0.5539
 6544TIP3    H141047   4.817   6.356   1.999 -0.9019  0.6970 -0.3409
 6544TIP3    H241048   4.743   6.397   2.125  1.0294 -1.0749  1.4395
 6545TIP3   OH241049   3.715   2.693  16.215  0.1968  0.1050 -0.0913
 6545TIP3    H141050   3.793   2.746  16.194  1.5877 -1.1651  1.5406
 6545TIP3    H241051   3.725   2.614  16.162  0.6144 -0.5062  0.8547
 6546TIP3   OH241052   1.165   2.790   2.890  0.1783  0.5064  0.1899
 6546TIP3    H141053   1.143   2.859   2.826  2.0397  1.5308  0.5669
 6546TIP3    H241054   1.166   2.836   2.974  1.3092 -0.0091  0.4665
 6547TIP3   OH241055   0.344   1.167  14.301  0.0175  0.1537 -0.2909
 6547TIP3    H141056   0.408   1.153  14.232 -0.7859  1.5106 -1.3626
 6547TIP3    H241057   0.356   1.093  14.360  1.3951 -0.5205 -1.3570
 6548TIP3   OH241058   2.229   2.046   3.734  0.0983  0.1269  0.0328
 6548TIP3    H141059   2.168   1.994   3.682  0.0415 -0.5175  0.7324
 6548TIP3    H241060   2.264   2.110   3.672 -0.9098  0.1940 -0.4991
 6549TIP3   OH241061   2.064   5.596  14.485  0.7690 -0.2922 -0.2952
 6549TIP3    H141062   2.095   5.679  14.450  0.7535 -0.3627 -0.4759
 6549TIP3    H241063   2.008   5.560  14.416  0.5142 -0.2982 -0.0864
 6550TIP3   OH241064   4.640   5.249  13.699 -0.0676  0.1114 -0.3342
 6550TIP3    H141065   4.702   5.216  13.764  1.8570  1.3756 -1.4352
 6550TIP3    H241066   4.611   5.333  13.734 -1.5214 -0.6529  0.3654
 6551TIP3   OH241067   4.384   5.963  13.397  0.5711 -0.1581  0.2637
 6551TIP3    H141068   4.355   5.942  13.485 -2.3661  2.3894  0.0796
 6551TIP3    H241069   4.418   6.052  13.403 -0.6643  0.4753 -1.2711
 6552TIP3   OH241070   5.839   2.023  16.883 -0.0213 -0.2186  0.0305
 6552TIP3    H141071   5.921   2.072  16.896 -0.1174 -0.0771  0.1175
 6552TIP3    H241072   5.827   1.976  16.966 -0.4524  0.4078  0.3388
 6553TIP3   OH241073   6.582   0.362   3.463 -0.3432 -0.2557  0.4281
 6553TIP3    H141074   6.493   0.328   3.472 -1.4116  2.5584  1.7669
 6553TIP3    H241075   6.609   0.337   3.375 -2.6083 -0.8595 -0.1603
 6554TIP3   OH241076   3.449   3.352  10.981  0.3628  0.2596 -0.7138
 6554TIP3    H141077   3.446   3.283  10.915  0.5615  0.0744 -0.5321
 6554TIP3    H241078   3.363   3.348  11.024  1.1401 -1.3718  0.8006
 6555TIP3   OH241079   2.511   0.175  14.951 -0.2123  0.5816  0.3917
 6555TIP3    H141080   2.495   0.245  15.014  1.2135  1.6935 -0.4214
 6555TIP3    H241081   2.428   0.166  14.904  0.0123  2.9757 -0.6411
 6556TIP3   OH241082   6.010   2.574  11.075 -0.0599  0.1969 -0.4520
 6556TIP3    H141083   5.921   2.567  11.110  0.0431 -4.6823 -0.4976
 6556TIP3    H241084   6.012   2.510  11.004  3.6226 -0.2751 -0.0971
 6557TIP3   OH241085   6.745   2.728  16.117  0.2127  0.0901  0.4446
 6557TIP3    H141086   6.816   2.714  16.179  0.0847 -1.2385  0.3236
 6557TIP3    H241087   6.781   2.703  16.032 -1.1582 -3.6119  0.7443
 6558TIP3   OH241088   0.741   2.493  15.144 -0.1825 -0.5349  0.4809
 6558TIP3    H141089   0.679   2.498  15.216 -0.5978  0.5235  0.0690
 6558TIP3    H241090   0.748   2.583  15.112 -1.8704 -1.2708 -2.3334
 6559TIP3   OH241091   6.612   1.197   1.226 -0.7194 -0.1929  0.0293
 6559TIP3    H141092   6.573   1.268   1.176 -0.3857  0.5082  0.7309
 6559TIP3    H241093   6.581   1.211   1.316 -1.2372 -1.3675  0.0581
 6560TIP3   OH241094   3.045   5.185   5.441 -0.3698 -0.1474  0.1556
 6560TIP3    H141095   3.004   5.163   5.525 -0.3559 -1.0960 -0.0771
 6560TIP3    H241096   3.013   5.118   5.380 -1.4630  1.2939 -0.9513
 6561TIP3   OH241097   0.135   3.382   4.516  0.4179 -0.1614  0.5800
 6561TIP3    H141098   0.181   3.381   4.600  2.1559 -1.4787 -0.3313
 6561TIP3    H241099   0.132   3.290   4.489 -2.0284 -0.0225  0.1754
 6562TIP3   OH241100   0.485   2.436   2.792 -0.4643  0.4479 -0.0792
 6562TIP3    H141101   0.437   2.517   2.807 -0.5952  0.1964  0.9038
 6562TIP3    H241102   0.516   2.443   2.702 -2.9545  0.3159 -1.0303
 6563TIP3   OH241103   5.451   1.680   6.434  0.4232 -0.2969  0.2713
 6563TIP3    H141104   5.384   1.658   6.498  1.6233 -1.3156  1.2346
 6563TIP3    H241105   5.452   1.606   6.373  1.3838 -0.8169  0.8919
 6564TIP3   OH241106   2.205   0.292  14.941 -0.6747  0.4325  0.3255
 6564TIP3    H141107   2.228   0.336  15.023 -0.0222  1.1359 -0.2187
 6564TIP3    H241108   2.138   0.228  14.966 -0.2123  0.3682  1.4731
 6565TIP3   OH241109   5.633   3.966   0.373  0.7409 -0.6375  0.6005
 6565TIP3    H141110   5.702   3.907   0.342  1.7903  1.2625 -0.8505
 6565TIP3    H241111   5.678   4.026   0.433 -0.2011 -0.9229  1.6257
 6566TIP3   OH241112   0.944   6.615  15.737  0.3848 -0.6682  0.0596
 6566TIP3    H141113   0.867   6.651  15.692 -0.7681 -1.0564  1.6544
 6566TIP3    H241114   1.019   6.657  15.694 -0.7885  1.1344 -0.3165
 6567TIP3   OH241115   1.459   5.982  12.708 -0.0867 -0.4908 -0.0513
 6567TIP3    H141116   1.453   6.001  12.614 -1.3674 -1.0341 -0.1021
 6567TIP3    H241117   1.495   6.062  12.747 -2.3179  0.8668 -0.6416
 6568TIP3   OH241118   3.026   2.439   4.629 -0.6697  0.1417  0.1796
 6568TIP3    H141119   3.021   2.459   4.535 -0.1266 -1.6694 -0.2869
 6568TIP3    H241120   2.964   2.367   4.641  0.1428 -0.4448  0.9496
 6569TIP3   OH241121   4.076   4.880   3.017  0.6762 -0.2391 -0.6230
 6569TIP3    H141122   4.000   4.824   3.001  2.3506 -2.0069 -3.1057
 6569TIP3    H241123   4.089   4.876   3.112 -1.1030 -1.5465 -0.3820
 6570TIP3   OH241124   4.448   5.503   1.605  0.0348 -0.3081 -0.2283
 6570TIP3    H141125   4.500   5.423   1.612  0.4776 -0.0033 -0.0228
 6570TIP3    H241126   4.503   5.563   1.554 -1.0866 -0.7902 -2.1427
 6571TIP3   OH241127   1.888   3.765   0.415 -0.2892 -0.4942  0.0326
 6571TIP3    H141128   1.869   3.842   0.361  0.2974 -1.0947 -1.0944
 6571TIP3    H241129   1.840   3.694   0.373 -0.6116 -0.8009  0.9011
 6572TIP3   OH241130   5.385   1.560  14.671 -0.1839  0.1228  0.1103
 6572TIP3    H141131   5.418   1.476  14.702  0.2752  0.3812  0.3395
 6572TIP3    H241132   5.295   1.564  14.702 -0.3198 -0.4354 -0.2076
 6573TIP3   OH241133   5.916   6.236  14.278  0.1013 -0.0275  0.5809
 6573TIP3    H141134   5.918   6.156  14.331  0.0494 -0.0891  0.4899
 6573TIP3    H241135   5.825   6.242  14.248  0.1611 -0.0637  0.3899
 6574TIP3   OH241136   0.350   4.160   2.933 -0.8236 -0.3397 -0.0239
 6574TIP3    H141137   0.284   4.225   2.910 -0.4152  0.0917  0.0145
 6574TIP3    H241138   0.409   4.206   2.994 -0.6656 -0.8129  0.1864
 6575TIP3   OH241139   5.227   6.568   2.548 -0.3233  0.1785 -0.3454
 6575TIP3    H141140   5.179   6.596   2.625 -0.8726  1.6913 -1.1981
 6575TIP3    H241141   5.190   6.482   2.526 -1.7989  0.7754 -0.2801
 6576TIP3   OH241142   0.713   1.383  14.414 -0.0036 -0.3315  0.3992
 6576TIP3    H141143   0.789   1.422  14.371 -1.1846 -0.3012 -1.8032
 6576TIP3    H241144   0.685   1.449  14.477  1.2575  0.0143  0.6392
 6577TIP3   OH241145   5.994   1.347   5.151  0.0197 -0.1893 -0.3166
 6577TIP3    H141146   5.950   1.429   5.175  2.2582  0.7984  0.7394
 6577TIP3    H241147   5.968   1.285   5.218 -0.4496  0.1145 -0.2114
 6578TIP3   OH241148   5.130   6.499  13.737 -0.2040  0.3441  0.0179
 6578TIP3    H141149   5.118   6.519  13.830 -0.9103  0.5845 -0.1213
 6578TIP3    H241150   5.056   6.541  13.694  0.2178  0.3816 -0.6774
 6579TIP3   OH241151   1.622   1.092   5.969 -0.1110  0.0327 -0.1406
 6579TIP3    H141152   1.559   1.049   6.027 -0.8361  0.6713 -0.4363
 6579TIP3    H241153   1.660   1.162   6.023  0.9785 -0.8752  0.3021
 6580TIP3   OH241154   0.522   3.477  11.649  0.0567 -0.1018 -0.3386
 6580TIP3    H141155   0.586   3.409  11.627  1.5947  1.6711 -1.5424
 6580TIP3    H241156   0.441   3.447  11.608  0.6281 -1.3495 -0.6084
 6581TIP3   OH241157   5.690   5.470   0.658  0.2622 -0.5675  0.4943
 6581TIP3    H141158   5.697   5.563   0.678  0.0553 -0.1489 -1.2815
 6581TIP3    H241159   5.763   5.453   0.599 -0.1542 -1.3618  0.1954
 6582TIP3   OH241160   6.266   1.246  12.498 -0.3560  0.0061 -0.0368
 6582TIP3    H141161   6.198   1.280  12.556 -0.9053  1.5512 -1.4993
 6582TIP3    H241162   6.254   1.294  12.416  2.7814  0.6989 -0.2276
 6583TIP3   OH241163   1.420   0.168  16.239 -0.4090 -0.6238  0.4604
 6583TIP3    H141164   1.403   0.257  16.208 -1.7747 -0.8459  0.5221
 6583TIP3    H241165   1.394   0.112  16.166 -1.9204 -1.0674  1.3039
 6584TIP3   OH241166   0.042   0.462  14.136 -0.3421  0.7710  0.1630
 6584TIP3    H141167   0.093   0.509  14.070  1.1530  1.3815  1.6663
 6584TIP3    H241168   0.089   0.380  14.150 -1.3968  0.0329 -0.4489
 6585TIP3   OH241169   4.699   6.806  13.911 -1.0853 -0.2810 -0.0904
 6585TIP3    H141170   4.675   6.802  14.004 -2.7756 -0.8223 -0.5138
 6585TIP3    H241171   4.616   6.795  13.864 -0.2870  0.1541 -1.6750
 6586TIP3   OH241172   1.968   1.691   1.872 -0.4833 -0.0389  0.1507
 6586TIP3    H141173   2.033   1.688   1.942  2.1304 -2.6733 -2.1066
 6586TIP3    H241174   1.990   1.769   1.821  0.3490 -0.3788 -0.0301
 6587TIP3   OH241175   2.080   3.603  16.916  0.6423 -0.0955 -0.1889
 6587TIP3    H141176   2.123   3.664  16.977 -1.1129  0.4125  0.6033
 6587TIP3    H241177   2.049   3.532  16.972 -0.5664  0.1331 -0.5375
 6588TIP3   OH241178   1.465   1.506   3.705 -0.4969 -0.6302 -0.0618
 6588TIP3    H141179   1.517   1.564   3.648 -1.1685 -0.0026 -0.0472
 6588TIP3    H241180   1.523   1.487   3.778 -0.5827  0.8160  0.4227
 6589TIP3   OH241181   1.225   5.635  17.026  0.1549 -0.6281  0.2109
 6589TIP3    H141182   1.304   5.613  16.977  0.4055  1.5733 -0.5081
 6589TIP3    H241183   1.256   5.663  17.112 -0.1037 -2.2342  0.8705
 6590TIP3   OH241184   2.032   0.972   4.357 -0.5854  0.1920 -0.3991
 6590TIP3    H141185   2.121   0.974   4.393 -0.6032  1.8558 -0.3444
 6590TIP3    H241186   1.984   1.038   4.408 -1.6684 -0.1775 -0.8957
 6591TIP3   OH241187   4.360   5.984  11.856  0.2400  0.3674 -0.2439
 6591TIP3    H141188   4.424   5.915  11.837 -0.7000 -0.2535 -1.2084
 6591TIP3    H241189   4.359   5.989  11.952  0.2111 -1.0591 -0.1471
 6592TIP3   OH241190   4.844   2.435   1.440 -0.4568  0.2721 -0.4486
 6592TIP3    H141191   4.758   2.396   1.456 -0.6755  0.3472 -1.4013
 6592TIP3    H241192   4.833   2.488   1.362 -0.1633  2.2872  0.8091
 6593TIP3   OH241193   6.509   6.283   1.141 -0.1192  0.3798  0.2616
 6593TIP3    H141194   6.450   6.209   1.145 -1.0803  1.1327  0.3631
 6593TIP3    H241195   6.536   6.289   1.049 -0.4188  0.2037  0.1649
 6594TIP3   OH241196   0.792   3.585  14.969 -0.4827  0.2533  0.1975
 6594TIP3    H141197   0.876   3.612  14.931 -0.2414 -1.2712 -0.4257
 6594TIP3    H241198   0.764   3.660  15.021  1.3826  0.7068  0.6025
 6595TIP3   OH241199   6.799   5.776  11.622 -0.2009  0.4335  0.4408
 6595TIP3    H141200   6.874   5.831  11.596  0.1358 -0.5903 -0.8641
 6595TIP3    H241201   6.839   5.694  11.652 -0.7601  0.1733  0.4911
 6596TIP3   OH241202   4.306   0.474   4.178  0.0960  0.5420  0.2336
 6596TIP3    H141203   4.327   0.498   4.088  3.3840 -2.1250  0.1153
 6596TIP3    H241204   4.236   0.409   4.171 -0.8219  1.5423 -0.1977
 6597TIP3   OH241205   0.082   4.555  11.094  0.2683  0.2804  0.4088
 6597TIP3    H141206   0.002   4.518  11.132  0.7240 -1.2271 -0.0248
 6597TIP3    H241207   0.052   4.633  11.047 -1.2527 -1.1531 -1.1590
 6598TIP3   OH241208   6.096   0.784   0.260  0.4142  0.5757 -0.0111
 6598TIP3    H141209   6.189   0.784   0.283 -0.0277  1.2652  1.9909
 6598TIP3    H241210   6.083   0.865   0.211  0.7491  0.7808  0.2354
 6599TIP3   OH241211   0.272   2.205  13.733  0.2735 -0.3032  0.2209
 6599TIP3    H141212   0.198   2.167  13.686 -0.1501 -0.2122  0.8092
 6599TIP3    H241213   0.237   2.228  13.819  0.5259  1.3756 -0.0871
 6600TIP3   OH241214   3.755   3.028  13.691 -0.2162 -0.4518  0.1695
 6600TIP3    H141215   3.729   2.980  13.770 -2.2813  2.6525  1.6067
 6600TIP3    H241216   3.756   2.962  13.622 -0.1813 -2.9862  2.4163
 6601TIP3   OH241217   0.054   6.411  14.577 -0.1919 -0.0951  0.2838
 6601TIP3    H141218   0.011   6.331  14.606 -0.7272 -1.1789 -3.0972
 6601TIP3    H241219  -0.006   6.449  14.513 -0.2008  3.4047  2.1206
 6602TIP3   OH241220   2.342   4.794   1.553  0.6042  0.1579  0.2228
 6602TIP3    H141221   2.255   4.833   1.543  0.3830 -0.5727 -0.8325
 6602TIP3    H241222   2.402   4.864   1.527  0.3400  0.6371  0.8704
 6603TIP3   OH241223   5.458   1.663   3.606 -0.6313  0.0495 -0.3528
 6603TIP3    H141224   5.425   1.632   3.690  0.2335 -0.3787 -0.1615
 6603TIP3    H241225   5.436   1.757   3.604 -0.5472  0.0872  0.3985
 6604TIP3   OH241226   2.454   4.228   5.695 -0.0806 -0.2139 -0.0990
 6604TIP3    H141227   2.360   4.240   5.679 -0.1838 -2.0257 -1.1245
 6604TIP3    H241228   2.495   4.247   5.611  0.3287 -0.6719 -0.0075
 6605TIP3   OH241229   6.324   3.728   4.612 -0.1179 -0.5298  0.2835
 6605TIP3    H141230   6.399   3.781   4.639  0.0263  0.2687 -1.5836
 6605TIP3    H241231   6.349   3.638   4.636  0.2420  0.0235  2.1649
 6606TIP3   OH241232   4.854   0.614  16.305 -0.3076  0.5399  0.4453
 6606TIP3    H141233   4.903   0.696  16.317  1.2856 -0.2720 -0.2665
 6606TIP3    H241234   4.788   0.636  16.240  0.8282  1.0046 -0.6055
 6607TIP3   OH241235   1.719   3.706  16.458 -0.1760 -0.4218  0.2889
 6607TIP3    H141236   1.792   3.708  16.520  0.3309 -0.5925 -0.2817
 6607TIP3    H241237   1.720   3.793  16.418 -2.3339  0.7371  2.5421
 6608TIP3   OH241238   4.120   2.224   5.332  0.2654  0.1129  0.7519
 6608TIP3    H141239   4.092   2.133   5.342  1.6230 -0.4950 -0.5917
 6608TIP3    H241240   4.056   2.261   5.270 -1.2212  0.5761  2.4760
 6609TIP3   OH241241   5.779   4.159   0.508 -0.0573  0.6962 -0.2334
 6609TIP3    H141242   5.850   4.214   0.475  1.3238 -1.3414 -0.8124
 6609TIP3    H241243   5.739   4.212   0.577  1.1893  2.4182 -0.7404
 6610TIP3   OH241244   6.800   1.986   6.675 -0.2174  0.3099  0.2493
 6610TIP3    H141245   6.810   2.079   6.698 -1.2748  0.6403 -0.5751
 6610TIP3    H241246   6.817   1.983   6.581  2.5733 -0.7977  0.6844
 6611TIP3   OH241247   6.812   3.214   5.699  0.2908  0.0229 -1.0701
 6611TIP3    H141248   6.832   3.253   5.784  3.3670 -1.7305 -0.8469
 6611TIP3    H241249   6.717   3.211   5.696  0.0589  0.9034  1.9435
 6612TIP3   OH241250   1.453   0.463  13.289  0.2814  0.1433 -0.0881
 6612TIP3    H141251   1.432   0.382  13.242 -1.5951 -0.5258  1.6999
 6612TIP3    H241252   1.377   0.519  13.274  0.5418  0.6685  0.5166
 6613TIP3   OH241253   5.317   4.977   0.250  0.6946 -0.7861  0.1702
 6613TIP3    H141254   5.245   4.918   0.273  0.2719 -0.3635 -0.0594
 6613TIP3    H241255   5.395   4.935   0.287  0.3849 -1.4347  0.0986
 6614TIP3   OH241256   0.866   5.828  14.881 -0.3440 -0.1096  0.2387
 6614TIP3    H141257   0.937   5.765  14.896  0.3632  0.4837 -0.4580
 6614TIP3    H241258   0.821   5.835  14.964  1.1647  0.3808  1.0554
 6615TIP3   OH241259   1.764   3.961  10.795 -0.0706 -0.4229  0.1830
 6615TIP3    H141260   1.770   4.053  10.768 -2.5834  0.3519  1.8594
 6615TIP3    H241261   1.793   3.961  10.886  1.1678 -1.5841 -0.1852
 6616TIP3   OH241262   0.140   3.349   3.885 -0.1180 -0.3789  0.2758
 6616TIP3    H141263   0.057   3.364   3.928 -0.6941  3.8989 -1.8535
 6616TIP3    H241264   0.122   3.278   3.823 -1.4277 -1.1915  1.5340
 6617TIP3   OH241265   3.522   6.664   4.382 -0.0745 -0.3479  0.1795
 6617TIP3    H141266   3.433   6.645   4.412 -0.4284  2.5563  1.3130
 6617TIP3    H241267   3.559   6.721   4.450  2.5898 -1.2191 -0.4005
 6618TIP3   OH241268   0.811   0.770   2.026  0.2856 -0.6325  0.1773
 6618TIP3    H141269   0.726   0.742   1.995 -1.9640  2.4635  2.8418
 6618TIP3    H241270   0.838   0.839   1.966 -0.7360  0.6167  1.1055
 6619TIP3   OH241271   0.886   5.496   2.666  0.0605 -0.1661  0.4727
 6619TIP3    H141272   0.916   5.584   2.690  1.3141  0.1213 -1.9296
 6619TIP3    H241273   0.846   5.506   2.580  0.2711 -1.9681  0.1210
 6620TIP3   OH241274   2.248   4.342  14.051  1.3006  0.2999 -0.3285
 6620TIP3    H141275   2.252   4.370  13.959  0.6887  0.3222 -0.3496
 6620TIP3    H241276   2.221   4.421  14.098  0.1352 -0.0930 -0.3159
 6621TIP3   OH241277   4.288   3.949   0.686  0.6452 -0.3074 -0.2617
 6621TIP3    H141278   4.195   3.942   0.707  1.0065 -3.0430  0.8120
 6621TIP3    H241279   4.291   4.003   0.607 -1.8130  0.0006 -0.2061
 6622TIP3   OH241280   5.891   3.749  14.950  0.4586  0.2397 -0.2418
 6622TIP3    H141281   5.931   3.729  15.035  0.8465 -0.7718 -0.6468
 6622TIP3    H241282   5.953   3.808  14.908 -0.1800  1.4906  0.5413
 6623TIP3   OH241283   4.359   6.290   3.964 -0.2660  0.3958 -0.7638
 6623TIP3    H141284   4.381   6.371   4.010 -0.6743 -0.2589  0.6410
 6623TIP3    H241285   4.375   6.310   3.872  0.3953  1.8173 -0.3744
 6624TIP3   OH241286   4.118   0.679  13.034 -0.6803  0.1821  0.0141
 6624TIP3    H141287   4.073   0.596  13.023 -0.7816  0.2091  0.2159
 6624TIP3    H241288   4.053   0.737  13.073 -0.4227  0.1658  0.4870
 6625TIP3   OH241289   3.635   2.215  14.682  0.3600 -0.6374  0.3843
 6625TIP3    H141290   3.557   2.269  14.694  1.5761  1.4812 -0.6595
 6625TIP3    H241291   3.649   2.214  14.587  0.9628 -1.9699  0.4700
 6626TIP3   OH241292   2.909   2.628   4.800 -0.3137  0.3124  0.3036
 6626TIP3    H141293   2.940   2.710   4.761  1.0786  0.4618  1.6371
 6626TIP3    H241294   2.943   2.560   4.743 -0.6910  0.6124 -0.2925
 6627TIP3   OH241295   4.051   2.791  14.616 -0.1037  0.3304  0.2785
 6627TIP3    H141296   4.133   2.825  14.579 -0.2797 -1.3147 -1.8069
 6627TIP3    H241297   4.072   2.772  14.708  1.6441  0.5778 -0.0378
 6628TIP3   OH241298   6.805   2.502   0.722  0.0782 -0.3258 -0.2004
 6628TIP3    H141299   6.865   2.474   0.652 -1.3722 -1.0333 -1.2080
 6628TIP3    H241300   6.771   2.587   0.691 -0.4476 -0.5653 -0.2865
 6629TIP3   OH241301   0.655   6.403   2.106 -0.1863  0.1047 -0.3214
 6629TIP3    H141302   0.707   6.359   2.039 -1.0599 -0.8371 -0.4082
 6629TIP3    H241303   0.622   6.332   2.161  1.1589  0.9031  1.6144
 6630TIP3   OH241304   3.185   4.153   3.021 -0.3998 -0.1000  0.5058
 6630TIP3    H141305   3.208   4.197   2.938  0.4782  0.1067  0.8457
 6630TIP3    H241306   3.124   4.213   3.063  0.1621  0.4280  0.5922
 6631TIP3   OH241307   1.896   3.177  16.380 -0.2416  0.6544 -0.4788
 6631TIP3    H141308   1.963   3.192  16.313  2.3020 -0.8333  1.5423
 6631TIP3    H241309   1.890   3.260  16.427 -0.0183  0.8797 -0.8395
 6632TIP3   OH241310   1.072   2.822   5.185  0.1979 -0.2574  0.5645
 6632TIP3    H141311   0.997   2.853   5.236 -1.3924 -0.4146 -1.5759
 6632TIP3    H241312   1.141   2.809   5.250 -1.7287 -0.4961  2.6752
 6633TIP3   OH241313   0.030   5.091   2.663 -0.3430  0.1110 -0.2980
 6633TIP3    H141314   0.004   5.151   2.733 -3.4546  0.1724 -1.3632
 6633TIP3    H241315   0.059   5.149   2.592  1.0262  0.1109  0.2270
 6634TIP3   OH241316   0.320   0.336  12.863 -0.4700  0.2708 -1.0531
 6634TIP3    H141317   0.240   0.283  12.859 -0.7156  0.6126 -0.7867
 6634TIP3    H241318   0.297   0.408  12.922 -0.1817  0.7393 -1.5070
 6635TIP3   OH241319   6.633   6.812  16.979  0.4232  0.1158  0.2483
 6635TIP3    H141320   6.728   6.824  16.969  0.9183 -0.4696  3.3853
 6635TIP3    H241321   6.602   6.896  17.013  0.0357 -0.1217  0.4881
 6636TIP3   OH241322   6.558   4.434   2.273  0.2022  0.1055 -0.1896
 6636TIP3    H141323   6.609   4.380   2.333 -1.1990  0.0948  1.0430
 6636TIP3    H241324   6.561   4.522   2.310  2.1602  0.8845 -1.9944
 6637TIP3   OH241325   6.413   1.709   2.664 -0.5774  0.2399  0.1885
 6637TIP3    H141326   6.476   1.729   2.733  0.2838  1.8465 -1.0179
 6637TIP3    H241327   6.426   1.615   2.647 -0.1408  0.0357  1.5085
 6638TIP3   OH241328   0.934   4.904  13.352  0.0779 -0.1097 -0.0516
 6638TIP3    H141329   0.839   4.916  13.355 -0.0973 -1.4691  1.2859
 6638TIP3    H241330   0.950   4.827  13.407  2.1147  1.0957  1.1680
 6639TIP3   OH241331   3.046   4.441   1.434 -0.2304  0.6432 -0.4940
 6639TIP3    H141332   3.072   4.494   1.510  0.4297 -1.0118  0.4977
 6639TIP3    H241333   2.974   4.490   1.395 -0.5263  1.6199  1.1377
 6640TIP3   OH241334   1.674   5.257  13.809 -0.8904  0.1718 -0.1102
 6640TIP3    H141335   1.694   5.180  13.757  0.5637  2.2436 -2.8403
 6640TIP3    H241336   1.700   5.233  13.898  0.8402 -1.9829 -1.1205
 6641TIP3   OH241337   5.301   1.154   2.088 -0.7965  0.8796  0.1705
 6641TIP3    H141338   5.329   1.231   2.038  0.6689  1.1979  1.4253
 6641TIP3    H241339   5.296   1.084   2.023  4.0629  0.4914 -0.1601
 6642TIP3   OH241340   2.479   6.036  10.332 -0.5604 -0.2265 -0.4183
 6642TIP3    H141341   2.461   5.942  10.333 -1.8111 -0.0676 -2.4564
 6642TIP3    H241342   2.401   6.076  10.371 -0.5225  0.0025 -0.5720
 6643TIP3   OH241343   6.335   6.761  12.830  0.0783 -0.0450  0.3290
 6643TIP3    H141344   6.403   6.707  12.870  0.8078  0.3716 -0.3147
 6643TIP3    H241345   6.293   6.703  12.767  0.8589  0.1282 -0.3612
 6644TIP3   OH241346   2.427   1.994  14.053 -0.2728 -0.2293  0.4442
 6644TIP3    H141347   2.443   2.001  14.147  0.2084  3.5168  0.2511
 6644TIP3    H241348   2.334   1.973  14.046 -0.1295 -1.4724  1.6838
 6645TIP3   OH241349   1.107   3.631  15.444  0.1442  0.3040  0.7672
 6645TIP3    H141350   1.134   3.723  15.439  0.6262  0.1052 -0.4098
 6645TIP3    H241351   1.011   3.634  15.441  0.1676  0.7485  0.3730
 6646TIP3   OH241352   3.357   2.533   5.484  0.2553  0.3734  0.2310
 6646TIP3    H141353   3.352   2.613   5.431 -2.2083  0.9034  1.1199
 6646TIP3    H241354   3.392   2.563   5.568  0.3609  0.3281  0.2017
 6647TIP3   OH241355   6.284   0.708   2.337  0.5371 -0.2002  0.8733
 6647TIP3    H141356   6.315   0.622   2.367 -0.1155 -0.5635  0.5142
 6647TIP3    H241357   6.252   0.692   2.249  1.1486  0.5838  0.4958
 6648TIP3   OH241358   4.042   3.885   3.120  0.0519 -0.1328  0.1479
 6648TIP3    H141359   4.077   3.821   3.182 -0.1846 -0.3045  0.1004
 6648TIP3    H241360   3.951   3.897   3.146 -0.2888 -0.8362 -0.6912
 6649TIP3   OH241361   0.027   5.266  11.829  0.4480 -0.3987  0.5675
 6649TIP3    H141362  -0.060   5.256  11.789  0.3932 -1.2914  0.8934
 6649TIP3    H241363   0.087   5.267  11.754  0.3406 -2.0408  0.4219
 6650TIP3   OH241364   4.954   4.105  13.932  0.0001 -0.6349  0.4958
 6650TIP3    H141365   4.872   4.069  13.967  0.9632 -2.3359  1.0783
 6650TIP3    H241366   4.983   4.168  13.997 -2.0726  1.9387 -0.8637
 6651TIP3   OH241367   2.551   5.501   2.133 -0.3595 -0.0288 -0.1424
 6651TIP3    H141368   2.535   5.429   2.193  1.0108  0.3574  0.7212
 6651TIP3    H241369   2.548   5.579   2.188 -1.8726  0.6053 -1.0695
 6652TIP3   OH241370   1.375   0.063   5.488  0.1686  0.4389 -0.0644
 6652TIP3    H141371   1.287   0.090   5.462  0.1695  0.8876  0.3825
 6652TIP3    H241372   1.369   0.047   5.582  0.1052 -1.3994 -0.3336
 6653TIP3   OH241373   3.777   1.193  16.364  0.0985  0.0876  0.2139
 6653TIP3    H141374   3.830   1.180  16.286  0.5658  0.3046  0.4936
 6653TIP3    H241375   3.839   1.216  16.433  0.1270 -3.1024  1.4353
 6654TIP3   OH241376   0.339   6.286  10.847 -0.2520 -0.4012 -0.1561
 6654TIP3    H141377   0.405   6.254  10.908 -0.0807  1.4508  0.6866
 6654TIP3    H241378   0.332   6.217  10.781  0.0387 -2.1670  1.5674
 6655TIP3   OH241379   2.065   0.428  15.720 -0.2742  0.3642  0.0806
 6655TIP3    H141380   2.040   0.341  15.751  0.6445  0.5340  1.4165
 6655TIP3    H241381   1.982   0.470  15.697 -0.8062 -0.5733  0.2242
 6656TIP3   OH241382   2.595   4.834   4.533  0.8573  0.3314  0.7428
 6656TIP3    H141383   2.606   4.739   4.535  0.5443  0.2932  2.4378
 6656TIP3    H241384   2.548   4.854   4.614 -0.5802  1.7603 -0.3633
 6657TIP3   OH241385   4.726   2.347  11.047 -0.2653  0.5554  0.1437
 6657TIP3    H141386   4.812   2.309  11.034 -1.2251 -1.3414 -0.9906
 6657TIP3    H241387   4.702   2.384  10.962 -1.4225 -0.8237 -0.1598
 6658TIP3   OH241388   0.481   0.861   4.683  0.3236 -0.5300 -0.1006
 6658TIP3    H141389   0.496   0.792   4.618  1.6825 -0.2775 -0.0695
 6658TIP3    H241390   0.505   0.822   4.766  3.1124  0.5446 -0.2965
 6659TIP3   OH241391   0.537   1.183   1.164  0.5626 -0.1065  0.0761
 6659TIP3    H141392   0.628   1.178   1.135 -0.2716  0.6319 -3.0108
 6659TIP3    H241393   0.528   1.271   1.201  1.1043 -0.2072  0.4555
 6660TIP3   OH241394   4.926   1.256   2.186  0.6612  0.0194  0.1623
 6660TIP3    H141395   4.956   1.330   2.133  1.1555  1.1052  1.8856
 6660TIP3    H241396   4.905   1.294   2.271 -4.1862 -0.8724 -0.3231
 6661TIP3   OH241397   6.389   1.865   5.043 -0.0217 -0.0504 -0.7231
 6661TIP3    H141398   6.331   1.817   4.984 -1.1797 -0.3675  0.6097
 6661TIP3    H241399   6.381   1.956   5.017  0.9119 -0.3658 -2.2137
 6662TIP3   OH241400   4.418   1.184  12.168  0.0532  0.5599  0.0073
 6662TIP3    H141401   4.404   1.095  12.136 -1.2892  0.2594  1.3056
 6662TIP3    H241402   4.404   1.178  12.263 -0.4074  2.2069  0.0792
 6663TIP3   OH241403   6.112   4.642  14.585  0.7749 -0.2901  0.2276
 6663TIP3    H141404   6.057   4.584  14.532  1.2046  0.0150 -0.5655
 6663TIP3    H241405   6.194   4.594  14.595  0.6657 -0.3829  0.6966
 6664TIP3   OH241406   5.474   5.978  14.460 -0.3387  0.3531  0.3027
 6664TIP3    H141407   5.430   5.895  14.481  0.3210 -0.0817 -0.0016
 6664TIP3    H241408   5.419   6.018  14.393 -0.2093 -0.2550 -0.1757
 6665TIP3   OH241409   5.023   5.476   2.538  0.1509 -0.7615  0.1794
 6665TIP3    H141410   5.037   5.528   2.459  2.5802 -2.7996 -0.8657
 6665TIP3    H241411   5.077   5.518   2.604 -1.0256  0.3057  0.4954
 6666TIP3   OH241412   4.740   2.689   4.961 -0.1231  0.6352  0.2124
 6666TIP3    H141413   4.646   2.706   4.974 -0.4503 -1.0080  0.2985
 6666TIP3    H241414   4.751   2.598   4.990  1.7335  1.1471  1.2539
 6667TIP3   OH241415   4.246   1.188  12.421  0.3319  0.9734 -0.8276
 6667TIP3    H141416   4.214   1.201  12.510  1.8130 -1.4224  0.1661
 6667TIP3    H241417   4.231   1.095  12.404 -1.6171  1.7119 -3.8684
 6668TIP3   OH241418   6.117   6.578  17.095 -0.3350  0.0656  0.2340
 6668TIP3    H141419   6.067   6.659  17.085  0.1877  0.3360 -0.2063
 6668TIP3    H241420   6.090   6.544  17.180  0.5162  1.4511  1.0990
 6669TIP3   OH241421   4.386   2.237   1.726  0.3236 -0.4025 -0.1440
 6669TIP3    H141422   4.357   2.319   1.687  0.7248 -0.5847 -0.8272
 6669TIP3    H241423   4.440   2.195   1.659  1.2358 -0.6004  0.6870
 6670TIP3   OH241424   2.347   6.101   4.531  0.0170 -0.4660 -0.0430
 6670TIP3    H141425   2.438   6.130   4.538  0.1411 -0.1376 -2.2993
 6670TIP3    H241426   2.295   6.181   4.536 -0.0081 -0.4326 -0.8202
 6671TIP3   OH241427   2.237   2.616  14.429 -0.1566  0.0149 -0.2867
 6671TIP3    H141428   2.242   2.651  14.518  1.3169  1.2413 -0.7898
 6671TIP3    H241429   2.296   2.541  14.430  0.4894  0.5077 -0.4005
 6672TIP3   OH241430   4.539   1.561  16.996 -0.1083  0.2978 -0.1109
 6672TIP3    H141431   4.600   1.509  16.945  0.5427  1.2823 -0.3661
 6672TIP3    H241432   4.568   1.551  17.087  0.1226  0.3686 -0.1781
 6673TIP3   OH241433   6.429   3.695   3.962  0.4732 -0.4917  0.2393
 6673TIP3    H141434   6.473   3.776   3.936 -1.4438  1.2082  1.9045
 6673TIP3    H241435   6.489   3.626   3.937  1.6644  1.3437 -2.4063
 6674TIP3   OH241436   0.381   5.191   2.340  0.5958 -0.1872  0.2100
 6674TIP3    H141437   0.433   5.131   2.393  1.7241  0.7629  0.2147
 6674TIP3    H241438   0.377   5.149   2.254 -1.2990 -1.7729  0.9785
 6675TIP3   OH241439   1.191   5.647   2.413 -0.0651  0.5923  0.8301
 6675TIP3    H141440   1.269   5.629   2.360 -0.5007  1.8556 -0.2854
 6675TIP3    H241441   1.182   5.742   2.411 -2.7574  0.3858 -0.7212
 6676TIP3   OH241442   5.170   0.736  13.140 -0.4538 -0.4386 -0.2710
 6676TIP3    H141443   5.243   0.712  13.084 -0.5450 -1.2101 -0.0697
 6676TIP3    H241444   5.092   0.718  13.088 -0.5079  0.0406 -0.3556
 6677TIP3   OH241445   1.096   6.534   2.383  0.2978  0.0723 -0.5923
 6677TIP3    H141446   1.138   6.459   2.340 -0.7734  0.1390 -1.8174
 6677TIP3    H241447   1.003   6.514   2.382  0.2116  0.0517  1.8586
 6678TIP3   OH241448   6.356   3.709  15.478  0.4777 -0.3888  0.3794
 6678TIP3    H141449   6.415   3.783  15.496  1.3349 -1.2532  1.2783
 6678TIP3    H241450   6.302   3.703  15.557  1.1547 -1.3792  0.7889
 6679TIP3   OH241451   4.398   1.562  13.779 -0.2653  0.0856 -0.2614
 6679TIP3    H141452   4.313   1.588  13.743 -0.1233  0.0622 -0.6206
 6679TIP3    H241453   4.377   1.515  13.860 -0.5037  1.8110  0.7253
 6680TIP3   OH241454   5.122   4.222  15.474 -0.8441  0.3474  0.4053
 6680TIP3    H141455   5.102   4.131  15.451 -0.9928  0.7375 -1.1263
 6680TIP3    H241456   5.056   4.244  15.541 -1.4938 -0.3411  0.0159
 6681TIP3   OH241457   4.730   5.804   0.140  0.2716 -0.3524 -0.0104
 6681TIP3    H141458   4.765   5.857   0.068  1.3039 -1.1023 -0.0903
 6681TIP3    H241459   4.731   5.863   0.216  0.8740 -0.0812 -0.2190
 6682TIP3   OH241460   5.175   1.296   2.309  0.4952 -0.3628 -0.3356
 6682TIP3    H141461   5.118   1.226   2.340 -0.0982  0.2743  0.0426
 6682TIP3    H241462   5.225   1.256   2.238 -0.6816 -0.8553 -0.9255
 6683TIP3   OH241463   3.867   3.790  15.578 -0.8408  0.4026 -1.0139
 6683TIP3    H141464   3.871   3.732  15.502  0.2171  0.5251 -1.0733
 6683TIP3    H241465   3.921   3.865  15.553 -1.1593  0.8208 -0.4540
 6684TIP3   OH241466   2.355   4.562   1.739 -0.0167 -0.2488  0.6127
 6684TIP3    H141467   2.376   4.651   1.709 -0.1118 -0.0633  1.0866
 6684TIP3    H241468   2.280   4.537   1.686  0.3609 -0.2680  0.0791
 6685TIP3   OH241469   4.011   1.280   4.199  0.8228 -0.5044 -0.0470
 6685TIP3    H141470   4.094   1.237   4.220 -0.6601 -3.4671  0.1828
 6685TIP3    H241471   3.947   1.209   4.195 -1.4087  1.4509 -2.0084
 6686TIP3   OH241472   4.557   0.845  16.782  0.9900  0.0277 -0.3655
 6686TIP3    H141473   4.506   0.923  16.762  2.9810  1.4071 -0.3708
 6686TIP3    H241474   4.605   0.825  16.701  1.6630 -0.2608  0.0910
 6687TIP3   OH241475   2.487   2.260   1.570 -0.4502  0.6678  0.0555
 6687TIP3    H141476   2.447   2.189   1.619  0.7447  0.0211  0.1223
 6687TIP3    H241477   2.548   2.301   1.631  1.6229 -0.6220 -1.0557
 6688TIP3   OH241478   1.279   6.555  16.917  0.1443 -0.0499 -0.3261
 6688TIP3    H141479   1.317   6.638  16.888  0.8639  0.2280  1.3231
 6688TIP3    H241480   1.255   6.510  16.835  0.4420  1.4401 -1.2700
 6689TIP3   OH241481   1.473   5.497  14.498  0.0673 -0.0818  0.2761
 6689TIP3    H141482   1.416   5.522  14.426  1.0015  0.9943 -0.1311
 6689TIP3    H241483   1.453   5.405  14.514 -0.2846 -0.2985 -1.2459
 6690TIP3   OH241484   4.819   1.589  14.246  0.3079  0.6711 -0.1235
 6690TIP3    H141485   4.804   1.683  14.251 -2.7151  0.2258  2.1174
 6690TIP3    H241486   4.748   1.556  14.191 -1.0547 -0.5911  2.2251
 6691TIP3   OH241487   0.912   2.940  11.567  0.1877  0.1610 -0.1340
 6691TIP3    H141488   0.853   2.899  11.504 -1.3391  0.4819  1.0233
 6691TIP3    H241489   0.854   2.982  11.630  1.6805  1.0330  0.7134
 6692TIP3   OH241490   4.090   1.914   0.403  0.4721 -0.0778  0.0295
 6692TIP3    H141491   4.076   2.009   0.412 -0.9761 -0.2074 -0.5374
 6692TIP3    H241492   4.069   1.879   0.490 -0.9365 -0.0491 -0.2696
 6693TIP3   OH241493   2.074   5.373  15.807 -0.3818 -0.4627 -0.2513
 6693TIP3    H141494   2.152   5.402  15.855 -1.9130  0.7907  1.6175
 6693TIP3    H241495   2.018   5.450  15.803 -1.7436 -1.4455 -1.1128
 6694TIP3   OH241496   1.066   5.647  12.669 -0.0996  0.2407  0.1688
 6694TIP3    H141497   1.051   5.720  12.729 -1.0781  0.1711  0.0302
 6694TIP3    H241498   1.049   5.569  12.721 -1.0369  0.1813 -0.2033
 6695TIP3   OH241499   3.244   1.467  15.602  0.5651 -0.2857 -0.2599
 6695TIP3    H141500   3.256   1.547  15.551  1.7913 -0.5672 -0.4437
 6695TIP3    H241501   3.239   1.397  15.537 -0.5593 -0.3657 -0.1041
 6696TIP3   OH241502   1.519   6.368  16.669 -0.3495 -0.7294  0.3696
 6696TIP3    H141503   1.541   6.407  16.753 -0.8315  1.7544 -0.5594
 6696TIP3    H241504   1.497   6.277  16.689  2.8326 -1.1946  2.4189
 6697TIP3   OH241505   3.608   1.853  11.803  0.1323 -0.3253 -0.2819
 6697TIP3    H141506   3.598   1.885  11.713  0.7399 -1.9302 -0.9635
 6697TIP3    H241507   3.653   1.924  11.849 -1.6210  1.1834 -0.8010
 6698TIP3   OH241508   4.643   2.337  12.232  0.7183  0.6502 -0.1873
 6698TIP3    H141509   4.650   2.272  12.162 -2.1201 -1.1424  0.9986
 6698TIP3    H241510   4.654   2.421  12.189 -0.2087 -0.4155 -2.6807
 6699TIP3   OH241511   0.353   6.812   2.602 -0.5101  1.0007 -0.5496
 6699TIP3    H141512   0.373   6.734   2.655  0.1458  1.7464  0.3250
 6699TIP3    H241513   0.407   6.801   2.523 -1.9520 -0.4216 -1.4127
 6700TIP3   OH241514   1.670   4.965   1.453  0.6076  0.0292 -0.0867
 6700TIP3    H141515   1.671   4.999   1.363 -0.8162 -1.4831 -0.7337
 6700TIP3    H241516   1.748   5.002   1.494  0.4506  2.0088 -1.4611
 6701TIP3   OH241517   0.573   2.165  16.922  0.5548 -0.7372 -0.3375
 6701TIP3    H141518   0.494   2.170  16.977  0.5695 -0.0339 -0.3694
 6701TIP3    H241519   0.619   2.087  16.953 -0.1288 -1.1260 -0.2837
 6702TIP3   OH241520   0.880   2.432   2.242  0.2788  0.1274  0.1608
 6702TIP3    H141521   0.854   2.466   2.156 -1.1995  0.6513  0.7710
 6702TIP3    H241522   0.897   2.511   2.294 -0.9417 -0.0890  0.9364
 6703TIP3   OH241523   3.070   6.268  12.202 -0.1025 -0.0415 -0.3879
 6703TIP3    H141524   3.024   6.338  12.247 -0.1696 -0.7983  0.7487
 6703TIP3    H241525   3.121   6.225  12.271  2.9830  1.2580 -1.6761
 6704TIP3   OH241526   1.324   1.729  15.629  0.0711  0.0872  0.3494
 6704TIP3    H141527   1.271   1.649  15.624 -0.4627  0.4554  0.0529
 6704TIP3    H241528   1.290   1.775  15.706 -1.4193  1.2855 -0.9674
 6705TIP3   OH241529   5.954   1.466   3.312 -0.3246  0.0896 -0.2013
 6705TIP3    H141530   5.880   1.506   3.358  0.0484 -1.4120  1.8495
 6705TIP3    H241531   5.913   1.405   3.250 -0.8412 -1.0399  1.2048
 6706TIP3   OH241532   2.587   0.503  13.756 -0.3429  0.2614 -0.1319
 6706TIP3    H141533   2.556   0.525  13.668 -2.6417  1.7687  0.9478
 6706TIP3    H241534   2.658   0.564  13.772 -0.3626  0.4389 -0.6856
 6707TIP3   OH241535   5.032   6.251  13.280 -0.5456  0.1591  0.4857
 6707TIP3    H141536   4.985   6.302  13.214 -0.9150 -0.0938  0.5531
 6707TIP3    H241537   5.112   6.301  13.295  0.0125 -0.2758 -0.8602
 6708TIP3   OH241538   3.367   2.021  16.567 -0.4252  0.2443 -1.1384
 6708TIP3    H141539   3.443   2.042  16.512  0.8133 -1.4726 -0.1876
 6708TIP3    H241540   3.404   1.975  16.642 -2.4366 -0.6644 -0.6415
 6709TIP3   OH241541   6.165   2.802   4.499  0.1567 -0.2203 -0.3473
 6709TIP3    H141542   6.155   2.776   4.407 -3.3413 -0.7882  0.0593
 6709TIP3    H241543   6.153   2.897   4.499  2.0954  0.0774 -0.6001
 6710TIP3   OH241544   5.231   4.976  13.185 -0.2424 -0.4522  0.1201
 6710TIP3    H141545   5.278   5.059  13.180 -1.0116 -0.0275 -0.2133
 6710TIP3    H241546   5.276   4.926  13.253 -0.7002  0.8364  1.4081
 6711TIP3   OH241547   5.851   0.623  16.694 -0.0136  0.2246 -0.1098
 6711TIP3    H141548   5.786   0.585  16.634 -1.3720  2.0537  0.1227
 6711TIP3    H241549   5.932   0.576  16.674 -0.5979  0.1787 -2.8145
 6712TIP3   OH241550   5.285   1.454   2.518 -0.1828 -0.7425  0.3480
 6712TIP3    H141551   5.365   1.401   2.517  0.6352  0.4085 -1.3622
 6712TIP3    H241552   5.231   1.416   2.449 -0.6016 -0.7657  0.6839
 6713TIP3   OH241553   1.276   2.919  13.639 -0.3149  0.1696  0.5482
 6713TIP3    H141554   1.299   2.829  13.615  0.6507  0.1969  1.3212
 6713TIP3    H241555   1.232   2.912  13.723  0.9480  0.5152  1.2626
 6714TIP3   OH241556   3.425   6.383  12.301 -0.1113 -0.3790  0.1221
 6714TIP3    H141557   3.443   6.289  12.296 -0.0079 -0.3196 -0.7960
 6714TIP3    H241558   3.511   6.424  12.307 -0.0513 -0.2613 -1.2301
 6715TIP3   OH241559   2.752   6.487  15.306  0.2651  0.0200  0.3585
 6715TIP3    H141560   2.753   6.500  15.211  0.1817  0.2727  0.3923
 6715TIP3    H241561   2.662   6.459  15.325 -0.2373  1.6525  0.5783
 6716TIP3   OH241562   2.309   6.322  13.538  0.1696  0.2074 -0.0119
 6716TIP3    H141563   2.253   6.307  13.462  0.1187  1.4972 -0.2418
 6716TIP3    H241564   2.365   6.244  13.542 -1.1699 -0.7937 -0.1667
 6717TIP3   OH241565   2.492   5.682   0.083  0.2601 -0.3373  0.0507
 6717TIP3    H141566   2.502   5.764   0.033  0.8424 -0.3156  0.2000
 6717TIP3    H241567   2.570   5.631   0.061 -0.8386 -1.5264 -1.2689
 6718TIP3   OH241568   3.950   2.847   3.933  0.0526 -0.0460 -0.3783
 6718TIP3    H141569   3.895   2.773   3.904 -0.0796  0.0321 -0.3267
 6718TIP3    H241570   3.946   2.844   4.029  1.6412 -1.1785 -0.3049
 6719TIP3   OH241571   1.629   2.448  12.637  0.2105  0.4720 -0.0278
 6719TIP3    H141572   1.551   2.433  12.690  0.7288 -1.8211  0.1606
 6719TIP3    H241573   1.685   2.503  12.693 -0.2913  0.1901  0.7686
 6720TIP3   OH241574   4.162   5.856   5.746 -0.3875 -0.1710 -0.3079
 6720TIP3    H141575   4.164   5.816   5.660  2.5953  0.3636 -0.5763
 6720TIP3    H241576   4.169   5.783   5.807  2.5530 -0.3597 -0.7333
 6721TIP3   OH241577   2.289   4.139   0.271 -0.2130  0.8667 -0.1108
 6721TIP3    H141578   2.251   4.072   0.327 -0.4668  1.5686  0.5795
 6721TIP3    H241579   2.216   4.174   0.220  0.0997 -0.1226 -1.2841
 6722TIP3   OH241580   1.570   3.740   2.050 -0.7162 -0.2254 -0.0331
 6722TIP3    H141581   1.609   3.812   2.099 -0.5917 -0.2559 -0.0861
 6722TIP3    H241582   1.509   3.783   1.990 -0.8086 -0.1819  0.0915
 6723TIP3   OH241583   3.684   2.536   0.046 -0.1202  0.8952  0.8508
 6723TIP3    H141584   3.610   2.519  -0.013  0.5452  0.0224  0.2334
 6723TIP3    H241585   3.736   2.456   0.043  1.3589  1.8241  0.5113
 6724TIP3   OH241586   4.449   1.515  14.287 -0.5988  0.6824 -0.4613
 6724TIP3    H141587   4.421   1.578  14.354  1.1948  1.5704 -0.4766
 6724TIP3    H241588   4.521   1.467  14.329 -1.3033 -0.7159 -0.8031
 6725TIP3   OH241589   4.264   0.824   0.101  0.5211  0.3428 -0.8702
 6725TIP3    H141590   4.181   0.872   0.104  1.1582  1.7211  4.0373
 6725TIP3    H241591   4.314   0.866   0.031 -1.6318  1.8203 -1.6270
 6726TIP3   OH241592   5.156   4.608  16.671 -0.3190 -0.0552 -0.1886
 6726TIP3    H141593   5.211   4.681  16.644  0.4582 -0.4976  0.1486
 6726TIP3    H241594   5.141   4.622  16.764 -0.9941  0.1951 -0.3301
 6727TIP3   OH241595   6.790   5.569   0.712 -0.6535  0.0221  0.3654
 6727TIP3    H141596   6.839   5.544   0.634  0.0710 -3.4558  1.7464
 6727TIP3    H241597   6.707   5.521   0.704 -0.5899 -0.3412  1.6631
 6728TIP3   OH241598   4.426   1.850   0.818 -0.0868  0.2815  0.3433
 6728TIP3    H141599   4.350   1.885   0.772  1.0432  0.2071 -1.7273
 6728TIP3    H241600   4.488   1.923   0.822  1.3959 -0.7197 -1.9676
 6729TIP3   OH241601   0.200   3.556   3.273 -0.1717  0.5423 -0.2392
 6729TIP3    H141602   0.260   3.604   3.215 -0.5185  0.7073 -0.4678
 6729TIP3    H241603   0.114   3.568   3.233 -0.6565  1.9453  1.1301
 6730TIP3   OH241604   1.718   3.247   3.846 -0.3445 -0.1163 -0.0716
 6730TIP3    H141605   1.710   3.266   3.940 -1.6475 -1.8269  0.2069
 6730TIP3    H241606   1.781   3.174   3.843  0.3250  0.4723 -0.6216
 6731TIP3   OH241607   0.011   3.986  15.017 -0.3164 -0.1271 -0.1755
 6731TIP3    H141608  -0.025   4.071  15.045 -0.3199 -0.1531 -0.1013
 6731TIP3    H241609  -0.062   3.926  15.022 -0.1678 -0.2666  0.3622
 6732TIP3   OH241610   3.229   6.125   4.018  0.1560 -0.8021  0.4551
 6732TIP3    H141611   3.249   6.150   4.108 -1.2076 -0.9697  0.8250
 6732TIP3    H241612   3.270   6.194   3.965  1.8826 -1.2665  1.1089
 6733TIP3   OH241613   5.538   1.938   2.877 -0.0279  0.2143 -0.0797
 6733TIP3    H141614   5.478   1.901   2.943 -1.1652 -1.3193 -1.8802
 6733TIP3    H241615   5.482   1.957   2.802  1.3973  0.9034 -1.0110
 6734TIP3   OH241616   6.449   4.987  12.510 -0.6128  0.4963 -0.0431
 6734TIP3    H141617   6.416   4.945  12.430  1.3920  0.3599 -0.8432
 6734TIP3    H241618   6.463   4.914  12.570  1.6829  0.0748 -1.0019
 6735TIP3   OH241619   1.931   1.494  11.660  0.3325 -0.3166 -0.2012
 6735TIP3    H141620   1.985   1.441  11.602 -0.5238 -0.7247 -0.6485
 6735TIP3    H241621   1.842   1.482  11.627 -0.0699  0.0889  0.7074
 6736TIP3   OH241622   5.175   1.082   4.084 -0.1555 -0.0250 -0.0941
 6736TIP3    H141623   5.227   1.108   4.160 -0.4471 -0.5759  0.2967
 6736TIP3    H241624   5.209   1.136   4.012  1.4965 -0.9386 -0.0315
 6737TIP3   OH241625   5.284   6.819  13.657  0.1103 -0.2614 -0.2759
 6737TIP3    H141626   5.200   6.865  13.649  0.4404  0.5927  0.9156
 6737TIP3    H241627   5.348   6.888  13.673  0.8057 -1.0462  0.3946
 6738TIP3   OH241628   1.043   5.254   0.342  0.3135 -0.2247 -0.1971
 6738TIP3    H141629   0.947   5.256   0.338  0.3085 -0.2281 -0.0881
 6738TIP3    H241630   1.062   5.187   0.408  0.4078 -1.3778 -1.3528
 6739TIP3   OH241631   5.073   4.774  14.171 -0.2680 -0.2579  0.6340
 6739TIP3    H141632   5.003   4.832  14.201  1.0821  1.8158  0.0533
 6739TIP3    H241633   5.051   4.753  14.081  0.5810  1.7764 -0.1227
 6740TIP3   OH241634   4.102   1.441   1.720  0.2755 -0.3516 -0.3103
 6740TIP3    H141635   4.037   1.509   1.704 -0.3614 -0.5416  1.2661
 6740TIP3    H241636   4.091   1.419   1.813  2.2808 -0.7168 -0.1191
 6741TIP3   OH241637   6.079   2.261   4.916  0.1702  0.1731  0.0278
 6741TIP3    H141638   6.039   2.227   4.997 -1.3372  1.9580  0.0816
 6741TIP3    H241639   6.026   2.336   4.892  1.6179  0.7119 -1.7278
 6742TIP3   OH241640   0.544   6.671  17.104  0.5406  0.3285  0.1039
 6742TIP3    H141641   0.526   6.752  17.151  0.2803  0.0279  0.5324
 6742TIP3    H241642   0.504   6.602  17.157  1.2559 -0.1476  0.0523
 6743TIP3   OH241643   5.075   2.880   2.877 -0.5192  0.4199  0.1369
 6743TIP3    H141644   5.064   2.857   2.969  1.2294  0.5576  0.4103
 6743TIP3    H241645   5.063   2.797   2.830  1.2088 -0.2001  0.7333
 6744TIP3   OH241646   4.031   2.694   0.303  0.0328 -0.0125  0.1864
 6744TIP3    H141647   3.996   2.759   0.241 -1.2229  0.3196  1.1802
 6744TIP3    H241648   4.050   2.745   0.382  1.8431 -0.3869  0.0150
 6745TIP3   OH241649   6.442   6.614  11.662  0.5544  0.3396 -0.0892
 6745TIP3    H141650   6.428   6.578  11.750  1.1812 -2.2890 -0.9709
 6745TIP3    H241651   6.359   6.602  11.618  0.4597  0.9857 -0.0983
 6746TIP3   OH241652   0.568   3.526   2.974 -0.6211 -0.1700  0.2876
 6746TIP3    H141653   0.599   3.437   2.988  1.3415  0.0192 -2.1409
 6746TIP3    H241654   0.504   3.519   2.903 -1.4624  0.2277  0.9885
 6747TIP3   OH241655   1.698   1.307   2.263  0.5169 -0.4042  0.4097
 6747TIP3    H141656   1.673   1.313   2.171  0.0976  0.9611  0.6013
 6747TIP3    H241657   1.616   1.286   2.308  0.3218  0.8398  0.6710
 6748TIP3   OH241658   2.018   3.104  15.039  0.3075 -0.5854 -0.0194
 6748TIP3    H141659   2.056   3.185  15.072 -0.6743  0.6569 -1.8040
 6748TIP3    H241660   1.991   3.057  15.118  0.9722  0.7658  1.0596
 6749TIP3   OH241661   3.839   4.230  13.258  0.2884 -0.5467  0.0453
 6749TIP3    H141662   3.760   4.235  13.312  0.5128  0.0930  0.3252
 6749TIP3    H241663   3.900   4.292  13.299  0.3457  0.2075 -1.1147
 6750TIP3   OH241664   0.157   2.139   2.727  0.0490 -0.0924 -0.5217
 6750TIP3    H141665   0.134   2.207   2.791 -2.3872  0.9650 -2.3799
 6750TIP3    H241666   0.224   2.087   2.771 -0.3342  1.5530  2.2380
 6751TIP3   OH241667   4.352   2.170   5.207  0.6539  0.4347  0.0741
 6751TIP3    H141668   4.261   2.183   5.234  0.0167 -1.0323 -1.2134
 6751TIP3    H241669   4.367   2.237   5.139  0.1603 -0.0248 -0.4980
 6752TIP3   OH241670   0.241   6.339  15.657  0.1341  0.2311 -0.4465
 6752TIP3    H141671   0.176   6.272  15.635 -0.8803  1.4189 -1.1885
 6752TIP3    H241672   0.265   6.319  15.748  0.1187 -1.3203 -0.7445
 6753TIP3   OH241673   1.930   5.395  16.208  0.1478 -0.6168  0.4265
 6753TIP3    H141674   1.960   5.310  16.175  0.9993 -0.5243  0.9139
 6753TIP3    H241675   1.895   5.375  16.295 -0.1377 -0.5503  0.3244
 6754TIP3   OH241676   3.366   3.876  13.551  0.1375 -0.2427  0.3113
 6754TIP3    H141677   3.373   3.952  13.609 -1.2505  0.0979  0.0744
 6754TIP3    H241678   3.331   3.807  13.608 -1.2516  0.0991 -0.0786
 6755TIP3   OH241679   2.868   1.399  13.715  0.0940  0.5630  0.2612
 6755TIP3    H141680   2.927   1.423  13.643 -0.9009 -0.3844 -0.9167
 6755TIP3    H241681   2.816   1.477  13.730 -1.1715  0.1247 -1.5755
 6756TIP3   OH241682   3.798   5.106   6.009  0.6337 -0.6669 -0.3593
 6756TIP3    H141683   3.773   5.014   6.003 -1.7381 -0.2034  1.1597
 6756TIP3    H241684   3.889   5.105   6.038  0.1592 -2.5631  1.2538
 6757TIP3   OH241685   6.409   6.663   0.485 -0.6486 -0.3212 -0.1173
 6757TIP3    H141686   6.482   6.696   0.433 -0.6889  0.1210  0.1062
 6757TIP3    H241687   6.448   6.599   0.544 -0.6217 -0.9299 -0.7833
 6758TIP3   OH241688   6.658   2.819  12.626  0.2735  0.2553  0.4590
 6758TIP3    H141689   6.620   2.732  12.612  1.0699  0.3506 -3.4388
 6758TIP3    H241690   6.750   2.809  12.602  0.8707  1.7886  1.9254
 6759TIP3   OH241691   4.855   5.292   1.163  0.1940  0.4116  0.7384
 6759TIP3    H141692   4.774   5.242   1.166  2.2251 -3.1653  1.1776
 6759TIP3    H241693   4.867   5.325   1.252 -0.0919 -0.2571  1.0256
 6760TIP3   OH241694   0.334   3.935   3.365 -0.3131 -0.5260  0.0195
 6760TIP3    H141695   0.382   3.853   3.360 -1.1203 -0.9613 -0.8811
 6760TIP3    H241696   0.256   3.915   3.417  0.1691  0.0421  1.0082
 6761TIP3   OH241697   5.714   4.297   2.543 -0.7553 -0.1966 -0.6904
 6761TIP3    H141698   5.713   4.303   2.638 -4.1421 -1.3998 -0.5200
 6761TIP3    H241699   5.754   4.212   2.525 -0.8678 -0.3311 -0.3098
 6762TIP3   OH241700   1.240   0.790  12.117 -0.4278  0.6731  0.1668
 6762TIP3    H141701   1.214   0.816  12.205 -3.9459  0.5001 -0.6763
 6762TIP3    H241702   1.250   0.695  12.122 -1.6439  0.5278  0.2228
 6763TIP3   OH241703   2.571   0.329  15.776  0.1645 -0.4833 -0.1175
 6763TIP3    H141704   2.487   0.362  15.809  0.9524 -0.2721  1.8236
 6763TIP3    H241705   2.631   0.403  15.787  0.9146 -1.0824 -0.1577
 6764TIP3   OH241706   1.361   3.914   1.320  0.0082  0.4451  0.0056
 6764TIP3    H141707   1.269   3.936   1.308 -0.0689  0.4830  0.6413
 6764TIP3    H241708   1.395   3.904   1.231 -0.5785  0.5482 -0.2340
 6765TIP3   OH241709   0.108   1.174  11.830  0.6652  0.5791  0.1497
 6765TIP3    H141710   0.064   1.249  11.871  0.5539  0.5346  0.1113
 6765TIP3    H241711   0.176   1.213  11.776  0.4817  0.6614 -0.0221
 6766TIP3   OH241712   4.301   2.696   4.578 -0.1116  0.2829  0.2385
 6766TIP3    H141713   4.369   2.746   4.532 -0.2034 -0.2323 -0.4778
 6766TIP3    H241714   4.348   2.622   4.616 -0.3296 -0.2954 -0.6023
 6767TIP3   OH241715   3.820   0.567  15.533 -0.2221  0.6023 -0.2390
 6767TIP3    H141716   3.869   0.641  15.569  1.5903 -0.5078 -0.3198
 6767TIP3    H241717   3.769   0.534  15.607  1.4895 -0.0717  0.6943
 6768TIP3   OH241718   3.430   0.960  15.249 -0.6747 -0.3408  0.4973
 6768TIP3    H141719   3.358   0.916  15.204  0.4800 -1.3741 -0.4072
 6768TIP3    H241720   3.489   0.987  15.179 -0.0351  0.2229  1.2401
 6769TIP3   OH241721   1.191   6.782   2.657  0.0445 -0.4031 -0.0284
 6769TIP3    H141722   1.099   6.762   2.675 -0.0600  0.7642  0.8428
 6769TIP3    H241723   1.236   6.764   2.739  0.3732  0.3453 -0.0401
 6770TIP3   OH241724   5.757   2.649  14.494  0.0855  0.0051  0.8207
 6770TIP3    H141725   5.721   2.563  14.473  1.4137 -1.0541  2.6489
 6770TIP3    H241726   5.725   2.668  14.583  0.8820  0.8088  0.9505
 6771TIP3   OH241727   5.997   4.767   3.551 -0.2176 -0.0236  0.2200
 6771TIP3    H141728   5.995   4.691   3.609  0.0689 -1.0755 -1.1169
 6771TIP3    H241729   6.040   4.835   3.603 -0.2279 -0.8371  1.3392
 6772TIP3   OH241730   0.621   1.252   3.759  0.2648  0.6001 -0.2112
 6772TIP3    H141731   0.709   1.216   3.748  0.1886  0.3656 -0.0626
 6772TIP3    H241732   0.629   1.344   3.732  0.7277  0.7795  0.4952
 6773TIP3   OH241733   2.404   6.015  12.888  0.0065  0.1699  0.2363
 6773TIP3    H141734   2.438   5.969  12.811 -0.5502 -1.2602  0.8036
 6773TIP3    H241735   2.346   6.082  12.853  0.4639  0.1338 -0.6121
 6774TIP3   OH241736   0.739   6.795  16.660  0.4956  0.0128  0.2886
 6774TIP3    H141737   0.686   6.868  16.627  1.1653  0.3496 -0.0629
 6774TIP3    H241738   0.754   6.740  16.583  0.7048 -0.0453  0.3704
 6775TIP3   OH241739   0.388   0.551  11.571 -0.0019  0.3708  0.2622
 6775TIP3    H141740   0.412   0.585  11.485  1.0633 -0.9365  0.0129
 6775TIP3    H241741   0.383   0.628  11.627  0.6284  1.1095 -0.6723
 6776TIP3   OH241742   2.337   3.434  15.667  0.2108 -0.4947  0.1140
 6776TIP3    H141743   2.387   3.515  15.679 -0.8100 -0.0456  1.7975
 6776TIP3    H241744   2.363   3.402  15.581  1.2124  1.2225 -0.2778
 6777TIP3   OH241745   1.173   6.459   5.085 -0.0170 -0.2108  0.2019
 6777TIP3    H141746   1.257   6.415   5.101  0.3464  0.1216 -0.7546
 6777TIP3    H241747   1.180   6.493   4.996 -0.8321  0.5891  0.4320
 6778TIP3   OH241748   3.598   1.319  12.871  0.4785  0.1762  0.1543
 6778TIP3    H141749   3.516   1.275  12.895  0.5936  0.3590  0.9233
 6778TIP3    H241750   3.570   1.395  12.819  0.0192  1.1658  1.7680
 6779TIP3   OH241751   5.926   6.546   5.708 -0.3613  0.1224 -0.2182
 6779TIP3    H141752   5.924   6.472   5.769 -0.9221  1.6891  1.7680
 6779TIP3    H241753   5.855   6.527   5.646 -0.4073 -1.0504  0.1654
 6780TIP3   OH241754   1.105   1.682   6.270  0.1258  0.1088 -0.0050
 6780TIP3    H141755   1.132   1.670   6.361  0.5958  0.2612 -0.1201
 6780TIP3    H241756   1.175   1.736   6.232 -1.1026  1.8238  0.0720
 6781TIP3   OH241757   0.388   2.345   1.850 -0.3129 -0.4026 -0.1303
 6781TIP3    H141758   0.314   2.306   1.804 -0.7720 -0.1711  0.4036
 6781TIP3    H241759   0.351   2.381   1.930  0.7570 -2.3813  1.3236
 6782TIP3   OH241760   4.357   5.106  12.690  0.3955 -0.4386 -0.1331
 6782TIP3    H141761   4.313   5.121  12.606 -3.8900 -1.0072  1.7600
 6782TIP3    H241762   4.355   5.191  12.734  3.1550  0.0043 -0.6694
 6783TIP3   OH241763   6.725   1.590  16.347  0.5310 -0.0774 -0.1218
 6783TIP3    H141764   6.752   1.589  16.439  2.7706  1.9146 -0.6471
 6783TIP3    H241765   6.665   1.665  16.341 -1.4258 -1.5585  0.0837
 6784TIP3   OH241766   4.795   3.483  11.586  0.1412 -0.6369 -0.2863
 6784TIP3    H141767   4.736   3.473  11.512  0.2401 -0.7332 -0.3528
 6784TIP3    H241768   4.867   3.422  11.568  0.5572 -0.0982 -0.5063
 6785TIP3   OH241769   2.159   5.352  17.003  0.3773 -0.6621 -0.2873
 6785TIP3    H141770   2.154   5.279  16.942 -0.2154 -0.9873  0.1309
 6785TIP3    H241771   2.132   5.314  17.087  0.9685 -0.1755  0.1311
 6786TIP3   OH241772   6.537   2.037  15.477  0.2994  0.2247 -0.1755
 6786TIP3    H141773   6.526   1.997  15.390 -0.5868 -3.7079  1.5048
 6786TIP3    H241774   6.449   2.068  15.500  0.3727  0.6053 -0.4111
 6787TIP3   OH241775   3.161   2.201   3.299  0.0344 -0.6790  0.1222
 6787TIP3    H141776   3.092   2.262   3.324 -0.3029 -0.4878 -1.1826
 6787TIP3    H241777   3.180   2.152   3.378 -0.4452  0.3908  0.9195
 6788TIP3   OH241778   4.524   2.007  14.157 -0.4650 -0.3051 -0.1765
 6788TIP3    H141779   4.468   1.970  14.089 -0.9855  0.2268 -0.0520
 6788TIP3    H241780   4.546   2.095  14.125  0.4245 -0.5589 -0.2897
 6789TIP3   OH241781   5.395   6.765  13.349  0.2435 -0.0263  0.0308
 6789TIP3    H141782   5.466   6.745  13.410  0.2756  0.9832  0.3445
 6789TIP3    H241783   5.390   6.861  13.349 -0.7676 -0.0694 -0.3964
 6790TIP3   OH241784   4.660   5.372  12.711 -0.0835  0.0594  0.5412
 6790TIP3    H141785   4.721   5.443  12.691 -0.3889  0.8813  2.2949
 6790TIP3    H241786   4.653   5.322  12.629  2.6625  0.0962  0.2043
 6791TIP3   OH241787   3.920   4.001  12.737  0.3446 -0.0555 -0.3505
 6791TIP3    H141788   3.952   4.089  12.714 -1.4951  1.1527  1.3892
 6791TIP3    H241789   3.952   3.987  12.826 -2.2267  0.3982  0.7213
 6792TIP3   OH241790   6.229   4.140   2.911 -0.0576  0.3827 -0.0104
 6792TIP3    H141791   6.265   4.069   2.859  2.1078 -0.2578  2.1520
 6792TIP3    H241792   6.181   4.096   2.982 -1.3656  1.1743 -0.3729
 6793TIP3   OH241793   3.685   6.496  13.949 -0.3194  0.4709  0.1825
 6793TIP3    H141794   3.613   6.451  13.993 -1.0997  1.2035 -0.3223
 6793TIP3    H241795   3.652   6.584  13.933  0.2781  0.4858 -1.0630
 6794TIP3   OH241796   2.036   0.298   6.102 -0.2502 -0.1445 -0.0086
 6794TIP3    H141797   2.073   0.251   6.176 -0.7412  0.1745  0.4472
 6794TIP3    H241798   2.069   0.387   6.112 -1.3743  0.2268  0.5893
 6795TIP3   OH241799   6.017   1.351   4.462  0.0169  0.0071  0.0417
 6795TIP3    H141800   5.988   1.295   4.390 -0.8538 -0.1631  0.5022
 6795TIP3    H241801   5.998   1.440   4.432  1.5346  0.0954 -0.7488
 6796TIP3   OH241802   6.408   1.237   1.408 -0.7855  0.0348  0.2886
 6796TIP3    H141803   6.429   1.321   1.449 -3.4166  2.0921 -2.1758
 6796TIP3    H241804   6.315   1.244   1.385 -1.4635 -4.0478  0.9271
 6797TIP3   OH241805   5.008   2.829  16.879 -0.4626  0.2226 -0.3977
 6797TIP3    H141806   4.981   2.757  16.822 -1.6165 -0.2258  0.6743
 6797TIP3    H241807   4.946   2.900  16.860 -0.7556  0.1259  0.1782
 6798TIP3   OH241808   4.855   1.806  16.507 -0.0827 -0.3972  0.1708
 6798TIP3    H141809   4.806   1.884  16.482  0.3496 -0.0650  0.3555
 6798TIP3    H241810   4.845   1.746  16.433  2.4646  1.1446 -1.5721
 6799TIP3   OH241811   1.229   3.283   3.342 -0.4273 -0.2551  0.1745
 6799TIP3    H141812   1.215   3.374   3.316 -2.0558 -0.5417 -0.0609
 6799TIP3    H241813   1.321   3.279   3.367  0.2707  0.9328 -1.9643
 6800TIP3   OH241814   2.073   0.565   6.278 -0.2954 -0.0106  0.0027
 6800TIP3    H141815   2.148   0.531   6.327  1.3047  1.0273 -1.6173
 6800TIP3    H241816   2.052   0.647   6.321  1.2811  1.0332 -1.1084
 6801TIP3   OH241817   1.995   1.650  14.715  0.1649 -0.4314  0.1562
 6801TIP3    H141818   2.041   1.616  14.638 -2.0676 -0.1377 -1.4094
 6801TIP3    H241819   2.059   1.707  14.758  1.7059 -1.1514 -1.0620
 6802TIP3   OH241820   2.015   6.461  13.489  0.1851 -0.5031  0.4217
 6802TIP3    H141821   2.035   6.547  13.454  0.5845 -0.5625  0.4979
 6802TIP3    H241822   2.042   6.400  13.421  0.8376 -0.6127  0.7754
 6803TIP3   OH241823   2.976   1.715  10.980  0.5297  0.8520  0.2147
 6803TIP3    H141824   3.034   1.688  10.909  1.2216 -2.4921  1.8904
 6803TIP3    H241825   2.906   1.650  10.980 -0.9842  2.4074  0.8987
 6804TIP3   OH241826   1.980   4.748  13.849 -0.1810  0.0026  0.3885
 6804TIP3    H141827   1.953   4.815  13.786 -1.6041 -2.2864 -1.6275
 6804TIP3    H241828   2.074   4.762  13.860 -0.2135  1.5308 -0.9355
 6805TIP3   OH241829   5.904   4.982  11.491  0.1990  0.4252  0.0146
 6805TIP3    H141830   5.959   4.949  11.419 -1.5538 -1.1717 -0.6982
 6805TIP3    H241831   5.898   4.908  11.552 -1.4880  0.3455 -0.1851
 6806TIP3   OH241832   5.071   6.368   0.954  0.8998  0.0265  0.2211
 6806TIP3    H141833   4.999   6.342   0.897  1.6946  1.1512 -1.3888
 6806TIP3    H241834   5.030   6.418   1.024 -0.1502 -1.7159  0.9202
 6807TIP3   OH241835   4.772   1.830  11.554  0.6298 -0.0273  0.1778
 6807TIP3    H141836   4.708   1.818  11.624  2.9981 -1.0669  2.3129
 6807TIP3    H241837   4.774   1.924  11.539 -0.9011  0.0848  0.4859
 6808TIP3   OH241838   0.624   3.161  11.259  0.4177  1.0210  0.1438
 6808TIP3    H141839   0.569   3.238  11.243 -0.2158  0.3216 -1.1289
 6808TIP3    H241840   0.661   3.139  11.174 -1.0771 -1.3343  0.0185
 6809TIP3   OH241841   0.417   0.451  13.852 -0.6458 -0.0979  0.0274
 6809TIP3    H141842   0.366   0.499  13.918 -0.7750 -1.5089  1.0031
 6809TIP3    H241843   0.508   0.463  13.879 -0.6402  0.0208 -0.0401
 6810TIP3   OH241844   4.241   0.175  11.437  0.3526 -0.0103 -0.3021
 6810TIP3    H141845   4.153   0.157  11.470  0.2355  1.0097 -0.0409
 6810TIP3    H241846   4.283   0.089  11.435  0.1511 -0.2082  1.9252
 6811TIP3   OH241847   3.978   1.477  14.121 -0.4519  0.0899  0.5827
 6811TIP3    H141848   3.924   1.409  14.161 -0.6984  0.7205  1.3313
 6811TIP3    H241849   4.044   1.497  14.187 -0.3874  0.5858  0.3728
 6812TIP3   OH241850   4.461   1.813   5.567  0.6161  0.3986  0.1765
 6812TIP3    H141851   4.503   1.731   5.540 -0.5961 -0.4349  0.7467
 6812TIP3    H241852   4.488   1.877   5.500 -0.8274 -1.1610 -2.0218
 6813TIP3   OH241853   1.090   4.391  13.299 -0.0654  0.2167 -0.2233
 6813TIP3    H141854   1.179   4.409  13.267  0.3776 -1.1429  0.1998
 6813TIP3    H241855   1.102   4.360  13.389 -0.9821  0.1435 -0.1125
 6814TIP3   OH241856   1.590   3.994  14.690 -0.4879 -0.1157 -0.6788
 6814TIP3    H141857   1.676   4.036  14.686 -1.2709  1.5460 -0.9384
 6814TIP3    H241858   1.597   3.930  14.761  0.0542  2.1481  1.4295
 6815TIP3   OH241859   1.656   5.957   5.492 -0.7053  0.0190 -0.1117
 6815TIP3    H141860   1.616   6.011   5.425 -2.0492 -0.5788  0.1728
 6815TIP3    H241861   1.661   6.013   5.569 -0.8228  0.1517 -0.2015
 6816TIP3   OH241862   0.069   1.205   3.852  0.0311  0.3545 -0.3271
 6816TIP3    H141863  -0.020   1.222   3.881  0.0301  0.6948 -0.5232
 6816TIP3    H241864   0.122   1.215   3.931 -0.1365 -0.1445 -0.1471
 6817TIP3   OH241865   5.764   1.845  17.103  0.4034  0.0733  1.0302
 6817TIP3    H141866   5.680   1.828  17.147 -0.3616  0.2428 -0.3025
 6817TIP3    H241867   5.828   1.797  17.155 -0.6208 -0.6370  1.6832
 6818TIP3   OH241868   5.231   4.285   2.911 -0.2268  0.3739  1.0396
 6818TIP3    H141869   5.170   4.323   2.847 -1.4593 -0.3080  1.7786
 6818TIP3    H241870   5.258   4.202   2.872  1.4013  1.3069  0.0548
 6819TIP3   OH241871   3.485   3.779   0.742 -0.3178  0.1000 -0.1354
 6819TIP3    H141872   3.445   3.735   0.817  0.3797  1.1940  0.8951
 6819TIP3    H241873   3.440   3.741   0.666 -1.2543 -0.7996  0.8340
 6820TIP3   OH241874   6.001   2.209   3.329  0.7151  0.0569  0.1315
 6820TIP3    H141875   6.011   2.124   3.373  0.5845 -0.2308 -0.3767
 6820TIP3    H241876   6.073   2.212   3.267  0.2449 -0.0529 -0.4290
 6821TIP3   OH241877   4.568   4.785  14.397 -0.4747  0.7130  0.2097
 6821TIP3    H141878   4.555   4.807  14.489  1.0904 -2.1504  1.2533
 6821TIP3    H241879   4.599   4.695  14.399 -2.4761 -0.2308 -3.3004
 6822TIP3   OH241880   5.512   3.905  15.274 -0.0934 -0.0199 -0.5393
 6822TIP3    H141881   5.499   3.989  15.318 -0.3024 -0.6767  0.7141
 6822TIP3    H241882   5.584   3.920  15.212  2.6008  0.1849  2.3634
 6823TIP3   OH241883   2.800   3.942  12.831  0.5260  0.7278 -0.4685
 6823TIP3    H141884   2.732   3.879  12.856  0.9278 -0.3671 -2.0201
 6823TIP3    H241885   2.864   3.936  12.901  0.5148 -0.5581 -0.5349
 6824TIP3   OH241886   1.545   3.468   0.841 -0.2176 -0.2623 -0.0626
 6824TIP3    H141887   1.625   3.419   0.821 -0.6674 -0.2050 -2.1716
 6824TIP3    H241888   1.485   3.402   0.876 -0.1518 -0.8549 -1.0289
 6825TIP3   OH241889   2.687   4.183   6.234 -0.0364  0.2234 -0.3696
 6825TIP3    H141890   2.658   4.273   6.254  1.2642  1.2588 -2.7249
 6825TIP3    H241891   2.735   4.156   6.312  0.8449  2.1892 -0.1539
 6826TIP3   OH241892   4.211   1.757  11.807 -0.1894  0.3650 -0.1378
 6826TIP3    H141893   4.166   1.674  11.791 -0.1158  0.1014  0.9889
 6826TIP3    H241894   4.292   1.733  11.852 -1.1991  1.1584  2.2620
 6827TIP3   OH241895   3.575   5.996   3.790 -0.2226 -0.3951  0.1834
 6827TIP3    H141896   3.595   6.038   3.874 -1.0992 -0.6644  0.5419
 6827TIP3    H241897   3.613   5.909   3.797  1.7977  0.3528 -0.6486
 6828TIP3   OH241898   4.827   0.422  12.193 -0.2121  0.7558  0.5276
 6828TIP3    H141899   4.864   0.496  12.144  1.8732 -0.2881  0.3979
 6828TIP3    H241900   4.783   0.369  12.126 -1.2235  1.5584  0.5335
 6829TIP3   OH241901   3.025   6.729   5.170 -0.0990  0.5562 -0.4933
 6829TIP3    H141902   3.066   6.644   5.186  0.1543  0.6045 -0.8773
 6829TIP3    H241903   3.038   6.745   5.077 -2.4839 -0.2241 -1.0342
 6830TIP3   OH241904   2.826   0.852   2.209  0.0742 -0.3965 -0.0926
 6830TIP3    H141905   2.895   0.846   2.275  0.2311 -1.4123 -0.3279
 6830TIP3    H241906   2.752   0.806   2.248 -0.7237  1.2717  0.4377
 6831TIP3   OH241907   2.898   4.944  13.224 -0.1702 -0.5879 -0.5694
 6831TIP3    H141908   2.806   4.969  13.230 -0.0921  0.3863 -2.4907
 6831TIP3    H241909   2.941   5.022  13.188  1.2958 -1.2342 -0.2690
 6832TIP3   OH241910   5.190   2.757  12.186  0.0086  0.2962 -0.3354
 6832TIP3    H141911   5.121   2.818  12.211  0.1696  0.4546 -0.2725
 6832TIP3    H241912   5.159   2.672  12.216  1.4663  0.8202  3.0975
 6833TIP3   OH241913   4.371   1.239   1.331 -0.1353 -0.1734 -0.4940
 6833TIP3    H141914   4.432   1.292   1.382 -0.9112 -0.3920  0.6899
 6833TIP3    H241915   4.287   1.248   1.376 -0.9688  0.0098 -2.0089
 6834TIP3   OH241916   3.365   4.245  11.465 -0.5854  0.5148  0.0741
 6834TIP3    H141917   3.431   4.192  11.511 -0.3298  2.7547  2.5268
 6834TIP3    H241918   3.387   4.236  11.372  2.1353 -0.1790  0.7083
 6835TIP3   OH241919   0.822   6.567  17.046  0.5953  0.4005  0.1830
 6835TIP3    H141920   0.788   6.526  16.966  2.2809 -0.5269 -0.1131
 6835TIP3    H241921   0.747   6.612  17.084 -0.2251  1.0226 -2.0232
 6836TIP3   OH241922   5.517   4.429  14.921  0.1925  0.6866 -0.3264
 6836TIP3    H141923   5.454   4.450  14.990 -1.4320 -1.1186 -1.1611
 6836TIP3    H241924   5.573   4.361  14.960  0.1767  0.6717 -0.3300
 6837TIP3   OH241925   2.076   0.108   3.157  0.3285 -0.4308  1.2372
 6837TIP3    H141926   1.989   0.116   3.197  0.5539 -1.1495  1.9018
 6837TIP3    H241927   2.089   0.013   3.146 -0.4259 -0.2675 -2.1819
 6838TIP3   OH241928   3.781   0.615  13.276  0.2404  0.3506  0.4387
 6838TIP3    H141929   3.832   0.538  13.297  0.2367  0.3873  0.5827
 6838TIP3    H241930   3.843   0.687  13.279 -0.0055  0.5469  1.6442
 6839TIP3   OH241931   6.076   3.382  12.992  0.1315 -0.3862 -0.3292
 6839TIP3    H141932   6.163   3.422  13.000  0.0972 -0.3411 -0.1888
 6839TIP3    H241933   6.036   3.427  12.918 -0.1636  0.3131  0.2419
 6840TIP3   OH241934   1.311   4.424   2.038 -0.1953  0.2810  0.1515
 6840TIP3    H141935   1.251   4.406   1.966  1.4297  0.5415 -1.3182
 6840TIP3    H241936   1.342   4.513   2.022  0.3900  0.2447  1.0109
 6841TIP3   OH241937   3.704   5.801  12.278 -0.3304 -0.0466 -0.7858
 6841TIP3    H141938   3.706   5.728  12.340 -0.5406  1.7640  1.4956
 6841TIP3    H241939   3.656   5.767  12.203 -0.9013 -2.0758  0.4079
 6842TIP3   OH241940   0.156   3.434  12.444  0.3588  0.0861 -0.1403
 6842TIP3    H141941   0.185   3.375  12.374 -0.3221  0.0400 -0.3966
 6842TIP3    H241942   0.061   3.440  12.432  0.3489  0.7812  0.2417
 6843TIP3   OH241943   6.015   4.602  12.942  0.5485 -0.0030  0.2425
 6843TIP3    H141944   6.067   4.674  12.976  0.1964 -0.4288  1.7645
 6843TIP3    H241945   5.969   4.567  13.019  0.9080 -2.0107 -0.3970
 6844TIP3   OH241946   4.244   2.871  13.277  0.1060 -0.3856 -0.2879
 6844TIP3    H141947   4.181   2.827  13.220  0.7217 -1.0755 -0.4551
 6844TIP3    H241948   4.192   2.902  13.351 -0.4609 -0.7955 -0.5108
 6845TIP3   OH241949   4.405   6.481   1.997  0.1079  0.3662 -0.0114
 6845TIP3    H141950   4.328   6.471   2.052  1.2552  0.8530  1.7461
 6845TIP3    H241951   4.480   6.470   2.056  1.3997  0.7864 -1.4801
 6846TIP3   OH241952   4.765   1.061   1.652  0.5089  0.0421 -0.8223
 6846TIP3    H141953   4.727   0.987   1.700  2.3759 -2.2261 -2.5964
 6846TIP3    H241954   4.805   1.115   1.719 -0.9089 -0.5428  0.5523
 6847TIP3   OH241955   4.737   0.981  16.111 -0.1849 -0.2054 -0.1883
 6847TIP3    H141956   4.788   1.022  16.041  0.9393  1.4877  1.5148
 6847TIP3    H241957   4.661   1.038  16.122  0.1493  0.1017  0.5934
 6848TIP3   OH241958   5.781   2.508   3.545 -0.7415  0.1663 -0.4012
 6848TIP3    H141959   5.866   2.473   3.520 -0.8844 -1.3986  1.1541
 6848TIP3    H241960   5.720   2.472   3.481 -0.5112 -0.2881 -0.3646
 6849TIP3   OH241961   6.395   4.929   2.568  0.0659  0.2327 -0.0566
 6849TIP3    H141962   6.453   4.881   2.627 -1.2566 -0.0734  1.0417
 6849TIP3    H241963   6.424   4.903   2.480 -0.9591 -3.1272  0.4559
 6850TIP3   OH241964   5.447   1.994   2.382  0.1595  0.8523  0.0976
 6850TIP3    H141965   5.361   1.956   2.365  0.1610  1.8528 -2.5050
 6850TIP3    H241966   5.488   1.934   2.445 -1.7886 -0.5190  0.1460
 6851TIP3   OH241967   4.367   2.385  10.976  0.2947 -0.1468 -0.0882
 6851TIP3    H141968   4.385   2.441  10.901 -2.2653 -0.8157 -1.3030
 6851TIP3    H241969   4.448   2.335  10.988  0.8803  0.1849 -2.2102
 6852TIP3   OH241970   0.461   4.142   3.961  0.2252 -0.1968  0.3985
 6852TIP3    H141971   0.497   4.231   3.955  1.7326 -0.7811  0.3695
 6852TIP3    H241972   0.400   4.146   4.035 -0.3288  1.0408 -0.0876
 6853TIP3   OH241973   1.729   2.178   3.595 -0.7246 -0.3535  0.0233
 6853TIP3    H141974   1.750   2.105   3.537  0.4677 -0.8180  0.9865
 6853TIP3    H241975   1.796   2.173   3.664  0.1868  2.3620 -0.5337
 6854TIP3   OH241976   4.163   3.542  16.644  0.3191 -0.0340 -0.2848
 6854TIP3    H141977   4.087   3.557  16.700  0.4392 -0.2518 -0.0615
 6854TIP3    H241978   4.221   3.616  16.661  1.4696 -1.3081  1.7350
 6855TIP3   OH241979   3.393   1.443  13.196  0.5924 -0.0036 -0.0689
 6855TIP3    H141980   3.452   1.416  13.266  0.4819  0.0115  0.0323
 6855TIP3    H241981   3.326   1.496  13.241  0.7338  0.3262 -0.2418
 6856TIP3   OH241982   3.304   6.151  16.528  0.4546 -0.0046  0.1978
 6856TIP3    H141983   3.257   6.157  16.444  3.2863 -0.9492 -1.6100
 6856TIP3    H241984   3.267   6.073  16.570  1.6242 -1.9941 -2.1372
 6857TIP3   OH241985   3.286   1.378   2.952 -0.2249  0.3726 -0.1694
 6857TIP3    H141986   3.260   1.310   3.015 -1.6655  0.9752 -0.0588
 6857TIP3    H241987   3.314   1.451   3.007  0.0715  0.3284 -0.2624
 6858TIP3   OH241988   3.862   1.702  10.984 -0.3818 -1.0314  0.3927
 6858TIP3    H141989   3.943   1.653  11.000 -0.5243 -1.5586 -0.4571
 6858TIP3    H241990   3.856   1.708  10.889 -0.2452  0.8573  0.4730
 6859TIP3   OH241991   3.994   3.456   5.313  0.3922  0.1959 -0.6654
 6859TIP3    H141992   4.035   3.412   5.239  0.4808 -1.0921  0.1209
 6859TIP3    H241993   3.912   3.490   5.278  0.5304 -0.2154 -1.4074
 6860TIP3   OH241994   1.273   2.813   4.261  0.0198  0.2115 -0.2424
 6860TIP3    H141995   1.329   2.853   4.328  1.2312  1.0597 -1.7034
 6860TIP3    H241996   1.184   2.830   4.292  0.5439  0.6177  1.1347
 6861TIP3   OH241997   3.993   2.858  11.016 -0.3810  0.2883  0.4073
 6861TIP3    H141998   3.935   2.871  11.090  0.3088 -0.5221  1.1043
 6861TIP3    H241999   4.065   2.919  11.031 -0.3961  0.3487  0.2376
 6862TIP3   OH242000   1.472   5.442   0.529 -0.3246  0.1939  0.2507
 6862TIP3    H142001   1.424   5.518   0.496  0.8758  0.2338 -1.5345
 6862TIP3    H242002   1.403   5.379   0.552 -1.2788  0.8164 -0.7926
 6863TIP3   OH242003   2.879   5.024   4.699 -0.1738  0.4143  0.2890
 6863TIP3    H142004   2.965   5.067   4.698  0.3202 -0.5195  0.7715
 6863TIP3    H242005   2.837   5.053   4.618  0.6129  0.8520  0.0199
 6864TIP3   OH242006   0.593   3.698  16.846 -0.1805 -0.4593  0.7358
 6864TIP3    H142007   0.608   3.627  16.908  0.6275 -0.0878  0.9840
 6864TIP3    H242008   0.639   3.773  16.884 -0.3649 -0.0102  0.0932
 6865TIP3   OH242009   0.878   0.170   0.006  0.0582  0.6801 -0.5513
 6865TIP3    H142010   0.893   0.095  -0.052 -1.0914  0.8792 -1.1229
 6865TIP3    H242011   0.824   0.230  -0.045  1.0144  1.9547 -0.1208
 6866TIP3   OH242012   1.172   1.663  17.061 -1.2615 -0.1463 -0.1904
 6866TIP3    H142013   1.236   1.658  16.990 -0.0047 -1.2200  0.9560
 6866TIP3    H242014   1.107   1.597  17.039 -0.6183 -0.8173 -0.1331
 6867TIP3   OH242015   6.312   1.303   4.522 -0.1036 -0.6093  0.0743
 6867TIP3    H142016   6.224   1.301   4.484  0.8896 -0.3839 -2.4283
 6867TIP3    H242017   6.341   1.212   4.521  0.0340 -0.5648  0.0184
 6868TIP3   OH242018   1.427   2.105   5.626 -0.3474  0.1686  0.1456
 6868TIP3    H142019   1.490   2.160   5.580  0.1634 -0.1214  0.4817
 6868TIP3    H242020   1.404   2.037   5.563 -0.2046  0.1900  0.0687
 6869TIP3   OH242021   5.826   6.144   2.652  0.0224 -0.1714  0.2378
 6869TIP3    H142022   5.733   6.158   2.634  0.0166 -1.1814 -0.6346
 6869TIP3    H242023   5.860   6.231   2.674 -2.0429 -0.2951  5.4182
 6870TIP3   OH242024   0.986   6.652   2.978  0.0304 -0.0733  0.9014
 6870TIP3    H142025   1.007   6.655   2.885 -1.9612 -1.8379  0.3197
 6870TIP3    H242026   0.978   6.743   3.004 -1.9561  0.4791 -1.3203
 6871TIP3   OH242027   6.216   0.923   5.679  0.2610 -0.1500  0.3182
 6871TIP3    H142028   6.290   0.863   5.691  0.1706 -0.0397  1.5090
 6871TIP3    H242029   6.199   0.921   5.585  1.3386 -0.7003  0.1234
 6872TIP3   OH242030   6.592   0.907   6.357 -0.2388 -0.1451 -0.7527
 6872TIP3    H142031   6.647   0.919   6.435 -0.3772  1.1698 -0.8291
 6872TIP3    H242032   6.604   0.988   6.307 -3.4575  0.9117 -0.0109
 6873TIP3   OH242033   3.671   2.211   5.789 -0.4508  0.0736  0.5433
 6873TIP3    H142034   3.589   2.254   5.765 -0.7053  0.2564  1.6678
 6873TIP3    H242035   3.695   2.250   5.873 -0.4796 -1.6719  1.4139
 6874TIP3   OH242036   2.199   6.499   1.735 -0.6049  1.1517 -0.3200
 6874TIP3    H142037   2.125   6.548   1.770 -1.5756 -1.1520  1.0707
 6874TIP3    H242038   2.260   6.490   1.809 -0.3654  0.4424 -0.5916
 6875TIP3   OH242039   2.938   6.516  13.280 -0.0149  0.7578  0.6934
 6875TIP3    H142040   2.943   6.462  13.201  2.1241  1.9496 -0.0615
 6875TIP3    H242041   3.002   6.477  13.340 -1.5356 -0.0637  1.8546
 6876TIP3   OH242042   1.457   0.741   3.343  0.1541  0.0419  0.1181
 6876TIP3    H142043   1.386   0.729   3.279 -0.2248  0.1955  0.5051
 6876TIP3    H242044   1.439   0.676   3.410  0.3772  0.0892  0.2234
 6877TIP3   OH242045   0.380   0.084  12.664 -0.3979 -0.4869 -0.5122
 6877TIP3    H142046   0.356   0.027  12.591 -1.5083 -1.8472  0.8482
 6877TIP3    H242047   0.467   0.052  12.691  0.6959  0.9637 -2.0712
 6878TIP3   OH242048   3.644   2.666   1.329 -0.2750 -0.1905  0.4155
 6878TIP3    H142049   3.679   2.748   1.363 -0.1405  1.0010 -2.3371
 6878TIP3    H242050   3.553   2.687   1.306 -0.2344 -0.7838 -0.3306
 6879TIP3   OH242051   0.118   1.008  15.979 -0.5771  0.3623 -0.2129
 6879TIP3    H142052   0.119   1.066  16.055 -1.8466 -0.0777  0.1659
 6879TIP3    H242053   0.105   0.920  16.017  0.2010 -0.0395 -0.8510
 6880TIP3   OH242054   4.043   6.124   3.519 -0.2242 -0.3116  0.9644
 6880TIP3    H142055   4.021   6.042   3.474 -2.4678  0.4837  0.4782
 6880TIP3    H242056   4.139   6.127   3.517 -0.1388 -1.6897 -1.2732
 6881TIP3   OH242057   1.649   6.683  13.653  0.8200 -0.9092  0.0198
 6881TIP3    H142058   1.660   6.600  13.699  1.6937 -0.4471  0.6618
 6881TIP3    H242059   1.633   6.748  13.722 -1.7014 -0.7854 -0.5560
 6882TIP3   OH242060   2.830   3.324  15.505 -0.0711  0.2642  0.1813
 6882TIP3    H142061   2.821   3.231  15.523  1.2096 -0.4612 -2.4455
 6882TIP3    H242062   2.886   3.357  15.575 -0.6653 -0.8793  1.2293
 6883TIP3   OH242063   5.062   3.833   5.461 -0.1767  0.7855  0.1075
 6883TIP3    H142064   5.133   3.845   5.398 -0.9764 -0.9338 -1.2064
 6883TIP3    H242065   4.983   3.853   5.411 -0.9299 -1.8738  0.0867
 6884TIP3   OH242066   6.761   5.283   2.800 -0.3479  0.0252  0.0011
 6884TIP3    H142067   6.676   5.298   2.757 -0.8926  0.1263  1.0728
 6884TIP3    H242068   6.757   5.337   2.879  0.2495 -0.8741  0.6590
 6885TIP3   OH242069   5.391   6.712  12.551  0.0486  0.2948  0.4548
 6885TIP3    H142070   5.403   6.679  12.640 -1.0657  1.2032  0.9616
 6885TIP3    H242071   5.388   6.633  12.497 -4.3842 -0.7609  1.8361
 6886TIP3   OH242072   0.656   6.517   6.682 -0.6074  0.1790  0.2253
 6886TIP3    H142073   0.660   6.579   6.755 -1.2305  0.2613  0.1894
 6886TIP3    H242074   0.690   6.435   6.719  3.3496  1.2593 -0.5451
 6887TIP3   OH242075   1.184   1.819  10.787 -0.3507  0.8314  0.5607
 6887TIP3    H142076   1.227   1.809  10.872  0.3617  0.4964  0.1733
 6887TIP3    H242077   1.105   1.766  10.793 -0.3765  0.9246  1.0634
 6888TIP3   OH242078   1.872   1.234   0.652  0.5991  0.3773 -0.0958
 6888TIP3    H142079   1.878   1.184   0.571  0.8490 -0.0150  0.1654
 6888TIP3    H242080   1.957   1.278   0.660  0.2929  1.0571 -0.4569
 6889TIP3   OH242081   1.445   6.652   5.663 -0.6880  0.2718  0.3777
 6889TIP3    H142082   1.355   6.650   5.695 -0.8196 -1.3636  0.0032
 6889TIP3    H242083   1.442   6.607   5.578  0.6773 -1.1721  1.0244
 6890TIP3   OH242084   5.563   5.213   3.337  0.5770  0.3169  0.0472
 6890TIP3    H142085   5.553   5.301   3.372  0.0574  0.2410  0.1007
 6890TIP3    H242086   5.473   5.181   3.325  0.6859  0.6955 -2.2609
 6891TIP3   OH242087   6.145   1.563  11.986 -0.3966 -0.4056  0.0775
 6891TIP3    H142088   6.203   1.556  11.910 -1.1859 -1.7962 -0.4311
 6891TIP3    H242089   6.197   1.610  12.052  0.9776 -0.8455 -0.6644
 6892TIP3   OH242090   3.397   0.814   0.145  0.2469 -0.1299  0.1904
 6892TIP3    H142091   3.364   0.900   0.120 -0.4859 -0.4939 -0.1150
 6892TIP3    H242092   3.409   0.767   0.062  0.5651 -0.3505  0.3578
 6893TIP3   OH242093   3.503   2.865  16.150 -0.4764 -0.0200  0.6596
 6893TIP3    H142094   3.527   2.956  16.168  1.5773 -0.1067 -1.2248
 6893TIP3    H242095   3.570   2.814  16.195  1.3122 -0.3652 -2.1072
 6894TIP3   OH242096   4.747   2.819  13.586 -0.1799  0.1633  0.2761
 6894TIP3    H142097   4.655   2.838  13.566 -0.6243 -1.9050  0.0751
 6894TIP3    H242098   4.752   2.825  13.681 -0.2586  1.2883  0.2211
 6895TIP3   OH242099   0.590   6.159   1.160  0.0200 -0.0660  0.6437
 6895TIP3    H142100   0.665   6.125   1.208  0.8750  0.4231 -0.2875
 6895TIP3    H242101   0.628   6.226   1.102 -1.5402  2.4828  2.3608
 6896TIP3   OH242102   2.350   3.662   1.031  0.3125 -0.0390  0.0462
 6896TIP3    H142103   2.373   3.696   0.945  0.8139 -0.1336  0.1390
 6896TIP3    H242104   2.367   3.734   1.091  1.6936 -0.5333  0.2833
 6897TIP3   OH242105   2.763   6.160   3.477 -0.4656 -0.1284  0.1392
 6897TIP3    H142106   2.729   6.163   3.566 -1.5688  0.5212 -0.2839
 6897TIP3    H242107   2.820   6.083   3.476 -1.0346 -0.5901  1.1879
 6898TIP3   OH242108   2.893   4.569   3.127  0.1601 -0.0891  0.3070
 6898TIP3    H142109   2.969   4.528   3.168  0.0263 -0.9656 -0.3029
 6898TIP3    H242110   2.872   4.643   3.185  0.3357 -0.9427  1.5065
 6899TIP3   OH242111   0.094   2.123  15.036 -0.3734 -0.4422  0.6398
 6899TIP3    H142112   0.184   2.090  15.027  0.4125  1.7815 -0.4684
 6899TIP3    H242113   0.078   2.123  15.131  1.2178  0.1060  0.9467
 6900TIP3   OH242114   5.426   2.940   4.951  0.1159 -0.0234  0.3000
 6900TIP3    H142115   5.517   2.922   4.928 -0.0404 -0.4826  0.0152
 6900TIP3    H242116   5.375   2.888   4.888 -0.3966  2.6318 -1.6627
 6901TIP3   OH242117   2.754   1.707  12.753  0.1634  0.4929  0.3458
 6901TIP3    H142118   2.677   1.746  12.711  0.6598  0.2027 -0.9019
 6901TIP3    H242119   2.815   1.780  12.765  0.3849  0.4326 -0.3360
 6902TIP3   OH242120   3.423   5.135   4.954  0.6209  0.7904 -0.1110
 6902TIP3    H142121   3.409   5.079   4.878 -0.6468 -0.3002  0.8677
 6902TIP3    H242122   3.403   5.223   4.923 -1.0681  0.2133 -0.7800
 6903TIP3   OH242123   5.863   6.195  11.757 -0.0345  0.6179 -0.2951
 6903TIP3    H142124   5.807   6.251  11.812 -0.9795 -0.9620  0.3977
 6903TIP3    H242125   5.903   6.133  11.818  1.7292  1.0694 -0.9239
 6904TIP3   OH242126   2.359   2.061  15.639  0.3144 -0.4491  0.3266
 6904TIP3    H142127   2.397   2.136  15.592 -1.2808 -0.9628 -1.9798
 6904TIP3    H242128   2.264   2.071  15.627  0.0665 -3.3071 -0.9463
 6905TIP3   OH242129   0.342   1.033  14.992 -0.1801 -0.0856 -0.1752
 6905TIP3    H142130   0.413   1.087  15.028  1.6431 -1.5812 -1.3457
 6905TIP3    H242131   0.292   1.094  14.937  1.2281  0.6688 -0.6824
 6906TIP3   OH242132   2.740   0.017   6.014 -0.0465 -0.6540 -0.4649
 6906TIP3    H142133   2.717   0.083   6.080 -1.7816 -1.9658  0.3089
 6906TIP3    H242134   2.826  -0.016   6.042  0.9073  1.2574 -0.9163
 6907TIP3   OH242135   1.847   2.261  15.655 -0.1501 -0.0029  0.1170
 6907TIP3    H142136   1.791   2.285  15.729 -1.0763  2.4401 -1.2559
 6907TIP3    H242137   1.790   2.208  15.598 -1.3639  2.6695 -1.3921
 6908TIP3   OH242138   0.324   6.030  15.160  0.5482  0.2346  0.4842
 6908TIP3    H142139   0.247   6.079  15.131 -0.5908 -0.9148  1.4678
 6908TIP3    H242140   0.362   6.084  15.229  0.2073  0.4826  0.4803
 6909TIP3   OH242141   5.493   4.030   3.179  0.0055 -0.2246 -0.4830
 6909TIP3    H142142   5.560   3.992   3.235  1.3995  0.9514 -1.2802
 6909TIP3    H242143   5.421   4.051   3.238  1.0003 -0.0043  0.6861
 6910TIP3   OH242144   1.387   6.752   2.862 -0.0415  0.5430 -0.3876
 6910TIP3    H142145   1.463   6.802   2.834  1.2061  0.3457  2.3054
 6910TIP3    H242146   1.328   6.817   2.900 -0.3666  0.4737 -0.7704
 6911TIP3   OH242147   3.694   1.464  11.880  0.9468 -0.2109  0.2826
 6911TIP3    H142148   3.757   1.509  11.936 -0.0192  0.4176  0.8966
 6911TIP3    H242149   3.616   1.520  11.881  0.5743 -0.6607 -0.9455
 6912TIP3   OH242150   5.921   4.267   4.574 -0.7637  0.0154 -0.1340
 6912TIP3    H142151   6.016   4.282   4.573 -0.1846 -2.9324  0.7786
 6912TIP3    H242152   5.893   4.300   4.660 -0.7019  1.2844 -0.5733
 6913TIP3   OH242153   4.730   5.687   4.573  0.1784  0.2798 -0.6498
 6913TIP3    H142154   4.763   5.601   4.548  4.2977  1.7759 -1.0403
 6913TIP3    H242155   4.708   5.729   4.489 -0.3212  0.1687 -0.5768
 6914TIP3   OH242156   2.297   2.803   2.550  0.1038 -0.6385 -0.1476
 6914TIP3    H142157   2.217   2.850   2.525 -0.7976 -0.6853  2.3119
 6914TIP3    H242158   2.284   2.782   2.643  2.7898 -1.0640  0.2151
 6915TIP3   OH242159   1.738   1.963   1.642  0.2481  0.2821  0.1978
 6915TIP3    H142160   1.649   1.997   1.629 -0.0299 -1.1331 -2.1931
 6915TIP3    H242161   1.725   1.871   1.667  1.0104 -0.1306 -0.8501
 6916TIP3   OH242162   3.680   4.016   2.165 -0.2434  0.2510  0.1059
 6916TIP3    H142163   3.649   4.095   2.122  0.5901  0.7596  0.4241
 6916TIP3    H242164   3.738   3.975   2.101  0.0580  0.3867  0.2897
 6917TIP3   OH242165   5.247   6.010  10.937  0.0550 -0.0456  0.2751
 6917TIP3    H142166   5.269   5.924  10.903 -0.3043 -0.3584  0.8261
 6917TIP3    H242167   5.173   6.039  10.883  0.4533  0.1106 -0.1953
 6918TIP3   OH242168   6.498   5.050  14.799 -1.4627 -0.0149  0.5246
 6918TIP3    H142169   6.465   4.976  14.850 -0.3406  0.0347  1.3595
 6918TIP3    H242170   6.424   5.076  14.744 -2.0857 -1.3247  0.6962
 6919TIP3   OH242171   2.893   4.270  10.154  0.2624  0.0631  0.3169
 6919TIP3    H142172   2.849   4.329  10.091 -0.7917  0.4286  1.3532
 6919TIP3    H242173   2.964   4.323  10.190 -0.7101  0.7682  1.2791
 6920TIP3   OH242174   3.334   1.275   4.899  0.4946 -0.0174  0.1256
 6920TIP3    H142175   3.276   1.348   4.920 -1.0516 -1.2662  0.4286
 6920TIP3    H242176   3.360   1.239   4.984  1.7236  0.4918 -0.0074
 6921TIP3   OH242177   4.382   2.322  11.826  0.4478 -0.2219 -0.3113
 6921TIP3    H142178   4.340   2.267  11.761  0.6962 -1.4149  0.5025
 6921TIP3    H242179   4.421   2.393  11.776 -1.9496  0.5979 -1.1579
 6922TIP3   OH242180   5.638   1.031   3.484 -0.2395  0.1420  0.1921
 6922TIP3    H142181   5.725   0.991   3.481 -0.8738 -1.2755 -2.2788
 6922TIP3    H242182   5.593   0.986   3.555  0.4993 -0.3072  0.3815
 6923TIP3   OH242183   0.626   3.522   0.670  0.2919 -0.1618 -0.4046
 6923TIP3    H142184   0.594   3.599   0.717 -0.1214 -1.2184  1.1305
 6923TIP3    H242185   0.713   3.506   0.707 -0.0052 -0.9579 -0.0216
 6924TIP3   OH242186   4.788   1.800  11.002 -0.3010  0.0218  0.5199
 6924TIP3    H142187   4.793   1.863  11.074 -1.2507 -0.2135  0.8010
 6924TIP3    H242188   4.825   1.847  10.927  1.9570 -0.1754  1.4316
 6925TIP3   OH242189   0.053   5.041  14.945  0.0165 -0.6215 -0.2259
 6925TIP3    H142190   0.102   5.123  14.955 -1.5892  0.2251  1.3440
 6925TIP3    H242191   0.116   4.980  14.907  1.9415  0.7104  0.6487
 6926TIP3   OH242192   2.102   2.336  16.887 -0.4899 -0.6654 -0.4223
 6926TIP3    H142193   2.073   2.305  16.801 -0.4601 -1.3572 -0.1870
 6926TIP3    H242194   2.042   2.408  16.908 -0.2714 -0.2414 -1.1758
 6927TIP3   OH242195   4.220   1.857   2.333 -0.7062  1.0091 -0.3037
 6927TIP3    H142196   4.171   1.848   2.414  0.1103 -0.4518  0.0619
 6927TIP3    H242197   4.255   1.946   2.336  0.6126  0.4816  1.7330
 6928TIP3   OH242198   1.096   3.549  14.505  0.2567  0.3495  0.2954
 6928TIP3    H142199   1.160   3.540  14.575 -0.1323 -2.0930  0.4340
 6928TIP3    H242200   1.013   3.520  14.544 -0.2749  0.3886 -0.7447
 6929TIP3   OH242201   0.691   5.454  15.459  0.1256 -0.3591 -0.7983
 6929TIP3    H142202   0.628   5.485  15.525 -0.1683 -0.4345 -1.0392
 6929TIP3    H242203   0.657   5.489  15.376  1.1577  0.7753 -0.7759
 6930TIP3   OH242204   3.017   4.202   2.672  0.0145  0.0320 -0.7459
 6930TIP3    H142205   2.928   4.168   2.688 -0.1232  0.8077  0.1980
 6930TIP3    H242206   3.032   4.265   2.742  2.4983 -2.2785  0.9940
 6931TIP3   OH242207   2.819   1.271   3.842 -0.4218  0.1855  0.6367
 6931TIP3    H142208   2.856   1.195   3.797  0.2910  0.5898  0.5185
 6931TIP3    H242209   2.895   1.313   3.883 -0.3015  2.4519 -1.6807
 6932TIP3   OH242210   0.082   5.759  15.441 -0.2915 -0.1658 -0.3827
 6932TIP3    H142211   0.137   5.767  15.364 -0.6832  0.8195 -0.5838
 6932TIP3    H242212   0.019   5.831  15.433  0.9873  1.3649  1.9188
 6933TIP3   OH242213   1.408   2.858   5.784 -0.0557 -0.2484 -0.0959
 6933TIP3    H142214   1.415   2.954   5.787 -1.0781 -0.1282 -0.8486
 6933TIP3    H242215   1.424   2.830   5.874  3.1684  0.3727 -0.3421
 6934TIP3   OH242216   0.097   2.659  12.316 -0.9352 -0.1944 -0.0129
 6934TIP3    H142217   0.182   2.697  12.293 -0.3699 -0.9132  0.8313
 6934TIP3    H242218   0.091   2.581  12.261 -0.2007 -1.1586  1.2359
 6935TIP3   OH242219   5.710   6.579  12.783  0.5731 -0.7562 -0.5955
 6935TIP3    H142220   5.625   6.569  12.740 -0.1435  1.3395  0.2193
 6935TIP3    H242221   5.691   6.577  12.876  1.1921  1.0744 -0.3882
 6936TIP3   OH242222   2.622   5.185  16.974  0.2580  0.5889 -0.3527
 6936TIP3    H142223   2.663   5.098  16.967 -0.3193  0.4249 -2.0428
 6936TIP3    H242224   2.546   5.171  17.031  0.2757  0.0188 -0.4615
 6937TIP3   OH242225   0.272   0.971   2.277  0.6348  0.0461  0.6394
 6937TIP3    H142226   0.359   0.931   2.272 -0.5798 -2.6563 -0.8785
 6937TIP3    H242227   0.268   1.029   2.201  0.2885 -1.7596 -0.7712
 6938TIP3   OH242228   1.148   6.614   0.545  0.0763 -0.0140  0.1078
 6938TIP3    H142229   1.137   6.594   0.452 -0.2145  1.3518 -0.1805
 6938TIP3    H242230   1.101   6.544   0.590 -0.7273 -0.0984 -0.8056
 6939TIP3   OH242231   5.915   5.650  11.344 -0.6873 -0.2993  0.5493
 6939TIP3    H142232   6.000   5.645  11.299 -1.0885  1.0196 -0.4157
 6939TIP3    H242233   5.913   5.572  11.399  0.4142 -1.2938 -0.7370
 6940TIP3   OH242234   0.843   5.697  16.690  0.0136 -0.1089 -0.4498
 6940TIP3    H142235   0.784   5.639  16.641  1.7600 -1.2839 -1.2810
 6940TIP3    H242236   0.787   5.737  16.756 -1.4181 -2.3136 -0.1975
 6941TIP3   OH242237   4.748   1.683   1.389  0.0616  0.2918 -0.3910
 6941TIP3    H142238   4.735   1.638   1.473  2.1237 -1.6315 -1.0039
 6941TIP3    H242239   4.833   1.726   1.398 -0.0336  0.6847 -1.2571
 6942TIP3   OH242240   3.632   0.472   2.765  0.0034 -0.3301 -0.2083
 6942TIP3    H142241   3.586   0.541   2.813 -1.1269 -1.5080  0.4387
 6942TIP3    H242242   3.711   0.455   2.817 -0.1096 -0.0767  0.0484
 6943TIP3   OH242243   1.412   6.290   5.127 -0.2615 -0.3342 -0.1890
 6943TIP3    H142244   1.455   6.257   5.048  0.0573 -2.6829  0.8841
 6943TIP3    H242245   1.480   6.341   5.171  0.0770 -0.3962 -0.6351
 6944TIP3   OH242246   2.651   4.240   5.268 -0.9210  0.1367 -0.4435
 6944TIP3    H142247   2.687   4.236   5.357 -1.0675  1.5712 -0.2980
 6944TIP3    H242248   2.668   4.330   5.240 -1.2274 -0.1933 -1.7256
 6945TIP3   OH242249   2.195   6.447  16.327  0.2978 -0.0004 -0.3444
 6945TIP3    H142250   2.171   6.463  16.418  0.6408  2.6344 -0.6279
 6945TIP3    H242251   2.288   6.471  16.323  0.4853 -0.8166 -1.2510
 6946TIP3   OH242252   2.875   0.650  10.732  0.6102 -0.3680  0.0721
 6946TIP3    H142253   2.948   0.655  10.670  0.6395 -0.9234  0.0602
 6946TIP3    H242254   2.835   0.737  10.728  0.1053 -0.6318 -1.3548
 6947TIP3   OH242255   0.131   4.396   3.147 -0.0971 -0.4620 -0.2309
 6947TIP3    H142256   0.050   4.344   3.143 -0.3494 -0.0469 -0.6010
 6947TIP3    H242257   0.122   4.447   3.228 -1.1834  1.1345 -1.2999
 6948TIP3   OH242258   4.600   5.393  14.435 -0.3916 -0.2218  0.0014
 6948TIP3    H142259   4.593   5.421  14.526  1.3217  1.2497 -0.2431
 6948TIP3    H242260   4.626   5.472  14.387  3.6734 -1.8300 -0.9455
 6949TIP3   OH242261   0.108   1.687   3.769  0.4169 -0.1321  0.3957
 6949TIP3    H142262   0.100   1.744   3.693 -0.7626 -2.1830 -1.0943
 6949TIP3    H242263   0.074   1.740   3.842  1.8733  1.9788 -0.3443
 6950TIP3   OH242264   3.328   1.917   5.524 -0.1301  0.0598 -0.2716
 6950TIP3    H142265   3.405   1.973   5.523  0.4685 -0.7445 -0.5053
 6950TIP3    H242266   3.355   1.840   5.574 -0.5048 -0.5929 -1.0427
 6951TIP3   OH242267   4.741   6.215   0.288 -0.0403  0.3737 -0.0646
 6951TIP3    H142268   4.716   6.209   0.196 -1.8293 -0.6615  0.4437
 6951TIP3    H242269   4.810   6.282   0.289  1.3060 -0.8335 -2.3771
 6952TIP3   OH242270   4.066   1.731   2.725  0.3897 -0.2231  0.1962
 6952TIP3    H142271   4.052   1.638   2.742  3.2002 -0.7276  0.1612
 6952TIP3    H242272   4.069   1.738   2.629  0.7413 -0.2005  0.2076
 6953TIP3   OH242273   1.900   5.246   1.006  0.1396  0.2173 -0.2700
 6953TIP3    H142274   1.940   5.248   0.919  0.9573  1.8281  0.0972
 6953TIP3    H242275   1.946   5.176   1.052  3.0408  2.2820  0.2838
 6954TIP3   OH242276   1.442   4.083  14.979  0.3110 -0.2655 -0.4239
 6954TIP3    H142277   1.362   4.033  14.986 -0.1609  0.5778  0.4199
 6954TIP3    H242278   1.506   4.035  15.032 -0.7830  1.2244  2.4456
 6955TIP3   OH242279   2.468   1.911  16.500  0.0823  0.2026 -0.0837
 6955TIP3    H142280   2.465   1.830  16.448  1.0639  0.5446 -0.6963
 6955TIP3    H242281   2.429   1.886  16.584  0.4264 -0.9324 -0.2356
 6956TIP3   OH242282   1.179   4.696  11.245  0.1728 -0.1445  0.0644
 6956TIP3    H142283   1.215   4.608  11.231  1.5801  0.1086  1.7485
 6956TIP3    H242284   1.249   4.755  11.216 -0.6402  0.4467 -0.7587
 6957TIP3   OH242285   2.753   1.014  12.052  0.2030 -0.1473 -0.2378
 6957TIP3    H142286   2.690   1.028  12.123  0.9021 -0.3228  0.4274
 6957TIP3    H242287   2.796   0.931  12.074 -0.4757 -0.8820 -1.5590
 6958TIP3   OH242288   3.696   0.693   2.183 -0.3331  0.3992  0.5588
 6958TIP3    H142289   3.607   0.658   2.186  0.0580 -0.7132 -0.3545
 6958TIP3    H242290   3.718   0.709   2.275 -1.3795  0.4458  0.8141
 6959TIP3   OH242291   5.704   3.534  14.939 -0.8027 -0.1374 -0.1398
 6959TIP3    H142292   5.732   3.452  14.897  0.2339 -0.8596  1.8328
 6959TIP3    H242293   5.777   3.595  14.923  0.4328 -0.9466  1.9710
 6960TIP3   OH242294   0.143   6.169  14.781  0.2717  0.0691 -0.2174
 6960TIP3    H142295   0.123   6.207  14.867 -0.1326 -0.6972  0.0288
 6960TIP3    H242296   0.208   6.229  14.744 -2.3440  2.6784 -1.0393
 6961TIP3   OH242297   4.856   1.887  16.888  0.3264  0.0568 -0.0439
 6961TIP3    H142298   4.769   1.867  16.853  0.5610  0.7448 -1.0793
 6961TIP3    H242299   4.896   1.802  16.905 -0.5739 -0.2648  0.5257
 6962TIP3   OH242300   5.076   4.555  14.324  0.1194  0.0028  0.2522
 6962TIP3    H142301   5.091   4.633  14.270  0.0891  0.6287  1.1270
 6962TIP3    H242302   5.087   4.586  14.414 -2.0204 -0.4949  0.7511
 6963TIP3   OH242303   3.620   4.953  14.993  0.3544 -0.0184 -0.0283
 6963TIP3    H142304   3.630   4.860  15.016 -0.6925 -0.3075 -0.6664
 6963TIP3    H242305   3.536   4.978  15.031  0.0420  0.3181 -0.9051
 6964TIP3   OH242306   4.754   6.239   4.011  0.7701 -0.3795  0.3485
 6964TIP3    H142307   4.751   6.323   4.058  0.5049  0.0704 -0.4573
 6964TIP3    H242308   4.827   6.248   3.950  0.8165 -0.7798  0.3436
 6965TIP3   OH242309   5.012   2.971   0.757 -0.1162 -0.0742 -0.1895
 6965TIP3    H142310   5.018   2.959   0.852 -0.4599 -0.5626 -0.2240
 6965TIP3    H242311   5.023   3.065   0.744  1.2676 -0.1496  0.2224
 6966TIP3   OH242312   6.709   6.759   5.289 -0.5787  0.0192 -0.0087
 6966TIP3    H142313   6.731   6.697   5.358 -0.3096 -1.2250 -1.1682
 6966TIP3    H242314   6.616   6.745   5.273 -0.3391 -0.7089 -0.8425
 6967TIP3   OH242315   1.303   3.250  15.463 -0.1022 -0.7472 -0.4483
 6967TIP3    H142316   1.228   3.210  15.507  0.1875 -0.6769  0.1207
 6967TIP3    H242317   1.272   3.336  15.436 -0.5928 -1.1693 -1.2925
 6968TIP3   OH242318   2.230   6.775  11.888 -0.0105  0.2280 -0.2632
 6968TIP3    H142319   2.158   6.836  11.905 -0.3898  0.2217 -1.7180
 6968TIP3    H242320   2.186   6.693  11.866  0.3815  0.5247 -2.3054
 6969TIP3   OH242321   4.411   5.757  13.036 -0.1043  0.3865  0.0693
 6969TIP3    H142322   4.451   5.739  13.121  0.1564 -0.9546 -0.3222
 6969TIP3    H242323   4.484   5.758  12.974 -0.3671  0.7081 -0.2429
 6970TIP3   OH242324   5.844   1.670  11.589  0.2638 -0.1990 -0.3093
 6970TIP3    H142325   5.805   1.594  11.546 -1.3087  1.0439 -1.1804
 6970TIP3    H242326   5.922   1.689  11.537 -0.7948  0.3611 -1.7561
 6971TIP3   OH242327   3.042   0.476  14.212 -0.4258  0.0154  0.4721
 6971TIP3    H142328   2.969   0.414  14.218 -0.8543  0.4263 -0.4619
 6971TIP3    H242329   3.085   0.470  14.298  0.5192 -2.7733 -0.0909
 6972TIP3   OH242330   3.579   0.464   3.864 -0.2078 -0.2417 -0.2004
 6972TIP3    H142331   3.614   0.376   3.875  0.6287  0.0322 -0.5847
 6972TIP3    H242332   3.500   0.452   3.810 -1.0957 -0.9334  1.1805
 6973TIP3   OH242333   2.979   0.134  13.511  0.0683 -0.1826 -0.1841
 6973TIP3    H142334   3.002   0.193  13.440  2.4677 -0.6211  0.1503
 6973TIP3    H242335   2.937   0.059  13.469 -1.1547  0.8255 -0.8054
 6974TIP3   OH242336   3.577   0.375  11.542  0.5465 -0.5225 -0.4007
 6974TIP3    H142337   3.487   0.359  11.570  0.3590  1.1556  0.0608
 6974TIP3    H242338   3.575   0.365  11.447 -1.0251  2.9871 -0.9003
 6975TIP3   OH242339   4.530   1.746   3.982  0.3263 -0.4628  0.1661
 6975TIP3    H142340   4.599   1.685   4.005  0.5674 -1.3661 -2.5586
 6975TIP3    H242341   4.457   1.690   3.954  0.2959  0.4126 -1.6866
 6976TIP3   OH242342   0.046   1.782   2.293  0.0917 -0.7131 -0.0760
 6976TIP3    H142343   0.108   1.709   2.285 -0.4121 -1.0556 -1.0783
 6976TIP3    H242344   0.078   1.848   2.231 -0.2733 -0.7049 -0.2632
 6977TIP3   OH242345   2.601   3.205   5.470 -0.2003 -0.2839  0.0660
 6977TIP3    H142346   2.648   3.242   5.545  1.0781  0.4577 -1.0537
 6977TIP3    H242347   2.658   3.136   5.437 -0.2760  0.0487 -0.7960
 6978TIP3   OH242348   1.569   0.534   1.049 -0.6484  0.3689 -0.0099
 6978TIP3    H142349   1.541   0.443   1.038 -0.2710  0.3417 -0.7677
 6978TIP3    H242350   1.569   0.571   0.961  1.0173  0.5728  0.0507
 6979TIP3   OH242351   5.328   4.388  13.280 -0.3689  0.3250  0.1775
 6979TIP3    H142352   5.379   4.320  13.325  1.9362  2.3789  0.8918
 6979TIP3    H242353   5.248   4.343  13.252 -0.7504 -1.7768  3.9464
 6980TIP3   OH242354   5.217   6.473  12.786  0.2952 -0.2832 -0.1844
 6980TIP3    H142355   5.201   6.393  12.737 -1.0879 -0.1775  0.0734
 6980TIP3    H242356   5.138   6.487  12.837  0.8615  0.7788  0.4482
 6981TIP3   OH242357   2.023   0.341  14.244 -0.6942 -0.6224  0.2242
 6981TIP3    H142358   2.060   0.352  14.332 -1.8072  0.5062  0.5828
 6981TIP3    H242359   1.991   0.428  14.221 -0.3268 -0.8752 -1.3672
 6982TIP3   OH242360   3.653   4.234   0.412 -0.2899 -0.0886  0.3256
 6982TIP3    H142361   3.649   4.205   0.321 -2.3340 -0.1076  0.3788
 6982TIP3    H242362   3.655   4.329   0.408 -1.3426 -0.0643  0.2655
 6983TIP3   OH242363   2.553   0.848  13.669  0.0519  0.4432 -0.7289
 6983TIP3    H142364   2.584   0.926  13.715 -1.7554  1.7783 -1.6672
 6983TIP3    H242365   2.531   0.879  13.581  1.0083 -1.5283 -1.7383
 6984TIP3   OH242366   3.338   4.050   5.259  0.8737  0.2475 -0.0211
 6984TIP3    H142367   3.298   4.126   5.303  1.4220  0.0613  0.7985
 6984TIP3    H242368   3.371   4.086   5.176  0.4390  0.7362  0.0086
 6985TIP3   OH242369   3.736   2.529  15.126  0.8626 -0.6518  0.3092
 6985TIP3    H142370   3.678   2.604  15.140  1.6265 -0.1071  0.6291
 6985TIP3    H242371   3.693   2.478  15.057  0.3681  0.1059  0.0434
 6986TIP3   OH242372   5.391   1.611  13.773 -0.0901 -0.5038 -0.2509
 6986TIP3    H142373   5.465   1.562  13.737 -0.3143 -1.5586  0.6796
 6986TIP3    H242374   5.313   1.571  13.734 -0.2828 -0.9751  0.6023
 6987TIP3   OH242375   3.063   6.660  11.709 -0.7720  0.0333 -0.1327
 6987TIP3    H142376   3.016   6.589  11.666 -2.5541  1.0531  0.0508
 6987TIP3    H242377   3.028   6.662  11.798 -0.9161  1.2650 -0.2002
 6988TIP3   OH242378   2.342   1.264  15.133 -0.0705  0.3619  0.0316
 6988TIP3    H142379   2.328   1.329  15.202  1.6045  0.0034  0.7684
 6988TIP3    H242380   2.258   1.218  15.126 -0.9210  1.8027  0.3154
 6989TIP3   OH242381   2.115   6.618   4.356  0.2533 -0.3130 -0.2858
 6989TIP3    H142382   2.196   6.569   4.372 -0.5428 -1.1828  1.3835
 6989TIP3    H242383   2.063   6.561   4.299  0.2290 -0.4173 -0.1609
 6990TIP3   OH242384   6.455   2.871   3.582 -0.1863 -0.0595  0.2952
 6990TIP3    H142385   6.477   2.839   3.669  0.4760  0.4613  0.3251
 6990TIP3    H242386   6.383   2.815   3.554  0.5088 -1.1519  0.6099
 6991TIP3   OH242387   6.491   2.278   2.650 -0.6325  0.1784 -0.0371
 6991TIP3    H142388   6.564   2.323   2.692 -0.6559  0.8355 -0.6824
 6991TIP3    H242389   6.420   2.341   2.652 -0.4219  0.5154 -1.6988
 6992TIP3   OH242390   0.845   0.981   0.721  0.3689 -0.4962  0.0444
 6992TIP3    H142391   0.893   0.923   0.662 -0.9614 -1.3522 -0.2529
 6992TIP3    H242392   0.755   0.978   0.689  0.2846  1.9229 -0.0905
 6993TIP3   OH242393   6.756   3.630   4.908  0.0587  0.3053  0.1215
 6993TIP3    H142394   6.747   3.722   4.885 -1.2785  0.1592 -0.0147
 6993TIP3    H242395   6.681   3.611   4.964  1.2318 -0.2946  1.5777
 6994TIP3   OH242396   1.714   0.807   6.139  0.5226 -0.4975 -0.2619
 6994TIP3    H142397   1.747   0.732   6.090  1.2258  0.1462 -0.7873
 6994TIP3    H242398   1.619   0.793   6.142  0.7888 -2.5249  1.5463
 6995TIP3   OH242399   4.644   5.398  16.858 -0.6914 -0.6298 -0.3796
 6995TIP3    H142400   4.703   5.334  16.818 -0.9779 -0.7414 -0.6273
 6995TIP3    H242401   4.634   5.466  16.792 -0.7394 -0.5467 -0.2864
 6996TIP3   OH242402   5.308   0.234  15.484  0.0978  0.8004  0.5607
 6996TIP3    H142403   5.234   0.177  15.463  0.3083  0.5090  0.6089
 6996TIP3    H242404   5.384   0.176  15.485  0.3992  1.1799  0.0407
 6997TIP3   OH242405   1.783   0.821  11.356 -0.2741 -0.3362  0.1861
 6997TIP3    H142406   1.842   0.756  11.393  1.0696  0.5364 -0.3568
 6997TIP3    H242407   1.785   0.805  11.262  0.4008  0.7181 -0.0040
 6998TIP3   OH242408   2.842   2.195   2.983  0.8210 -0.1163 -0.2504
 6998TIP3    H142409   2.825   2.230   2.896  1.7783  0.0908 -0.3594
 6998TIP3    H242410   2.894   2.262   3.027  0.2861 -0.1819  0.5186
 6999TIP3   OH242411   1.601   0.493   4.145  0.0770  0.5640 -0.0903
 6999TIP3    H142412   1.561   0.566   4.098 -1.9711  0.6563  1.6438
 6999TIP3    H242413   1.539   0.473   4.216  2.6485  0.0265  2.1725
 7000TIP3   OH242414   5.271   1.713   5.017 -0.7482  0.0457 -0.3915
 7000TIP3    H142415   5.212   1.735   4.946  1.2230  2.0137 -1.5321
 7000TIP3    H242416   5.232   1.755   5.094 -2.3488 -1.2191 -0.4709
 7001TIP3   OH242417   6.171   1.201  16.768 -1.0371 -0.0463 -0.1781
 7001TIP3    H142418   6.155   1.172  16.679  0.3818 -2.0150  0.1227
 7001TIP3    H242419   6.262   1.230  16.768 -1.3335  0.9346  0.4145
 7002TIP3   OH242420   6.122   5.800  16.019 -0.0046  1.0383  0.0118
 7002TIP3    H142421   6.103   5.869  16.083  1.0033 -0.4178  2.0244
 7002TIP3    H242422   6.049   5.738  16.029 -0.9197  1.7644 -1.7961
 7003TIP3   OH242423   5.263   5.414   5.187  0.1433  0.2253  0.0428
 7003TIP3    H142424   5.190   5.360   5.158 -0.2203 -1.2206  3.2522
 7003TIP3    H242425   5.242   5.502   5.155 -1.7049 -0.6264 -1.2209
 7004TIP3   OH242426   4.603   0.136   3.967 -0.3866 -0.4113 -0.0298
 7004TIP3    H142427   4.518   0.119   4.007 -0.4709 -0.8881 -0.4081
 7004TIP3    H242428   4.653   0.055   3.980  0.0943 -0.0551  0.3940
 7005TIP3   OH242429   5.046   4.317   2.698 -0.1427  0.1488  0.2543
 7005TIP3    H142430   5.074   4.241   2.646 -0.2997 -0.0818  0.5078
 7005TIP3    H242431   4.951   4.321   2.686 -0.0702  0.6567 -0.2290
 7006TIP3   OH242432   6.433   4.195   4.593 -0.1007  0.7383 -0.1481
 7006TIP3    H142433   6.373   4.257   4.551  1.1050  1.4864 -0.8361
 7006TIP3    H242434   6.479   4.247   4.659  1.5584  0.8474 -1.3405
 7007TIP3   OH242435   0.899   4.953   2.433  0.0506 -0.0691  0.1671
 7007TIP3    H142436   0.859   4.967   2.348  0.8828 -0.6553 -0.3384
 7007TIP3    H242437   0.940   5.037   2.455 -0.1794  0.0877 -0.0086
 7008TIP3   OH242438   5.450   5.643  11.783 -0.2476  0.8515  0.0566
 7008TIP3    H142439   5.418   5.733  11.777 -0.8072  0.7684  1.4400
 7008TIP3    H242440   5.441   5.620  11.875  5.6605  1.4489  1.1825
 7009TIP3   OH242441   5.812   5.934  14.163  0.3601 -0.1259 -0.3392
 7009TIP3    H142442   5.903   5.907  14.174  0.3432 -1.1466 -2.4101
 7009TIP3    H242443   5.761   5.856  14.184  0.1175 -0.4173 -1.9115
 7010TIP3   OH242444   3.208   1.531   0.590  0.4660  0.2446 -0.1207
 7010TIP3    H142445   3.252   1.614   0.606 -0.3268  0.8781 -1.0866
 7010TIP3    H242446   3.257   1.491   0.518 -0.0204  0.5762 -0.6493
 7011TIP3   OH242447   6.009   1.769   6.137  0.0149  0.0028  0.0352
 7011TIP3    H142448   5.984   1.852   6.178 -0.2504  0.4071 -0.9209
 7011TIP3    H242449   6.014   1.707   6.210  0.5362  0.9238  0.8050
 7012TIP3   OH242450   6.390   0.747   4.823 -0.1354 -0.4746 -0.4933
 7012TIP3    H142451   6.472   0.780   4.786 -0.0317 -1.1068 -0.8398
 7012TIP3    H242452   6.393   0.774   4.915  0.0571  0.2590 -0.7055
 7013TIP3   OH242453   6.398   0.498  15.175  0.1531 -0.2871  0.3353
 7013TIP3    H142454   6.401   0.466  15.265  2.0932  2.6760  1.4679
 7013TIP3    H242455   6.380   0.420  15.123 -1.2449 -2.0966  3.2400
 7014TIP3   OH242456   5.743   2.889   0.606 -0.5994 -0.1004 -0.3942
 7014TIP3    H142457   5.653   2.920   0.618 -0.9985 -1.2231 -0.4321
 7014TIP3    H242458   5.739   2.833   0.529  0.2672  0.3540 -0.7769
 7015TIP3   OH242459   0.445   5.005  13.077  0.2124 -0.5757 -0.2890
 7015TIP3    H142460   0.538   5.029  13.071 -0.1739  0.9721 -0.4543
 7015TIP3    H242461   0.413   5.010  12.987 -0.3518  0.3314 -0.0491
 7016TIP3   OH242462   3.866   2.093  16.235 -0.2468 -0.3893 -0.3439
 7016TIP3    H142463   3.832   2.155  16.170 -0.7433  0.6003  0.8116
 7016TIP3    H242464   3.869   2.009  16.189 -3.9737 -0.5072 -0.6487
 7017TIP3   OH242465   5.394   1.846   3.300 -0.2920  0.4435 -0.0729
 7017TIP3    H142466   5.353   1.836   3.385 -2.7678 -0.2938 -1.2793
 7017TIP3    H242467   5.409   1.940   3.292  0.9831  0.4298  1.5548
 7018TIP3   OH242468   0.681   2.810   2.570  0.3282 -0.1959  0.3696
 7018TIP3    H142469   0.714   2.756   2.643  0.6162  1.8453  1.8385
 7018TIP3    H242470   0.759   2.834   2.521  0.3798  0.1030  0.5961
 7019TIP3   OH242471   5.914   5.271   1.916  0.3487  0.1223  0.7319
 7019TIP3    H142472   5.870   5.204   1.863  0.5883 -0.0806  0.7880
 7019TIP3    H242473   5.851   5.290   1.986  0.0458  0.3703  0.3905
 7020TIP3   OH242474   4.634   4.083  16.914 -0.2670 -0.0770 -0.1706
 7020TIP3    H142475   4.642   3.996  16.874 -0.9303  0.1775 -0.8788
 7020TIP3    H242476   4.639   4.067  17.008  0.6937 -0.7611 -0.3289
 7021TIP3   OH242477   6.794   1.876  11.441 -0.0553 -0.1940 -0.2778
 7021TIP3    H142478   6.866   1.865  11.379 -0.5390 -0.6728 -0.7696
 7021TIP3    H242479   6.742   1.796  11.432 -0.2185 -0.2051  0.6428
 7022TIP3   OH242480   1.577   0.456  14.091  0.6464  0.5915  0.4359
 7022TIP3    H142481   1.508   0.488  14.149  2.5250  1.2697  2.4594
 7022TIP3    H242482   1.657   0.462  14.144  2.8927  3.1576 -2.8081
 7023TIP3   OH242483   4.785   4.024   0.249 -0.4367  0.4296 -0.1220
 7023TIP3    H142484   4.810   4.088   0.316  0.0174 -0.8544  0.9830
 7023TIP3    H242485   4.832   4.052   0.171  1.6065  0.1729  0.9418
 7024TIP3   OH242486   1.126   3.703   4.199 -0.5006  0.2390 -0.3671
 7024TIP3    H142487   1.084   3.639   4.256 -0.2523  1.0048  0.6902
 7024TIP3    H242488   1.218   3.676   4.196 -0.8898 -1.1322 -2.2694
 7025TIP3   OH242489   4.596   2.601  16.681 -0.1763  0.0102 -0.4335
 7025TIP3    H142490   4.631   2.512  16.682 -0.5852 -0.1468  0.9115
 7025TIP3    H242491   4.593   2.624  16.588  0.5981 -1.1100 -0.7561
 7026TIP3   OH242492   1.566   4.183   1.351 -0.0102  0.1947  0.5603
 7026TIP3    H142493   1.538   4.092   1.365  0.8288 -0.0319  0.8384
 7026TIP3    H242494   1.571   4.220   1.439  2.6709 -0.4400  0.7701
 7027TIP3   OH242495   1.446   5.381   3.626  0.3494 -0.1600  0.7104
 7027TIP3    H142496   1.465   5.315   3.692  0.9648 -0.9369 -0.2227
 7027TIP3    H242497   1.529   5.425   3.611  0.6012 -1.0207 -0.6267
 7028TIP3   OH242498   3.420   3.662   1.420  0.0887 -0.3037  0.9513
 7028TIP3    H142499   3.410   3.757   1.421  1.3670 -0.0869 -0.9032
 7028TIP3    H242500   3.480   3.644   1.493 -0.1429  0.3014  1.3015
 7029TIP3   OH242501   4.271   4.901   1.310  0.2499 -0.6780  0.2098
 7029TIP3    H142502   4.255   4.934   1.221  0.2228 -1.6248 -0.1528
 7029TIP3    H242503   4.279   4.806   1.299 -2.7280 -1.2167  1.6102
 7030TIP3   OH242504   0.335   4.599   4.703 -0.2893  0.3031 -0.4232
 7030TIP3    H142505   0.322   4.543   4.780  1.8811 -1.0394 -0.9600
 7030TIP3    H242506   0.373   4.679   4.739 -1.1287  0.4991  0.0785
 7031TIP3   OH242507   3.699   2.173   3.873  0.3726  0.8529 -0.4985
 7031TIP3    H142508   3.661   2.106   3.930  1.0211  0.5961 -0.3684
 7031TIP3    H242509   3.623   2.209   3.826 -0.1174  0.7898  0.2223
 7032TIP3   OH242510   3.784   2.492  11.260  0.0327 -0.0914 -0.1469
 7032TIP3    H142511   3.725   2.475  11.333 -1.3894  2.7529 -0.4998
 7032TIP3    H242512   3.746   2.444  11.187  0.0826 -0.9676  0.3870
 7033TIP3   OH242513   5.314   3.945  16.538  0.3805  0.2111  0.0666
 7033TIP3    H142514   5.275   3.979  16.618 -1.3160 -0.6276 -0.3674
 7033TIP3    H242515   5.317   4.021  16.479 -2.3547 -0.0523 -0.5157
 7034TIP3   OH242516   5.961   1.362   3.011 -0.2886 -0.4369 -0.3232
 7034TIP3    H142517   6.018   1.415   2.955 -0.4782  1.0042  0.7724
 7034TIP3    H242518   6.021   1.308   3.062  0.1353  0.7692  0.5207
 7035TIP3   OH242519   0.159   6.505  16.186 -0.8211  0.4433  0.4164
 7035TIP3    H142520   0.231   6.442  16.181 -2.2751 -1.3171  0.8406
 7035TIP3    H242521   0.178   6.568  16.115 -0.1318 -1.3554 -1.0834
 7036TIP3   OH242522   2.537   3.860  12.607  0.4106 -0.3470 -0.2284
 7036TIP3    H142523   2.569   3.913  12.534  1.9018  0.1078  0.7209
 7036TIP3    H242524   2.585   3.778  12.602  0.9133 -0.1108  0.5332
 7037TIP3   OH242525   2.988   0.024  11.137  0.1385 -0.2733  0.2910
 7037TIP3    H142526   2.928   0.028  11.063 -0.4760  0.7197  0.8292
 7037TIP3    H242527   3.067   0.069  11.106  0.9152 -2.1725 -0.6525
 7038TIP3   OH242528   5.810   2.692   0.778 -0.1496  0.1663  0.0908
 7038TIP3    H142529   5.788   2.772   0.731 -1.0116  0.7118  1.3733
 7038TIP3    H242530   5.731   2.671   0.828 -0.4677 -2.3120 -1.3010
 7039TIP3   OH242531   2.034   2.465  11.078 -0.8827 -0.5513  0.2091
 7039TIP3    H142532   1.971   2.488  11.146 -1.5830  1.7126 -1.1115
 7039TIP3    H242533   1.981   2.444  11.001 -0.1585  2.4116 -1.2376
 7040TIP3   OH242534   4.378   4.451  14.238 -0.1013  0.3588  0.7317
 7040TIP3    H142535   4.441   4.401  14.290  2.2089  1.7386 -0.5425
 7040TIP3    H242536   4.307   4.389  14.220  2.1872 -2.2797 -0.0631
 7041TIP3   OH242537   5.762   5.175  16.307  0.1879  0.3619  0.7358
 7041TIP3    H142538   5.835   5.115  16.317 -0.7236 -0.6384  1.6046
 7041TIP3    H242539   5.684   5.120  16.309 -0.5878  1.2435 -1.4700
 7042TIP3   OH242540   4.149   3.870   1.436  0.3717 -0.0590 -1.2863
 7042TIP3    H142541   4.175   3.778   1.435 -0.8782 -0.4485 -0.3803
 7042TIP3    H242542   4.207   3.912   1.372  3.3457 -0.7757  0.7157
 7043TIP3   OH242543   3.011   2.300   6.305  0.2893 -0.1887  0.4404
 7043TIP3    H142544   3.026   2.394   6.315  1.0025 -0.1627 -0.6931
 7043TIP3    H242545   3.049   2.278   6.220  0.9448 -1.6814  1.0789
 7044TIP3   OH242546   1.563   1.991   1.950  0.3871 -0.1905  0.0855
 7044TIP3    H142547   1.469   1.981   1.959  0.5186 -1.2412  0.4463
 7044TIP3    H242548   1.598   1.978   2.038  0.8723  0.1845 -0.0427
 7045TIP3   OH242549   5.016   3.907   0.893  0.3152 -0.2776  0.1769
 7045TIP3    H142550   5.040   3.831   0.841  1.8683 -0.0726  0.5408
 7045TIP3    H242551   5.037   3.982   0.837  0.4422 -0.0928  0.4676
 7046TIP3   OH242552   5.986   3.950  14.112 -0.2945  0.0572 -0.5603
 7046TIP3    H142553   5.993   3.883  14.180  0.5427  0.8870  0.2047
 7046TIP3    H242554   6.049   3.923  14.045 -0.5328 -0.3357 -0.6266
 7047TIP3   OH242555   2.142   5.004  12.624  0.0100  0.2700  0.2357
 7047TIP3    H142556   2.077   4.986  12.556  0.3608  0.5175 -0.1669
 7047TIP3    H242557   2.141   5.099  12.632  1.9469  0.4862 -1.3944
 7048TIP3   OH242558   6.769   6.287   1.889 -0.2689 -0.9411 -0.1676
 7048TIP3    H142559   6.845   6.276   1.833  0.1978 -2.6684  0.7578
 7048TIP3    H242560   6.696   6.300   1.828  0.6277  0.1578 -1.0737
 7049TIP3   OH242561   5.970   1.865   4.708 -0.1606 -0.1118  0.1853
 7049TIP3    H142562   5.995   1.824   4.625 -4.5476 -2.4962 -0.2812
 7049TIP3    H242563   5.923   1.944   4.682 -0.7420 -0.3781  0.4066
 7050TIP3   OH242564   4.391   2.829   3.635  0.1297 -0.2856  0.1667
 7050TIP3    H142565   4.386   2.773   3.712 -0.8734 -0.8717 -0.2968
 7050TIP3    H242566   4.313   2.885   3.641 -1.0384 -1.6421 -1.3577
 7051TIP3   OH242567   1.148   3.931  15.392 -0.2847 -0.3781 -0.1471
 7051TIP3    H142568   1.092   4.006  15.413  2.0823  0.9313  2.1234
 7051TIP3    H242569   1.156   3.934  15.296 -0.3610  2.2613 -0.1559
 7052TIP3   OH242570   1.902   5.667  11.464 -0.3562 -0.0396 -0.2168
 7052TIP3    H142571   1.876   5.575  11.473  1.1469 -0.5562 -0.8201
 7052TIP3    H242572   1.991   5.670  11.499 -0.1471  1.0513 -0.8008
 7053TIP3   OH242573   1.907   3.019   3.895  0.0621 -0.4900 -0.2267
 7053TIP3    H142574   1.982   3.038   3.839  0.3370 -1.0757 -0.0665
 7053TIP3    H242575   1.914   2.925   3.913 -0.3178 -0.4103  0.3647
 7054TIP3   OH242576   1.249   0.138   5.757  0.1947  0.3255 -0.1898
 7054TIP3    H142577   1.185   0.199   5.792  0.3133 -0.0350  0.6759
 7054TIP3    H242578   1.319   0.135   5.823  0.2492 -0.6364 -0.2700
 7055TIP3   OH242579   3.668   0.432  10.979  0.2723  0.1402  0.3972
 7055TIP3    H142580   3.693   0.351  10.933 -0.7438 -0.7002  1.2726
 7055TIP3    H242581   3.628   0.486  10.912  0.7095 -0.1938 -0.1446
 7056TIP3   OH242582   5.226   5.393   3.896  0.5353  0.3324  0.2745
 7056TIP3    H142583   5.174   5.426   3.822  1.0043  0.2808 -0.0846
 7056TIP3    H242584   5.172   5.324   3.934  0.1836  0.5222  0.1317
 7057TIP3   OH242585   0.452   0.231  16.891  0.4371 -0.3713  0.3747
 7057TIP3    H142586   0.400   0.269  16.819 -0.2546  1.5683  1.8042
 7057TIP3    H242587   0.469   0.141  16.863 -1.9379 -0.4619 -1.1186
 7058TIP3   OH242588   4.158   3.102  16.782  0.4201  0.4659 -0.1716
 7058TIP3    H142589   4.188   3.011  16.776 -1.5747 -0.1735 -1.8809
 7058TIP3    H242590   4.212   3.149  16.720  0.8250  0.2511  0.0153
 7059TIP3   OH242591   2.441   2.307   1.074  0.0117 -0.3522  0.6951
 7059TIP3    H142592   2.396   2.337   1.153  1.5592  3.9032  0.1936
 7059TIP3    H242593   2.533   2.322   1.091  0.3687  1.1987 -2.0320
 7060TIP3   OH242594   0.062   2.264  11.509 -0.4110  0.5111 -0.0119
 7060TIP3    H142595   0.002   2.318  11.560  0.5793  2.4591 -0.7870
 7060TIP3    H242596   0.130   2.325  11.480  0.8390 -1.2037 -0.8577
 7061TIP3   OH242597   6.644   5.699  16.790 -0.8989 -0.0809  0.1806
 7061TIP3    H142598   6.689   5.726  16.870 -1.0310  1.3436 -0.1931
 7061TIP3    H242599   6.625   5.606  16.803  1.8752 -0.6889  0.4791
 7062TIP3   OH242600   6.724   5.916  15.916  0.3260  0.1963 -0.2022
 7062TIP3    H142601   6.667   5.972  15.969  0.0726 -1.6300  1.5416
 7062TIP3    H242602   6.680   5.911  15.831 -1.8416 -0.6717  0.8999
 7063TIP3   OH242603   2.447   3.367  16.654 -0.1817 -0.3086  0.5338
 7063TIP3    H142604   2.402   3.391  16.573 -0.5858 -0.9913  0.5430
 7063TIP3    H242605   2.383   3.313  16.701 -0.4449  1.1384  1.9159
 7064TIP3   OH242606   5.149   0.495  15.584 -0.2222  0.4775 -0.0172
 7064TIP3    H142607   5.218   0.445  15.628 -3.1394 -2.1727  2.0312
 7064TIP3    H242608   5.124   0.441  15.509 -1.2729  0.4388  0.3451
 7065TIP3   OH242609   2.608   5.468  13.972 -0.1682 -0.1628  0.1225
 7065TIP3    H142610   2.599   5.504  13.884  2.0720 -0.5630 -0.3240
 7065TIP3    H242611   2.534   5.505  14.020 -1.2360  0.3702 -1.7985
 7066TIP3   OH242612   2.120   1.447   3.091  0.1627  0.2694 -0.0734
 7066TIP3    H142613   2.170   1.529   3.091  0.6578 -0.0286 -0.1154
 7066TIP3    H242614   2.040   1.467   3.042  1.0780  0.2415 -1.6377
 7067TIP3   OH242615   4.866   0.689   2.589 -0.4248  0.0607  0.2722
 7067TIP3    H142616   4.772   0.675   2.590 -0.5653  0.7929 -0.6822
 7067TIP3    H242617   4.877   0.777   2.627 -0.4267  1.2560 -2.3142
 7068TIP3   OH242618   3.154   1.980   0.077  0.3507 -0.1210  0.0981
 7068TIP3    H142619   3.165   1.886   0.060  2.3827  0.3776 -1.8608
 7068TIP3    H242620   3.102   2.011   0.003  2.6274  0.8000 -1.2220
 7069TIP3   OH242621   1.150   2.382   1.306 -0.4956 -0.3349 -0.8732
 7069TIP3    H142622   1.137   2.473   1.334 -0.4901  0.0005 -1.9355
 7069TIP3    H242623   1.243   2.365   1.320 -0.7514 -0.6440  0.6367
 7070TIP3   OH242624   3.654   3.088  16.524  0.8286  0.0725 -0.1160
 7070TIP3    H142625   3.664   3.016  16.461 -0.5187  0.8610 -1.3218
 7070TIP3    H242626   3.736   3.137  16.519  1.4100 -0.8801  0.0521
 7071TIP3   OH242627   6.178   1.078   5.885 -0.1176  0.2021  0.2036
 7071TIP3    H142628   6.199   1.014   5.817 -1.3513  0.6391 -0.6440
 7071TIP3    H242629   6.087   1.060   5.908  0.5697 -0.6244  2.5685
 7072TIP3   OH242630   5.593   4.476   4.205 -0.3238  0.6376 -0.2552
 7072TIP3    H142631   5.632   4.538   4.143 -1.7545 -0.1349 -2.0078
 7072TIP3    H242632   5.668   4.428   4.240  0.4461 -0.5766 -3.2634
 7073TIP3   OH242633   6.735   5.373   6.200  0.0384  0.6234 -0.2466
 7073TIP3    H142634   6.720   5.408   6.288 -1.0126  0.9942 -0.5527
 7073TIP3    H242635   6.704   5.282   6.204  0.7442  0.3844 -0.0300
 7074TIP3   OH242636   4.626   6.432   1.789 -0.3006  0.7590 -0.0400
 7074TIP3    H142637   4.668   6.511   1.821 -0.6290  1.5089 -1.3446
 7074TIP3    H242638   4.698   6.375   1.761 -0.0785  1.4548 -0.9588
 7075TIP3   OH242639   0.425   2.813  14.024  0.5382  0.0108 -0.2881
 7075TIP3    H142640   0.381   2.781  13.946  1.2442 -3.7553  0.6466
 7075TIP3    H242641   0.355   2.835  14.085  0.0184  1.1340 -1.2415
 7076TIP3   OH242642   5.896   1.556  11.861  0.4226 -0.1279 -0.5477
 7076TIP3    H142643   5.910   1.625  11.796  0.9772  3.2634  2.7950
 7076TIP3    H242644   5.976   1.557  11.914  0.1887 -3.0272  0.0204
 7077TIP3   OH242645   0.175   3.282  16.868  0.2530 -0.4667  0.0645
 7077TIP3    H142646   0.089   3.242  16.855  0.2420 -1.0082  1.5648
 7077TIP3    H242647   0.222   3.221  16.925  1.3522  0.2024 -0.0820
 7078TIP3   OH242648   3.743   5.328  16.650 -0.1909  0.4623 -0.0312
 7078TIP3    H142649   3.691   5.265  16.698  1.9763 -0.0970  1.7187
 7078TIP3    H242650   3.770   5.392  16.716  1.2642  0.7598 -0.8848
 7079TIP3   OH242651   6.278   3.566  16.630  0.1096 -0.0134  0.5592
 7079TIP3    H142652   6.185   3.544  16.630 -0.0116  0.4623  0.3168
 7079TIP3    H242653   6.323   3.482  16.626 -0.3166 -0.2398  0.4548
 7080TIP3   OH242654   1.895   6.251  13.597 -0.2022 -0.3204 -0.4100
 7080TIP3    H142655   1.919   6.333  13.553 -1.0122  1.9225  2.9641
 7080TIP3    H242656   1.818   6.273  13.649 -0.2907 -3.1890  0.8660
 7081TIP3   OH242657   0.683   4.583   2.147 -0.2867  0.3987  0.2592
 7081TIP3    H142658   0.776   4.567   2.168 -0.3785 -0.3587  0.1439
 7081TIP3    H242659   0.669   4.675   2.169 -0.3561 -0.2493  3.6012
 7082TIP3   OH242660   2.307   1.741  15.055 -0.7296 -0.1064  0.0148
 7082TIP3    H142661   2.376   1.806  15.058 -1.6467  0.8408  1.4738
 7082TIP3    H242662   2.256   1.764  14.977 -0.6722  0.5371  0.1617
 7083TIP3   OH242663   5.610   0.988  14.719  0.3841  0.2454  0.5633
 7083TIP3    H142664   5.579   1.054  14.781 -1.3276  0.1334 -0.1354
 7083TIP3    H242665   5.531   0.946  14.686  1.3674 -1.1452 -0.1327
 7084TIP3   OH242666   6.806   5.569  14.451 -0.3458  0.8663 -0.3904
 7084TIP3    H142667   6.723   5.546  14.494 -0.5174 -0.9674 -1.5873
 7084TIP3    H242668   6.868   5.504  14.484  0.1025  0.9382 -1.0920
 7085TIP3   OH242669   4.354   0.217   3.674 -0.5813 -1.0460 -0.1421
 7085TIP3    H142670   4.348   0.307   3.642 -0.4339 -0.1452  2.1564
 7085TIP3    H242671   4.297   0.167   3.616  0.5724  0.1930 -2.4695
 7086TIP3   OH242672   5.497   1.484   6.225  0.7420  0.0895 -0.2929
 7086TIP3    H142673   5.593   1.487   6.222  0.8016 -0.4366  0.7325
 7086TIP3    H242674   5.477   1.397   6.258 -0.0017  1.1627  2.3187
 7087TIP3   OH242675   2.956   1.373   1.445 -0.3513 -0.5972  0.6680
 7087TIP3    H142676   3.010   1.400   1.371  1.6654 -1.8258  1.6016
 7087TIP3    H242677   2.937   1.454   1.492  2.0469 -0.2410  1.1558
 7088TIP3   OH242678   1.234   0.369  11.540  0.1428 -0.0283  0.3384
 7088TIP3    H142679   1.208   0.450  11.495  0.0047  0.6530  1.5885
 7088TIP3    H242680   1.270   0.313  11.470  0.9295  1.3896 -0.4501
 7089TIP3   OH242681   2.653   5.054   1.748  0.1116 -0.0238 -0.2508
 7089TIP3    H142682   2.616   4.996   1.814 -0.5955  0.1261 -0.5059
 7089TIP3    H242683   2.676   5.134   1.796  0.7183 -0.3649  0.0292
 7090TIP3   OH242684   6.565   3.076  12.711 -0.9056  0.0945 -0.1204
 7090TIP3    H142685   6.482   3.029  12.718 -0.8785  0.1915  1.0900
 7090TIP3    H242686   6.623   3.016  12.662 -0.3760 -1.9144  2.7169
 7091TIP3   OH242687   1.609   1.652   9.963  0.5455  0.8026 -0.5034
 7091TIP3    H142688   1.557   1.631   9.885  0.5786 -0.6084 -0.1736
 7091TIP3    H242689   1.564   1.607  10.035  2.0397 -0.2374 -0.1723
 7092TIP3   OH242690   0.698   3.266   6.277  0.6914 -0.0023  0.1460
 7092TIP3    H142691   0.718   3.321   6.201 -0.7183 -0.4928 -0.6325
 7092TIP3    H242692   0.708   3.176   6.244 -0.3934 -0.2213  0.3818
 7093TIP3   OH242693   2.421   0.081  11.702  0.4532  0.1900  0.3138
 7093TIP3    H142694   2.473   0.142  11.754 -2.1027  0.9530  2.1100
 7093TIP3    H242695   2.347   0.057  11.757 -0.5842 -1.7277 -1.7069
 7094TIP3   OH242696   5.958   3.084  11.015  0.2099  0.0047  0.4421
 7094TIP3    H142697   6.026   3.139  10.975 -0.8539 -0.6373 -2.4655
 7094TIP3    H242698   5.876   3.126  10.991 -0.5359 -1.3636  0.5088
 7095TIP3   OH242699   6.056   1.621  16.173 -0.1565 -0.1417  0.1603
 7095TIP3    H142700   6.027   1.616  16.264 -0.2758 -0.5257  0.1059
 7095TIP3    H242701   5.982   1.585  16.123 -0.7577  1.5517 -0.2341
 7096TIP3   OH242702   6.331   2.469  14.990  0.5912  0.2421 -0.6341
 7096TIP3    H142703   6.344   2.560  14.963  0.2938  0.2022 -0.9068
 7096TIP3    H242704   6.238   2.453  14.977  0.4974  0.1236  0.1072
 7097TIP3   OH242705   2.653   4.769   5.323  0.1223  0.3358 -0.1207
 7097TIP3    H142706   2.743   4.750   5.349 -0.7000 -2.1042  1.3127
 7097TIP3    H242707   2.643   4.863   5.337  1.6959  0.2394  2.2998
 7098TIP3   OH242708   6.735   2.375  15.722  0.0226 -0.3377 -0.2696
 7098TIP3    H142709   6.790   2.453  15.727  0.5597 -0.7363  0.1952
 7098TIP3    H242710   6.663   2.400  15.664  0.2252  0.4759 -0.1811
 7099TIP3   OH242711   5.951   4.596   6.667 -0.5681 -0.1971  0.1507
 7099TIP3    H142712   5.946   4.516   6.616  0.9195 -0.2671  0.0984
 7099TIP3    H242713   5.972   4.567   6.756  1.0137  0.1828 -0.0845
 7100TIP3   OH242714   1.585   4.483  12.812  0.6693 -0.8371  0.3084
 7100TIP3    H142715   1.591   4.400  12.859  0.5117 -3.1753 -3.3751
 7100TIP3    H242716   1.674   4.497  12.778  0.0297 -1.2989 -1.7002
 7101TIP3   OH242717   6.657   3.472  16.191 -0.6570 -0.7428  0.4995
 7101TIP3    H142718   6.589   3.521  16.236 -0.9626 -0.5522 -0.1550
 7101TIP3    H242719   6.622   3.457  16.103 -0.1941 -1.3533  0.4077
 7102TIP3   OH242720   6.676   2.994   2.877  0.1849  0.1141 -0.4328
 7102TIP3    H142721   6.727   2.919   2.846 -1.2569 -0.0078 -2.7614
 7102TIP3    H242722   6.741   3.054   2.913  1.5073 -1.7039  0.3537
 7103TIP3   OH242723   2.179   0.613  14.208 -0.5187 -0.3418 -0.7445
 7103TIP3    H142724   2.208   0.554  14.139  1.9618  0.4033 -0.4283
 7103TIP3    H242725   2.104   0.660  14.171 -1.6098 -2.5720 -1.5159
 7104TIP3   OH242726   3.302   5.701   2.816 -0.5786 -0.2075 -0.3704
 7104TIP3    H142727   3.304   5.794   2.794  1.7377  0.0562  0.6171
 7104TIP3    H242728   3.241   5.695   2.889 -1.3377  0.3930 -0.9404
 7105TIP3   OH242729   2.214   1.220  13.455 -0.0965  0.2730 -0.2342
 7105TIP3    H142730   2.235   1.313  13.453  2.6738 -0.2777 -0.1743
 7105TIP3    H242731   2.175   1.206  13.542 -0.2379  1.2997 -0.1218
 7106TIP3   OH242732   6.507   6.640   2.358 -0.4646 -0.2759 -0.3977
 7106TIP3    H142733   6.580   6.702   2.364 -0.5902 -0.1700  0.1076
 7106TIP3    H242734   6.469   6.655   2.272 -1.1660  1.1270  0.1174
 7107TIP3   OH242735   2.062   6.328   3.341 -0.1475 -0.8934  0.0743
 7107TIP3    H142736   2.034   6.266   3.273 -1.1689 -1.3651  0.9034
 7107TIP3    H242737   2.055   6.279   3.423  2.1085 -0.6828  0.4589
 7108TIP3   OH242738   5.223   4.779   5.539  0.2081  0.8373  0.2662
 7108TIP3    H142739   5.281   4.707   5.515 -0.2275  0.7686 -0.6211
 7108TIP3    H242740   5.142   4.737   5.569 -0.8153  0.9176 -2.1761
 7109TIP3   OH242741   1.088   1.008  13.956  0.4209 -0.6177  0.1818
 7109TIP3    H142742   1.163   1.059  13.927 -0.1683  0.6265  0.7589
 7109TIP3    H242743   1.104   0.920  13.922  2.1085 -0.3803  0.2731
 7110TIP3   OH242744   2.941   4.453  15.024 -0.1069  0.1496  0.0746
 7110TIP3    H142745   3.028   4.456  15.062 -0.0001 -0.2643 -0.1347
 7110TIP3    H242746   2.904   4.370  15.054 -0.4318  0.3275  0.1734
 7111TIP3   OH242747   4.771   0.253  11.985 -0.2318  0.6863  0.1932
 7111TIP3    H142748   4.822   0.222  11.910 -0.2987  0.3699  0.2787
 7111TIP3    H242749   4.699   0.190  11.993 -2.2636  2.5833 -1.6445
 7112TIP3   OH242750   3.856   1.111  11.711 -0.9282  0.1035  0.2737
 7112TIP3    H142751   3.846   1.125  11.805 -2.2473  0.4371  0.1117
 7112TIP3    H242752   3.807   1.183  11.671  1.3016  1.1937 -0.7163
 7113TIP3   OH242753   5.150   1.264   3.840  0.5394  0.8502  0.0221
 7113TIP3    H142754   5.124   1.182   3.798  0.3629  0.5149  0.7709
 7113TIP3    H242755   5.150   1.329   3.769 -1.3255  0.6474 -0.2113
 7114TIP3   OH242756   1.264   4.912  14.678 -0.2795  0.0629  0.3043
 7114TIP3    H142757   1.274   4.996  14.723  0.0078  0.2130 -0.0363
 7114TIP3    H242758   1.241   4.935  14.588 -0.2155 -0.2253  0.2127
 7115TIP3   OH242759   2.095   3.455  14.252  0.3674 -0.0538  0.1733
 7115TIP3    H142760   2.153   3.522  14.290  0.3979 -0.5854  1.1055
 7115TIP3    H242761   2.086   3.480  14.160  0.7628  0.9588  0.3967
 7116TIP3   OH242762   0.938   4.352   3.688 -0.3837 -0.1572 -0.0023
 7116TIP3    H142763   0.901   4.278   3.736 -4.4372  1.1092 -0.7468
 7116TIP3    H242764   0.946   4.421   3.754 -0.9547  0.0302 -0.1190
 7117TIP3   OH242765   4.205   4.674  14.285  0.2315  0.8144 -0.5802
 7117TIP3    H142766   4.122   4.626  14.285  0.6901 -0.0944  1.5843
 7117TIP3    H242767   4.271   4.607  14.266  0.6637  1.1058 -0.1122
 7118TIP3   OH242768   4.370   0.580  16.135  0.0144 -0.5291 -0.5106
 7118TIP3    H142769   4.318   0.594  16.056 -0.5487 -0.3805 -0.1174
 7118TIP3    H242770   4.306   0.557  16.202  0.4041  0.1183  0.0947
 7119TIP3   OH242771   1.990   4.722   3.639  0.1380 -0.4971 -0.4888
 7119TIP3    H142772   1.953   4.676   3.715  0.5431 -0.1526 -0.0787
 7119TIP3    H242773   1.980   4.815   3.660  0.9846 -0.4030 -0.5008
 7120TIP3   OH242774   5.470   5.551  12.321  0.2739 -0.5891 -0.3219
 7120TIP3    H142775   5.561   5.580  12.315  0.3152 -0.7158 -0.3167
 7120TIP3    H242776   5.461   5.521  12.412 -0.1505  0.6710  0.0658
 7121TIP3   OH242777   0.161   3.877  11.040  0.4532 -0.2906  0.6917
 7121TIP3    H142778   0.207   3.936  10.980 -1.0926  1.2779  0.9851
 7121TIP3    H242779   0.213   3.880  11.120  0.3673  0.7325  0.7204
 7122TIP3   OH242780   1.710   1.698  13.452 -0.5060 -0.1506  0.1633
 7122TIP3    H142781   1.683   1.708  13.544  0.8626  0.5355  0.5234
 7122TIP3    H242782   1.628   1.694  13.403 -1.3064 -1.9176  1.5268
 7123TIP3   OH242783   0.190   1.380  14.424 -0.3805 -0.3448 -0.4312
 7123TIP3    H142784   0.218   1.302  14.376 -0.7913  0.3308 -1.8543
 7123TIP3    H242785   0.258   1.445  14.404  0.1570 -0.4271  1.0423
 7124TIP3   OH242786   1.343   5.455  16.609 -0.2613  0.0886 -0.3013
 7124TIP3    H142787   1.399   5.518  16.564  0.5084  0.5930  1.2946
 7124TIP3    H242788   1.369   5.370  16.574  0.1779  0.4755 -0.9405
 7125TIP3   OH242789   0.477   2.939  15.678 -0.8606  0.3311  0.2988
 7125TIP3    H142790   0.438   2.918  15.762  1.1494  1.1828  1.5164
 7125TIP3    H242791   0.514   2.856  15.647  0.2221  0.4274  1.2921
 7126TIP3   OH242792   3.721   4.060   5.585 -0.1001  0.6445 -0.3430
 7126TIP3    H142793   3.657   4.047   5.656 -0.9988  0.3836 -1.1761
 7126TIP3    H242794   3.720   3.978   5.537  0.5412  0.8053 -0.6331
 7127TIP3   OH242795   0.594   2.680  14.852  0.3124 -0.2973 -0.4946
 7127TIP3    H142796   0.653   2.720  14.915 -0.8802  1.3968 -0.3966
 7127TIP3    H242797   0.651   2.634  14.791  1.5327 -1.5299  1.4533
 7128TIP3   OH242798   0.991   4.612  15.033 -0.1483 -0.4975 -0.9325
 7128TIP3    H142799   1.053   4.542  15.014  2.7491  2.0856 -1.8080
 7128TIP3    H242800   0.988   4.664  14.953 -2.1755  0.4517 -0.3150
 7129TIP3   OH242801   2.492   6.757  13.890  0.1623 -0.0109  0.4249
 7129TIP3    H142802   2.427   6.732  13.825 -1.4689  1.6760  1.3340
 7129TIP3    H242803   2.494   6.683  13.951 -1.3569  0.1498  0.7066
 7130TIP3   OH242804   5.373   0.751  16.815 -0.0776 -0.1964 -1.1597
 7130TIP3    H142805   5.379   0.746  16.719 -0.7206 -1.4814 -1.1575
 7130TIP3    H242806   5.280   0.751  16.833  0.0053 -1.8846 -0.4993
 7131TIP3   OH242807   6.324   0.850  16.303 -0.1712 -0.3692 -0.6590
 7131TIP3    H142808   6.250   0.805  16.342 -0.3066 -0.5932 -1.1690
 7131TIP3    H242809   6.401   0.808  16.341 -0.2754  0.8884  1.0635
 7132TIP3   OH242810   1.875   0.630  13.964  0.0504 -0.0856  0.3024
 7132TIP3    H142811   1.864   0.560  13.899 -0.2018 -1.4942  1.8016
 7132TIP3    H242812   1.853   0.710  13.916 -1.5194 -1.2181 -0.9890
 7133TIP3   OH242813   0.626   6.350  11.711  0.4465  0.0678 -0.0392
 7133TIP3    H142814   0.632   6.415  11.641  0.8362 -1.2540 -1.2795
 7133TIP3    H242815   0.533   6.345  11.732  0.1855 -0.2412 -1.2034
 7134TIP3   OH242816   3.589   1.151   5.484  0.3659  0.2459 -0.1497
 7134TIP3    H142817   3.653   1.198   5.536  1.7712  1.3848 -2.6885
 7134TIP3    H242818   3.574   1.069   5.531  0.2934  1.8047  2.7485
 7135TIP3   OH242819   2.654   1.853  13.970  0.1199 -0.1325 -0.6982
 7135TIP3    H142820   2.560   1.865  13.952 -0.2406 -2.0691 -0.2501
 7135TIP3    H242821   2.661   1.853  14.065  0.3083 -1.7144 -0.6944
 7136TIP3   OH242822   6.775   5.985  15.379 -0.2427 -0.4019 -0.1942
 7136TIP3    H142823   6.683   5.997  15.354  0.0043 -1.2244 -1.5879
 7136TIP3    H242824   6.825   6.023  15.307  0.5519  1.1089  1.0907
 7137TIP3   OH242825   6.658   0.996   2.929 -0.1667 -0.3353  0.0552
 7137TIP3    H142826   6.677   1.072   2.983  2.2012 -0.7133 -0.1182
 7137TIP3    H242827   6.639   0.926   2.992 -1.5881  0.1926  0.2336
 7138TIP3   OH242828   5.249   4.543  12.450 -0.0663  0.1199  0.0181
 7138TIP3    H142829   5.189   4.556  12.377  1.3630  2.6805 -0.8274
 7138TIP3    H242830   5.268   4.449  12.449  1.9581  0.2998 -4.7345
 7139TIP3   OH242831   4.159   4.175  11.801  0.6270 -0.0560  0.0180
 7139TIP3    H142832   4.250   4.205  11.811  0.4281 -0.0086  2.1750
 7139TIP3    H242833   4.156   4.093  11.849 -0.2929 -0.5000 -0.7707
 7140TIP3   OH242834   3.063   0.152   4.622  0.0281 -0.0440  0.0694
 7140TIP3    H142835   3.037   0.066   4.656  2.2178 -0.0796  1.9383
 7140TIP3    H242836   2.988   0.208   4.640 -0.7620 -1.1859  0.4794
 7141TIP3   OH242837   5.190   4.739  11.724 -0.4556  0.5518 -0.1497
 7141TIP3    H142838   5.107   4.748  11.772 -1.0933  1.1276 -1.3280
 7141TIP3    H242839   5.181   4.655  11.678 -0.7214  0.9914 -0.9049
 7142TIP3   OH242840   6.552   5.582   1.117  0.1375  0.0598  0.1344
 7142TIP3    H142841   6.648   5.574   1.122  0.0935 -1.0965 -0.5493
 7142TIP3    H242842   6.529   5.542   1.033 -1.1273 -1.4489  1.1591
 7143TIP3   OH242843   3.904   3.919   4.397  0.4557  0.2714 -0.1212
 7143TIP3    H142844   3.983   3.963   4.365  1.1694  1.2043  2.6348
 7143TIP3    H242845   3.832   3.975   4.369  1.0040  0.8524 -0.3933
 7144TIP3   OH242846   2.094   2.860  16.254 -0.0920 -0.2746 -1.0121
 7144TIP3    H142847   2.125   2.791  16.195 -0.1021 -0.3277 -0.9558
 7144TIP3    H242848   2.004   2.836  16.274  0.3904 -1.0926  0.2487
 7145TIP3   OH242849   0.248   4.890  13.510  0.5650  0.0584 -0.0969
 7145TIP3    H142850   0.341   4.882  13.533  0.8375 -0.8333 -1.4435
 7145TIP3    H242851   0.202   4.871  13.592  1.5426 -0.4893  0.3458
 7146TIP3   OH242852   0.387   2.843  14.722  0.0867  0.0897  0.0728
 7146TIP3    H142853   0.461   2.820  14.779  2.1801  1.2057 -2.0214
 7146TIP3    H242854   0.396   2.784  14.647 -0.1761  1.3062 -0.9399
 7147TIP3   OH242855   0.015   6.547   0.498 -1.0375  0.3776 -0.0239
 7147TIP3    H142856  -0.057   6.496   0.464 -1.0743  0.2509  0.2408
 7147TIP3    H242857   0.003   6.546   0.593 -0.8170  0.5451  0.0084
 7148TIP3   OH242858   1.768   1.253  15.768  0.1656  0.4307  0.4067
 7148TIP3    H142859   1.758   1.348  15.770  1.7088  0.6029  1.9629
 7148TIP3    H242860   1.784   1.229  15.860 -0.3423 -1.3563  0.0597
 7149TIP3   OH242861   2.264   5.446   3.704 -0.0170 -0.1215  0.0362
 7149TIP3    H142862   2.353   5.425   3.732  0.2114  0.2672 -0.3899
 7149TIP3    H242863   2.259   5.415   3.614 -0.4355 -0.4808  0.1789
 7150TIP3   OH242864   5.869   0.074  13.738  0.3340  0.7849  0.7658
 7150TIP3    H142865   5.829   0.083  13.825 -1.1713  0.6686  0.1159
 7150TIP3    H242866   5.826   0.142  13.685  1.2548  0.8721  0.1106
 7151TIP3   OH242867   1.705   5.028  11.566  0.2761  0.1021  0.3068
 7151TIP3    H142868   1.620   5.010  11.606  1.3753 -3.1177  1.4975
 7151TIP3    H242869   1.758   5.062  11.638  0.1582  1.7926 -0.3605
 7152TIP3   OH242870   3.194   0.840  13.163 -0.0917  0.1128 -0.3635
 7152TIP3    H142871   3.243   0.915  13.132  0.8359 -0.3564 -0.0832
 7152TIP3    H242872   3.145   0.872  13.239  1.6883  0.0350  0.8625
 7153TIP3   OH242873   5.865   3.031  12.116  0.3089 -0.3400  0.4941
 7153TIP3    H142874   5.951   3.070  12.135  0.5462 -0.9222  0.6406
 7153TIP3    H242875   5.803   3.086  12.163  0.9598 -2.5810  4.3118
 7154TIP3   OH242876   2.280   1.376   2.522  0.1630 -0.1940 -0.7648
 7154TIP3    H142877   2.253   1.284   2.519 -5.3074  1.1201 -2.4332
 7154TIP3    H242878   2.307   1.396   2.432  2.4378 -0.2518 -0.1712
 7155TIP3   OH242879   3.343   0.497   0.948  0.1486 -0.1823 -0.3276
 7155TIP3    H142880   3.318   0.486   1.040 -1.6673 -1.3235 -0.9046
 7155TIP3    H242881   3.292   0.572   0.918 -0.5356 -0.8364 -0.8179
 7156TIP3   OH242882   6.576   3.445  10.768  0.4722 -0.0593 -0.1753
 7156TIP3    H142883   6.648   3.401  10.721  0.6487  0.5518 -0.4874
 7156TIP3    H242884   6.527   3.373  10.808  0.4146 -0.5899 -1.1579
 7157TIP3   OH242885   4.762   2.365   0.046 -0.3879  0.3011  0.0178
 7157TIP3    H142886   4.722   2.430   0.104 -1.1152  1.1950 -1.4203
 7157TIP3    H242887   4.690   2.336  -0.010  0.7703  1.5017 -2.2502
 7158TIP3   OH242888   4.998   0.764   3.743 -0.0177 -0.2166 -0.1801
 7158TIP3    H142889   4.980   0.706   3.668 -1.1598  0.0764 -0.1569
 7158TIP3    H242890   4.956   0.847   3.719 -1.9362 -0.6250  1.4854
 7159TIP3   OH242891   6.791   4.966   5.873 -0.2856  0.6611  0.1909
 7159TIP3    H142892   6.731   4.916   5.818 -0.5656  0.5537  0.5925
 7159TIP3    H242893   6.827   5.033   5.814 -0.3002  0.3138 -0.2154
 7160TIP3   OH242894   1.799   4.825  16.227  0.3111 -0.4271 -0.0627
 7160TIP3    H142895   1.839   4.912  16.216  0.7332 -0.5440  0.5124
 7160TIP3    H242896   1.705   4.843  16.236  0.4594  0.0294  0.6952
 7161TIP3   OH242897   6.596   1.064  16.881  0.0719  0.3899  1.2376
 7161TIP3    H142898   6.639   0.982  16.858 -1.0029  0.2376 -0.4344
 7161TIP3    H242899   6.668   1.123  16.904  1.0278 -0.4125  0.4295
 7162TIP3   OH242900   4.682   5.520   6.425 -0.2764  0.2338 -0.4995
 7162TIP3    H142901   4.623   5.594   6.440  0.4514  0.6261  0.5464
 7162TIP3    H242902   4.765   5.561   6.400  0.2654 -0.1946  0.5451
 7163TIP3   OH242903   4.006   4.348  14.920  0.0974  0.0332 -0.5964
 7163TIP3    H142904   4.048   4.402  14.853  1.4697  0.0863  0.2675
 7163TIP3    H242905   3.916   4.379  14.923  0.8800  2.3967 -0.0278
 7164TIP3   OH242906   5.885   3.990   2.150 -0.3798 -0.0888  0.1806
 7164TIP3    H142907   5.873   3.936   2.228 -1.0583  0.7212  0.6525
 7164TIP3    H242908   5.919   3.930   2.084  1.2745 -0.5695  1.3993
 7165TIP3   OH242909   3.741   3.457   3.234  0.4165  0.5297 -0.2505
 7165TIP3    H142910   3.735   3.508   3.153  0.1973 -0.3496 -0.7973
 7165TIP3    H242911   3.654   3.462   3.273  0.7737  1.7564  0.4453
 7166TIP3   OH242912   5.299   6.236  13.968 -0.3520  0.0937  0.7724
 7166TIP3    H142913   5.369   6.270  14.024 -0.3007  2.1372 -0.4218
 7166TIP3    H242914   5.218   6.259  14.014 -0.2825  0.6742  0.6195
 7167TIP3   OH242915   1.669   3.019  12.559  0.0167 -0.8481 -0.2243
 7167TIP3    H142916   1.738   3.043  12.496  0.1530 -0.9020 -0.0972
 7167TIP3    H242917   1.697   3.061  12.641 -1.0217  0.6402 -0.6022
 7168TIP3   OH242918   1.805   3.268   1.670  0.8934  0.0688  0.1636
 7168TIP3    H142919   1.735   3.212   1.704 -0.0260  1.4992  0.6995
 7168TIP3    H242920   1.822   3.331   1.740  1.0778  1.2080 -0.8708
 7169TIP3   OH242921   2.256   2.597   1.089  0.0095 -0.3499  0.1405
 7169TIP3    H142922   2.308   2.536   1.036  3.2091  1.1197  1.3266
 7169TIP3    H242923   2.225   2.662   1.026  1.2305 -0.2542 -0.4083
 7170TIP3   OH242924   3.658   0.025   5.250 -0.0771 -0.4059 -0.3873
 7170TIP3    H142925   3.734   0.040   5.306 -1.0329 -0.4991  0.9976
 7170TIP3    H242926   3.636  -0.067   5.264 -0.9076 -0.1794 -0.1445
 7171TIP3   OH242927   0.996   1.069   3.953  0.8182  0.1832 -0.0425
 7171TIP3    H142928   0.964   1.079   3.863  0.3538  0.5372  0.1628
 7171TIP3    H242929   0.994   0.974   3.968  0.3710  0.1658 -0.2101
 7172TIP3   OH242930   1.912   4.210  16.463 -0.1707  0.1036  0.0622
 7172TIP3    H142931   1.910   4.294  16.417  1.4577  0.9835  1.4896
 7172TIP3    H242932   2.005   4.189  16.472 -0.4693 -3.1517 -2.3868
 7173TIP3   OH242933   1.336   1.187  16.523  0.3677 -0.2175 -0.2024
 7173TIP3    H142934   1.410   1.144  16.566  0.9193  0.4088 -0.5086
 7173TIP3    H242935   1.372   1.220  16.441  0.2350  1.7602  0.5000
 7174TIP3   OH242936   3.175   6.196  16.307 -0.2947 -0.1012  0.0918
 7174TIP3    H142937   3.167   6.282  16.266  1.6320  0.3251  0.4848
 7174TIP3    H242938   3.164   6.134  16.235 -1.1348  0.4777 -0.2924
 7175TIP3   OH242939   1.608   0.835   1.141  0.5415  0.2836 -0.1832
 7175TIP3    H142940   1.625   0.761   1.199  0.1195  0.8508  0.6884
 7175TIP3    H242941   1.540   0.804   1.081  0.8225 -0.2371 -0.2386
 7176TIP3   OH242942   4.433   1.879   3.177 -0.2307  0.1292  0.1455
 7176TIP3    H142943   4.390   1.833   3.105  1.4311 -1.3803  0.0420
 7176TIP3    H242944   4.461   1.809   3.236 -0.9603  1.2812  1.9703
 7177TIP3   OH242945   1.416   4.905   0.140 -0.4507  0.6047  0.1433
 7177TIP3    H142946   1.427   4.877   0.230 -0.7699  0.3882  0.1196
 7177TIP3    H242947   1.324   4.935   0.135  0.4499  3.9435  0.7852
 7178TIP3   OH242948   5.829   4.904   3.324  0.3299 -0.2098 -0.5619
 7178TIP3    H142949   5.763   4.903   3.394 -0.4962 -3.5188 -1.1800
 7178TIP3    H242950   5.909   4.873   3.366  1.3047  2.6438 -0.0898
 7179TIP3   OH242951   5.543   3.169   3.657 -0.1390  0.7336  0.5177
 7179TIP3    H142952   5.574   3.258   3.672  0.3894  0.7364 -0.4893
 7179TIP3    H242953   5.450   3.179   3.636 -0.4197  0.9000  1.7797
 7180TIP3   OH242954   1.272   2.181   0.614 -0.0018 -0.4073  0.2007
 7180TIP3    H142955   1.255   2.086   0.618 -0.3803 -0.4092 -1.0103
 7180TIP3    H242956   1.235   2.215   0.695 -0.9225 -1.1586  0.1240
 7181TIP3   OH242957   2.734   1.110  11.373 -0.5581  0.5378  0.5610
 7181TIP3    H142958   2.780   1.075  11.297 -0.8236  2.6101 -0.6271
 7181TIP3    H242959   2.686   1.035  11.409  1.1101 -0.9235 -0.1074
 7182TIP3   OH242960   5.993   3.606  16.538 -0.2208 -0.3766 -0.1690
 7182TIP3    H142961   6.028   3.692  16.562  1.9318 -0.4604 -2.5172
 7182TIP3    H242962   5.916   3.595  16.593  0.6254  2.1262  1.7000
 7183TIP3   OH242963   0.227   6.090   3.371  1.0609  0.0924 -0.1291
 7183TIP3    H142964   0.211   6.014   3.427 -2.3687 -0.5281 -1.6716
 7183TIP3    H242965   0.251   6.052   3.286 -0.8697  0.5689 -0.9663
 7184TIP3   OH242966   4.070   2.847   4.372  0.4494 -0.5813 -0.3103
 7184TIP3    H142967   4.152   2.814   4.410  1.0991 -1.8125 -2.6171
 7184TIP3    H242968   4.095   2.930   4.330  0.0638 -0.0065  0.5569
 7185TIP3   OH242969   5.207   2.703  12.667 -0.1388  0.5596  0.1654
 7185TIP3    H142970   5.294   2.719  12.630 -1.0555 -1.5431 -3.3277
 7185TIP3    H242971   5.224   2.660  12.751  2.2018  0.2411 -0.4075
 7186TIP3   OH242972   5.527   1.790   0.126  0.1650  0.3409 -0.1635
 7186TIP3    H142973   5.522   1.852   0.198 -0.7098 -1.4236  1.3624
 7186TIP3    H242974   5.443   1.745   0.127  0.5968 -0.5509 -1.5266
 7187TIP3   OH242975   0.280   2.042  16.828  0.1413 -0.2423  0.2967
 7187TIP3    H142976   0.218   2.000  16.768 -1.3221  0.9806  0.9296
 7187TIP3    H242977   0.319   2.112  16.776  0.0565 -0.1996  0.2904
 7188TIP3   OH242978   3.212   3.489  14.020  0.2727  0.1807  0.2651
 7188TIP3    H142979   3.252   3.521  13.940  2.0294  0.6862  1.2821
 7188TIP3    H242980   3.155   3.418  13.992  1.1990  0.0437 -1.3765
 7189TIP3   OH242981   6.655   1.313   5.428  0.2786 -0.4240  0.3143
 7189TIP3    H142982   6.605   1.235   5.453 -1.2448  0.6530  0.8023
 7189TIP3    H242983   6.647   1.372   5.503  1.3978  0.2185 -0.0432
 7190TIP3   OH242984   4.627   1.604   0.149  0.1832 -0.0274  0.2002
 7190TIP3    H142985   4.659   1.686   0.186  2.6876 -0.5518 -0.6502
 7190TIP3    H242986   4.702   1.545   0.151 -1.0410 -1.7248 -0.9078
 7191TIP3   OH242987   6.277   6.725  12.032  0.3713 -0.4986 -0.4986
 7191TIP3    H142988   6.323   6.773  11.963 -1.3381 -1.4097 -2.4163
 7191TIP3    H242989   6.235   6.793  12.085  0.5033  0.2240 -1.2940
 7192TIP3   OH242990   1.036   2.357  14.406  0.3924 -0.0772  0.2880
 7192TIP3    H142991   0.952   2.403  14.397  0.6232  1.4029  4.0126
 7192TIP3    H242992   1.101   2.427  14.409  1.3053 -0.9323  1.1844
 7193TIP3   OH242993   2.850   3.947  13.564 -0.3367  0.0842 -0.1027
 7193TIP3    H142994   2.789   3.890  13.611  1.4318 -0.8264  1.2145
 7193TIP3    H242995   2.924   3.891  13.544 -0.2184  0.9481 -2.4016
 7194TIP3   OH242996   6.119   2.849   1.824 -0.3724  0.3116 -0.0065
 7194TIP3    H142997   6.134   2.824   1.915 -0.3984  0.1763 -0.0392
 7194TIP3    H242998   6.043   2.797   1.797  0.2007 -0.3407 -0.3842
 7195TIP3   OH242999   6.085   2.579  11.853 -0.1400 -0.0031 -0.3971
 7195TIP3    H143000   6.095   2.626  11.936 -0.4695  1.4205 -1.1190
 7195TIP3    H243001   5.994   2.553  11.850 -0.5596  1.4026 -0.9986
 7196TIP3   OH243002   3.052   1.753   0.409 -0.2186 -0.2324  0.4425
 7196TIP3    H143003   3.098   1.684   0.455  2.3065  0.5635 -0.7217
 7196TIP3    H243004   3.023   1.813   0.478 -0.0170 -1.0275  1.2367
 7197TIP3   OH243005   3.255   0.478   1.947 -0.0043 -0.3856 -0.3730
 7197TIP3    H143006   3.268   0.571   1.925 -3.7211  0.9681  2.2341
 7197TIP3    H243007   3.288   0.431   1.870  0.1582  3.1746 -2.7230
 7198TIP3   OH243008   1.827   0.586   0.422 -0.1434 -0.1231  0.1895
 7198TIP3    H143009   1.791   0.537   0.348  0.0920  0.4776 -0.3305
 7198TIP3    H243010   1.922   0.586   0.407 -0.2395  1.9112 -0.7528
 7199TIP3   OH243011   3.901   4.594  15.167 -0.5280  0.3241  0.1525
 7199TIP3    H143012   3.921   4.640  15.249  0.6512 -0.9213  0.6138
 7199TIP3    H243013   3.920   4.502  15.186 -0.5829 -0.0432 -1.4101
 7200TIP3   OH243014   5.138   5.171  15.833 -0.7012 -0.5258  0.4104
 7200TIP3    H143015   5.094   5.108  15.775  1.3599 -1.7152  0.0225
 7200TIP3    H243016   5.176   5.235  15.774  0.7629 -1.3194  0.4392
 7201TIP3   OH243017   2.331   1.853   0.221  0.0369 -0.4733 -0.0294
 7201TIP3    H143018   2.381   1.930   0.249 -0.1899  0.1355 -1.1941
 7201TIP3    H243019   2.336   1.792   0.294  0.2708  0.6359  0.9048
 7202TIP3   OH243020   1.323   3.753   3.182  0.0024  0.6661  0.0725
 7202TIP3    H143021   1.357   3.741   3.270 -2.3910 -1.0377  0.8577
 7202TIP3    H243022   1.366   3.685   3.130 -0.8791 -0.3940  0.6840
 7203TIP3   OH243023   4.505   2.534  15.350 -0.1909  0.6669 -0.0476
 7203TIP3    H143024   4.512   2.627  15.369  4.0298  0.3880  0.7105
 7203TIP3    H243025   4.578   2.515  15.291 -1.6054 -2.0168 -1.1572
 7204TIP3   OH243026   3.959   0.673  15.022 -0.3573  0.0362 -0.5227
 7204TIP3    H143027   3.985   0.761  14.994  0.6044 -0.5430 -1.5517
 7204TIP3    H243028   3.975   0.671  15.116  3.3833 -0.2051 -1.0058
 7205TIP3   OH243029   2.238   3.553  13.503  0.0898 -0.0503 -0.4490
 7205TIP3    H143030   2.205   3.621  13.563  1.8044  2.3572 -2.0247
 7205TIP3    H243031   2.209   3.581  13.417  3.9552  0.9535 -1.6331
 7206TIP3   OH243032   0.970   3.551   2.327  0.9064 -0.4005 -0.2369
 7206TIP3    H143033   0.986   3.597   2.409 -0.2281 -1.3785  0.5436
 7206TIP3    H243034   0.979   3.619   2.260  0.3966  0.7211  0.8042
 7207TIP3   OH243035   6.272   3.287   1.052 -0.2017 -0.1701  0.7348
 7207TIP3    H143036   6.278   3.243   1.137 -2.2465 -0.3317  0.8566
 7207TIP3    H243037   6.187   3.330   1.054 -0.4665 -0.4800 -1.3817
 7208TIP3   OH243038   5.138   3.517   0.515 -0.0764 -0.4766  0.3512
 7208TIP3    H143039   5.219   3.484   0.476  2.2888  1.0814  3.5264
 7208TIP3    H243040   5.112   3.450   0.578 -0.8292 -0.5774 -0.0490
 7209TIP3   OH243041   4.628   5.702   0.804  0.2041  0.2822  0.5162
 7209TIP3    H143042   4.556   5.757   0.775 -1.6536 -1.5723  1.4240
 7209TIP3    H243043   4.702   5.763   0.814 -1.5919  2.5050  0.9561
 7210TIP3   OH243044   0.174   3.403   3.516 -0.3056 -0.0378  0.0936
 7210TIP3    H143045   0.101   3.450   3.556 -1.3830 -0.1848 -1.5912
 7210TIP3    H243046   0.205   3.461   3.447  0.8337 -0.2187  0.4311
 7211TIP3   OH243047   1.568   1.012   3.392 -0.6549 -0.1088  0.1195
 7211TIP3    H143048   1.482   1.049   3.371 -1.0551 -0.8629  0.3912
 7211TIP3    H243049   1.551   0.919   3.405  0.3158 -0.3754 -0.4377
 7212TIP3   OH243050   1.958   6.803   5.087  0.1568  0.1335  0.0522
 7212TIP3    H143051   1.898   6.836   5.020  0.2327  0.5364  0.1814
 7212TIP3    H243052   2.017   6.744   5.039  1.5494  2.0125 -0.6725
 7213TIP3   OH243053   5.112   2.875   3.931  0.1941  0.4244  0.3533
 7213TIP3    H143054   5.205   2.879   3.954 -0.0721 -2.1733  2.2812
 7213TIP3    H243055   5.068   2.847   4.011 -1.9577 -0.5903 -1.0809
 7214TIP3   OH243056   4.698   4.154   5.681  0.3914 -0.2140  0.6160
 7214TIP3    H143057   4.637   4.164   5.608  1.4716  1.9654 -0.0778
 7214TIP3    H243058   4.771   4.104   5.645  0.1766 -0.5766  0.6854
 7215TIP3   OH243059   4.611   0.297   3.477  0.0999  0.4932  0.4918
 7215TIP3    H143060   4.570   0.374   3.516 -3.2619 -0.0810 -1.5267
 7215TIP3    H243061   4.626   0.238   3.551 -0.6089  1.6801  1.6235
 7216TIP3   OH243062   6.266   0.031   3.805 -0.0395 -0.4607  0.2503
 7216TIP3    H143063   6.234   0.046   3.716 -0.3018 -0.1433  0.3960
 7216TIP3    H243064   6.232  -0.056   3.828 -0.0986 -0.4780  0.0966
 7217TIP3   OH243065   0.437   6.643   5.899  0.1251 -0.0056 -0.6759
 7217TIP3    H143066   0.386   6.585   5.844  2.0354 -0.2904 -2.2779
 7217TIP3    H243067   0.470   6.711   5.839  3.3125 -1.0291 -0.2834
 7218TIP3   OH243068   0.734   4.358   2.392  0.3154 -0.6690 -0.3788
 7218TIP3    H143069   0.745   4.431   2.453 -0.5467 -0.2532 -0.7002
 7218TIP3    H243070   0.659   4.383   2.338  1.9582 -0.3059 -2.6646
 7219TIP3   OH243071   0.439   1.965  11.837 -0.1889  0.1373  0.2140
 7219TIP3    H143072   0.363   2.022  11.848  0.4139  0.8764  0.5534
 7219TIP3    H243073   0.423   1.893  11.899 -0.6244  0.2757  0.2683
 7220TIP3   OH243074   5.569   3.817   1.648 -0.1955  0.0610 -1.2836
 7220TIP3    H143075   5.645   3.791   1.700  0.3272 -0.5586 -2.3452
 7220TIP3    H243076   5.532   3.735   1.617 -2.0383  0.2562  0.1993
 7221TIP3   OH243077   6.435   2.154  17.083  0.5360 -0.5790 -0.2272
 7221TIP3    H143078   6.519   2.190  17.112 -0.1849  0.9017  0.1542
 7221TIP3    H243079   6.406   2.215  17.014 -0.9471 -0.1275  0.7535
 7222TIP3   OH243080   0.924   4.876   0.810  0.4781  0.2450 -0.2670
 7222TIP3    H143081   0.841   4.829   0.820  0.5360 -0.2158 -1.7367
 7222TIP3    H243082   0.914   4.955   0.864 -0.7515  0.0001 -0.1146
 7223TIP3   OH243083   2.619   2.116  14.918 -0.0085  0.5821 -0.5532
 7223TIP3    H143084   2.640   2.117  14.824  2.1960  0.8930 -0.1100
 7223TIP3    H243085   2.638   2.205  14.948 -1.3554  0.6736  0.0882
 7224TIP3   OH243086   2.144   3.858  16.351 -0.3480 -0.1203 -0.3392
 7224TIP3    H143087   2.099   3.782  16.314 -0.7744 -1.1307  2.0562
 7224TIP3    H243088   2.220   3.870  16.295 -2.1587  0.0178 -2.9541
 7225TIP3   OH243089   5.172   2.203  13.229 -0.1280  0.6511 -0.5706
 7225TIP3    H143090   5.094   2.229  13.279 -0.7325 -0.5516 -0.8609
 7225TIP3    H243091   5.205   2.286  13.194  0.7957  1.6821  2.4008
 7226TIP3   OH243092   6.324   0.450   1.864  0.3647 -0.1836  0.3790
 7226TIP3    H143093   6.414   0.443   1.897  0.8668  0.6417 -0.7515
 7226TIP3    H243094   6.299   0.540   1.884 -0.6539 -0.7194  1.6923
 7227TIP3   OH243095   5.754   0.885   4.410 -0.3297 -0.5572  0.4770
 7227TIP3    H143096   5.799   0.931   4.481  1.2945  1.4284 -1.6792
 7227TIP3    H243097   5.702   0.952   4.367 -1.9032 -1.8872  0.2177
 7228TIP3   OH243098   6.667   5.264   3.555 -0.2834  0.1362 -0.4337
 7228TIP3    H143099   6.626   5.299   3.476 -0.2713 -1.2858 -1.1020
 7228TIP3    H243100   6.758   5.247   3.530  0.0367  0.7769  0.2464
 7229TIP3   OH243101   5.995   0.113   4.812  0.0815  0.7445 -0.3853
 7229TIP3    H143102   5.900   0.108   4.812  0.0284  1.4702  0.6687
 7229TIP3    H243103   6.015   0.198   4.771  0.4070 -0.4894 -3.0298
 7230TIP3   OH243104   5.721   6.445   0.928 -0.0586 -0.1390 -0.0216
 7230TIP3    H143105   5.692   6.501   1.000  0.0474 -0.6742  0.4467
 7230TIP3    H243106   5.710   6.499   0.850 -3.5763 -0.6839 -0.0754
 7231TIP3   OH243107   3.491   2.104  11.955  0.3671  0.0853  0.4094
 7231TIP3    H143108   3.583   2.077  11.956  0.2224 -0.5288 -1.0466
 7231TIP3    H243109   3.451   2.057  12.028  0.8498 -0.9514  0.0145
 7232TIP3   OH243110   2.093   0.882  13.970 -0.0833  0.0301  0.1457
 7232TIP3    H143111   2.020   0.944  13.973 -0.5480 -0.2535 -2.6339
 7232TIP3    H243112   2.171   0.937  13.966 -0.3813  0.4072 -0.5897
 7233TIP3   OH243113   5.420   4.287  16.759 -0.1230 -0.4463 -0.7189
 7233TIP3    H143114   5.329   4.279  16.788 -0.1685 -1.4900 -1.1211
 7233TIP3    H243115   5.447   4.374  16.790 -0.1801 -1.4237  2.4608
 7234TIP3   OH243116   2.880   4.095  11.240  0.2960  0.4181  0.3501
 7234TIP3    H143117   2.804   4.043  11.267  0.4816 -0.9685 -1.5684
 7234TIP3    H243118   2.842   4.166  11.187  0.1294  1.6877  2.0921
 7235TIP3   OH243119   0.803   1.973  10.550 -0.0295  0.4677 -0.1354
 7235TIP3    H143120   0.816   1.889  10.507 -0.1723  0.2474  0.2526
 7235TIP3    H243121   0.875   2.028  10.518 -1.1990  0.9228 -2.1710
 7236TIP3   OH243122   6.552   5.998  12.280  0.5804 -0.3754  0.0763
 7236TIP3    H143123   6.512   6.085  12.275  0.8052 -0.1002  2.1035
 7236TIP3    H243124   6.643   6.013  12.256 -0.2844 -0.9633 -4.3255
 7237TIP3   OH243125   3.619   5.217   0.537  0.0306 -0.0189 -0.2971
 7237TIP3    H143126   3.536   5.224   0.490  0.5793  0.9260 -1.1865
 7237TIP3    H243127   3.633   5.304   0.575  1.8712  0.7258 -2.4578
 7238TIP3   OH243128   5.248   6.180   5.269 -0.1475 -0.0879  0.3687
 7238TIP3    H143129   5.236   6.275   5.277  2.7576  0.3278  1.0343
 7238TIP3    H243130   5.216   6.145   5.352 -1.0076  0.3311  0.2223
 7239TIP3   OH243131   1.740   0.869   3.735  0.3093 -0.1117 -0.6314
 7239TIP3    H143132   1.656   0.914   3.737  1.0087  1.2597 -0.0903
 7239TIP3    H243133   1.788   0.910   3.663 -0.3915 -2.7435 -2.7480
 7240TIP3   OH243134   5.528   2.902   2.743  0.2869  0.0072 -0.0874
 7240TIP3    H143135   5.522   2.884   2.649  0.7016 -0.3358 -0.0511
 7240TIP3    H243136   5.459   2.966   2.760  1.5966  1.7600 -1.0245
 7241TIP3   OH243137   5.925   3.014  15.485  0.5841 -0.1952 -0.2873
 7241TIP3    H143138   5.983   3.022  15.561 -1.0944 -0.3494  1.0815
 7241TIP3    H243139   5.981   3.034  15.410  2.2072  0.3976  1.0098
 7242TIP3   OH243140   0.170   3.261   5.503 -0.4173  0.0931 -0.3618
 7242TIP3    H143141   0.110   3.246   5.576 -1.8122  2.8405 -0.8132
 7242TIP3    H243142   0.122   3.321   5.445  2.5151  1.9775 -1.0412
 7243TIP3   OH243143   6.608   2.872  13.012 -0.2607 -0.1665  0.3126
 7243TIP3    H143144   6.665   2.905  12.943 -0.1924  0.0060  0.4508
 7243TIP3    H243145   6.665   2.862  13.088  0.0355 -1.9648 -0.1079
 7244TIP3   OH243146   2.657   2.820   3.187  0.1378 -0.5009 -0.0154
 7244TIP3    H143147   2.597   2.799   3.259  0.2375 -0.4835  0.0738
 7244TIP3    H243148   2.663   2.915   3.186  0.4137 -0.5135  0.1854
 7245TIP3   OH243149   5.654   2.551   5.555  0.1517 -0.3571  0.2396
 7245TIP3    H143150   5.657   2.463   5.592  0.9310 -0.5453 -0.2428
 7245TIP3    H243151   5.656   2.538   5.461 -0.0172  0.1682  0.1597
 7246TIP3   OH243152   3.848   4.340   5.211  0.6458  0.9051  0.5566
 7246TIP3    H143153   3.762   4.305   5.187  0.0308  2.2416  0.7386
 7246TIP3    H243154   3.877   4.284   5.283  0.2865 -0.0338  0.0003
 7247TIP3   OH243155   5.443   5.598  11.209 -0.5037 -0.1513  0.0118
 7247TIP3    H143156   5.356   5.558  11.210 -1.0917  1.0304  1.7776
 7247TIP3    H243157   5.439   5.661  11.137 -0.6437 -1.0135 -0.7482
 7248TIP3   OH243158   4.245   2.566  11.230  0.0511  0.2067  0.5469
 7248TIP3    H143159   4.233   2.476  11.261  4.9209 -0.7852  0.2536
 7248TIP3    H243160   4.222   2.563  11.137  0.6829 -0.8712  0.4183
 7249TIP3   OH243161   3.858   4.042   1.485 -0.4847  0.1559 -0.1702
 7249TIP3    H143162   3.770   4.066   1.456 -0.7814 -1.5840 -0.8306
 7249TIP3    H243163   3.915   4.110   1.450 -1.5266  1.1444  0.0170
 7250TIP3   OH243164   6.454   5.692   1.810 -0.7655  0.3765 -0.0401
 7250TIP3    H143165   6.431   5.737   1.891 -1.3559 -0.2783  0.1711
 7250TIP3    H243166   6.396   5.728   1.744 -2.2447 -1.0205  0.4180
 7251TIP3   OH243167   3.282   5.916   0.462 -0.3606 -0.1839  0.1158
 7251TIP3    H143168   3.334   5.853   0.511  0.0400  0.7241  0.8950
 7251TIP3    H243169   3.237   5.968   0.529  1.5313  2.2203 -0.3271
 7252TIP3   OH243170   4.855   4.564   0.606 -0.5006 -0.0539  0.2818
 7252TIP3    H143171   4.865   4.540   0.698 -1.3937 -1.0829  0.1328
 7252TIP3    H243172   4.760   4.572   0.593 -0.4057 -0.2112 -0.6125
 7253TIP3   OH243173   3.350   1.884   2.097  0.2658  0.0265 -0.5101
 7253TIP3    H143174   3.301   1.957   2.134  0.5221  0.9870 -2.0108
 7253TIP3    H243175   3.351   1.818   2.167 -1.6292  0.6768  0.1743
 7254TIP3   OH243176   3.970   6.080   5.354 -0.3946  0.3855  0.3286
 7254TIP3    H143177   3.993   6.064   5.263 -0.1175 -0.4597  0.5339
 7254TIP3    H243178   4.053   6.102   5.396 -0.3858 -0.0256  0.5338
 7255TIP3   OH243179   4.698   3.312   0.442 -0.5382 -0.3314 -0.1129
 7255TIP3    H143180   4.693   3.402   0.475 -1.7123  0.0023 -1.1229
 7255TIP3    H243181   4.660   3.317   0.354 -1.1332 -1.9257  0.0280
 7256TIP3   OH243182   3.518   5.209  13.067  0.0621  0.0471 -0.0621
 7256TIP3    H143183   3.555   5.126  13.096  1.9063  0.9412  0.3037
 7256TIP3    H243184   3.542   5.216  12.975  0.8197  0.6080  0.1637
 7257TIP3   OH243185   1.832   1.595  13.888 -0.3670  0.7589 -0.2477
 7257TIP3    H143186   1.878   1.674  13.919 -1.6068  0.6075  2.2200
 7257TIP3    H243187   1.739   1.615  13.902 -0.6694 -1.6841  2.1196
 7258TIP3   OH243188   3.600   3.459  12.255 -0.4335 -0.2224 -0.0958
 7258TIP3    H143189   3.577   3.536  12.306 -1.7560  0.5064 -1.7006
 7258TIP3    H243190   3.516   3.418  12.234  0.0825 -0.6820 -1.3680
 7259TIP3   OH243191   1.429   2.085   2.806  0.6958  0.3399 -0.1197
 7259TIP3    H143192   1.365   2.017   2.782  1.4846 -0.1033 -1.0149
 7259TIP3    H243193   1.389   2.129   2.881 -0.7122  0.1387 -0.7129
 7260TIP3   OH243194   1.870   2.857   6.732  0.5572  0.0955  0.0504
 7260TIP3    H143195   1.942   2.811   6.689  0.8885  1.2626 -0.7132
 7260TIP3    H243196   1.808   2.875   6.662 -1.3025 -2.2917  0.9700
 7261TIP3   OH243197   5.922   4.943  16.280 -0.0651  0.4644 -0.5910
 7261TIP3    H143198   5.987   4.920  16.346  0.6323 -0.9891 -1.7351
 7261TIP3    H243199   5.841   4.903  16.311 -0.1853  1.3459  0.2802
 7262TIP3   OH243200   3.596   3.483  13.102 -0.4029 -0.1195 -0.3341
 7262TIP3    H143201   3.529   3.425  13.065 -1.4888  0.0301  1.2561
 7262TIP3    H243202   3.546   3.548  13.151  0.8339  1.5702 -1.2343
 7263TIP3   OH243203   3.340   5.342  12.345 -0.0330  0.4459  0.4648
 7263TIP3    H143204   3.330   5.297  12.261 -0.0215 -0.4792  0.9387
 7263TIP3    H243205   3.270   5.407  12.346 -1.6721 -1.2558  0.8130
 7264TIP3   OH243206   5.865   3.659   4.219 -0.3593  0.4589  0.0190
 7264TIP3    H143207   5.887   3.627   4.132  1.0146  1.1324  0.1006
 7264TIP3    H243208   5.826   3.583   4.263 -0.4272 -0.0830 -0.9439
 7265TIP3   OH243209   4.023   1.712  14.647 -0.1292 -0.1174 -0.0744
 7265TIP3    H143210   3.986   1.639  14.598  1.7158 -0.6635 -0.7353
 7265TIP3    H243211   3.964   1.785  14.629 -2.1593 -1.4495  0.8018
 7266TIP3   OH243212   4.814   4.725   2.257 -0.2002 -0.4610 -0.0539
 7266TIP3    H143213   4.837   4.711   2.165  0.5814 -0.5113  0.1381
 7266TIP3    H243214   4.858   4.807   2.280  0.3244 -0.8886  0.5048
 7267TIP3   OH243215   1.780   4.680  13.482 -0.0015  0.2581  0.0423
 7267TIP3    H143216   1.836   4.757  13.492  0.4844  0.2802 -2.3120
 7267TIP3    H243217   1.715   4.707  13.417 -1.0291 -0.7164  0.6350
 7268TIP3   OH243218   5.272   0.606  16.563 -0.0425  0.2559 -0.3629
 7268TIP3    H143219   5.205   0.555  16.518  0.2621 -1.6181  1.2066
 7268TIP3    H243220   5.344   0.545  16.576  0.9217  1.4901  0.3542
 7269TIP3   OH243221   3.481   2.328  16.502  0.0497  0.4558 -0.2913
 7269TIP3    H143222   3.509   2.245  16.464 -0.6395 -1.0710  2.2769
 7269TIP3    H243223   3.537   2.394  16.461  2.9730 -1.6668 -0.0114
 7270TIP3   OH243224   5.587   4.987  15.632  0.0011  0.6099  0.1731
 7270TIP3    H143225   5.614   4.902  15.667 -0.4195  0.1317 -0.6396
 7270TIP3    H243226   5.551   4.968  15.546 -1.4078  1.4309  0.5449
 7271TIP3   OH243227   3.545   6.410  16.152  0.2989 -0.0659  0.3042
 7271TIP3    H143228   3.464   6.456  16.173  0.5837  0.4240  0.3587
 7271TIP3    H243229   3.572   6.446  16.068  0.8310  0.2954  0.6221
 7272TIP3   OH243230   5.204   2.586  12.934  0.1540 -0.4944  0.4349
 7272TIP3    H143231   5.189   2.540  13.016  1.6879  0.0856  1.0596
 7272TIP3    H243232   5.299   2.590  12.924  0.0506 -2.3325 -2.3955
 7273TIP3   OH243233   3.979   0.113  15.350  0.1231  0.7192 -0.1594
 7273TIP3    H143234   4.025   0.173  15.407  0.1004 -0.6501  1.3661
 7273TIP3    H243235   3.886   0.123  15.373  0.0620  0.4954 -0.2984
 7274TIP3   OH243236   5.569   2.419   2.626 -0.6747  0.2059  0.4946
 7274TIP3    H143237   5.656   2.453   2.605 -0.5791  1.2671  2.3759
 7274TIP3    H243238   5.575   2.392   2.718 -1.8975 -1.2648  0.1935
 7275TIP3   OH243239   2.274   6.751   5.448  0.0949  0.3251 -0.4439
 7275TIP3    H143240   2.361   6.725   5.415 -0.7646 -2.3054 -0.8597
 7275TIP3    H243241   2.213   6.701   5.394 -1.7205  2.1898 -0.2082
 7276TIP3   OH243242   3.398   5.097  15.044 -0.2021  0.0746  0.0687
 7276TIP3    H143243   3.423   5.155  14.973  0.5519 -2.1445 -1.6004
 7276TIP3    H243244   3.305   5.077  15.027 -0.0458 -0.3848 -0.2808
 7277TIP3   OH243245   6.128   3.306   6.029 -0.0654  0.4568  0.3709
 7277TIP3    H143246   6.141   3.302   5.934 -1.4128  0.5479  0.1604
 7277TIP3    H243247   6.203   3.356   6.062 -0.0675  1.2318 -0.7539
 7278TIP3   OH243248   4.831   1.415   6.175 -1.0290  0.0233 -0.6433
 7278TIP3    H143249   4.793   1.329   6.160 -0.4437 -0.7003  1.6156
 7278TIP3    H243250   4.756   1.473   6.187 -1.4253 -0.4359 -0.8801
 7279TIP3   OH243251   4.852   3.490   5.936  0.1669 -0.1326 -0.0814
 7279TIP3    H143252   4.946   3.495   5.957 -0.0840  0.8405  0.9302
 7279TIP3    H243253   4.841   3.404   5.896  1.7330  0.2923 -1.5253
 7280TIP3   OH243254   3.301   3.389   3.130 -0.1031  0.1677 -0.0479
 7280TIP3    H143255   3.339   3.355   3.049  0.0530 -1.1212  0.5450
 7280TIP3    H243256   3.377   3.415   3.182 -0.2270  1.7168 -0.5892
 7281TIP3   OH243257   3.246   1.390  17.108 -0.6488 -0.1801 -0.2872
 7281TIP3    H143258   3.318   1.446  17.138 -0.2159 -1.1423  0.5518
 7281TIP3    H243259   3.167   1.435  17.137 -0.3691  0.5906 -0.6935
 7282TIP3   OH243260   0.609   5.431  13.513 -0.3710 -0.1212  0.3317
 7282TIP3    H143261   0.674   5.445  13.445  0.4452  1.3760  1.3832
 7282TIP3    H243262   0.639   5.353  13.559 -0.0605 -0.2090 -0.0174
 7283TIP3   OH243263   0.828   2.485  13.226  0.1091 -0.0552 -0.2501
 7283TIP3    H143264   0.905   2.523  13.185  1.4493 -1.9730  0.3290
 7283TIP3    H243265   0.754   2.522  13.178  1.2581  3.0302  0.1677
 7284TIP3   OH243266   4.251   1.935   4.665  0.0511  0.0864  0.0696
 7284TIP3    H143267   4.173   1.984   4.690 -1.5629 -2.3692  0.1508
 7284TIP3    H243268   4.291   1.909   4.748  1.6348  2.1874  0.0536
 7285TIP3   OH243269   3.915   3.011  15.941 -0.0686 -0.2822  0.0813
 7285TIP3    H143270   3.911   3.072  15.868  0.8912 -0.9094 -0.5055
 7285TIP3    H243271   3.844   2.948  15.924  0.5402 -0.7839 -0.6473
 7286TIP3   OH243272   6.740   0.049  11.257  0.1979  0.4750  1.0357
 7286TIP3    H143273   6.667  -0.005  11.225  1.2380 -0.2596 -0.2108
 7286TIP3    H243274   6.815   0.019  11.206  0.6370  3.9235 -0.6532
 7287TIP3   OH243275   2.113   3.895  12.542  0.4705  0.4417 -0.4378
 7287TIP3    H143276   2.022   3.917  12.564 -0.4187 -0.1407 -3.1084
 7287TIP3    H243277   2.157   3.979  12.532 -0.2128  0.7819 -0.6194
 7288TIP3   OH243278   0.501   1.947   2.002 -0.1858 -0.0200  0.5752
 7288TIP3    H143279   0.490   1.982   1.913  0.8673  0.4617  0.6247
 7288TIP3    H243280   0.595   1.939   2.013 -0.3182 -0.2490  1.5916
 7289TIP3   OH243281   4.861   1.206   4.321 -0.2676 -0.5940 -0.7037
 7289TIP3    H143282   4.934   1.265   4.341 -1.9763  0.3843  3.7044
 7289TIP3    H243283   4.899   1.119   4.328  1.1719 -0.1595 -2.2117
 7290TIP3   OH243284   3.650   1.512  15.924  0.1682  0.0174 -0.6854
 7290TIP3    H143285   3.678   1.423  15.905 -0.8569 -0.5661  0.3993
 7290TIP3    H243286   3.607   1.542  15.844 -3.5920 -2.1719  0.3198
 7291TIP3   OH243287   0.137   4.099   2.386 -0.5160  0.7828 -0.1325
 7291TIP3    H143288   0.124   4.088   2.292 -2.2551  1.4143 -0.0087
 7291TIP3    H243289   0.208   4.038   2.408 -1.8995 -1.4202 -1.3790
 7292TIP3   OH243290   6.088   2.987  15.740 -0.6483 -0.3075 -0.3407
 7292TIP3    H143291   6.080   2.892  15.735 -2.4518 -0.1640 -1.0954
 7292TIP3    H243292   6.017   3.013  15.799  0.0998  0.5521  0.2003
 7293TIP3   OH243293   1.399   1.214  11.781  0.3181 -0.1202 -0.2803
 7293TIP3    H143294   1.340   1.267  11.728  0.9217  1.0696  0.1833
 7293TIP3    H243295   1.352   1.133  11.797 -0.1710 -0.2026 -1.9875
 7294TIP3   OH243296   6.091   5.342  12.390  0.4585 -0.3874  0.0438
 7294TIP3    H143297   6.114   5.435  12.393 -1.2762  0.0539  1.4949
 7294TIP3    H243298   6.138   5.304  12.464 -1.0979 -0.0158  1.3036
 7295TIP3   OH243299   2.577   6.141  17.027  0.2006  0.0621 -0.3003
 7295TIP3    H143300   2.661   6.184  17.045 -0.9889  2.6022 -0.3259
 7295TIP3    H243301   2.541   6.123  17.114  0.8506 -1.3155 -0.2870
 7296TIP3   OH243302   3.618   4.308  16.741  0.3414  0.3699  0.0290
 7296TIP3    H143303   3.645   4.316  16.649 -0.2534 -0.7139 -0.2604
 7296TIP3    H243304   3.645   4.220  16.766  1.5088  1.0443  1.2693
 7297TIP3   OH243305   0.492   5.293  16.390  0.2390 -0.0131  0.0644
 7297TIP3    H143306   0.441   5.248  16.322  0.8477 -1.9993  0.8405
 7297TIP3    H243307   0.530   5.368  16.345 -2.6931  1.1220 -0.7172
 7298TIP3   OH243308   1.404   0.957   4.061  0.9295  0.2446 -0.2727
 7298TIP3    H143309   1.449   0.884   4.018  2.3744  0.6503  0.4932
 7298TIP3    H243310   1.356   0.916   4.132  0.9110 -0.0856 -0.4737
 7299TIP3   OH243311   1.075   1.393   5.554  0.1620 -0.2676 -0.4744
 7299TIP3    H143312   1.119   1.406   5.638  0.2363  2.1380 -0.8149
 7299TIP3    H243313   1.032   1.477   5.536 -0.1491 -0.8394 -2.6795
 7300TIP3   OH243314   5.251   6.658  15.705 -0.3068  0.5963  0.0025
 7300TIP3    H143315   5.192   6.734  15.705 -1.3586 -0.2030 -0.9956
 7300TIP3    H243316   5.213   6.598  15.642  0.9660 -0.4366  0.1906
 7301TIP3   OH243317   5.328   6.534   3.573 -0.8542  0.1811 -0.8067
 7301TIP3    H143318   5.388   6.518   3.501 -0.0252  0.7987 -0.2598
 7301TIP3    H243319   5.375   6.592   3.632 -0.4115 -2.4000  1.6092
 7302TIP3   OH243320   6.359   1.867   6.222  0.4179 -0.4228 -0.2823
 7302TIP3    H143321   6.351   1.863   6.127  1.4635  0.3285 -0.4179
 7302TIP3    H243322   6.284   1.816   6.255  0.5456 -1.4408 -1.5037
 7303TIP3   OH243323   2.815   2.611   1.180 -0.1238  0.0166  0.7910
 7303TIP3    H143324   2.774   2.626   1.266 -1.9933  0.7489 -0.1721
 7303TIP3    H243325   2.830   2.699   1.145 -2.5474 -0.1790 -1.0079
 7304TIP3   OH243326   0.231   2.723  14.944 -0.1954 -0.2455 -0.1685
 7304TIP3    H143327   0.294   2.793  14.959  1.4446 -1.7925  0.6243
 7304TIP3    H243328   0.285   2.649  14.916 -1.9221 -1.0419 -1.5425
 7305TIP3   OH243329   6.075   5.894  14.220  0.0410  0.2943 -0.2342
 7305TIP3    H143330   6.080   5.802  14.246 -1.9109 -1.2184 -4.3875
 7305TIP3    H243331   6.160   5.930  14.245  2.0411 -3.4059 -0.9491
 7306TIP3   OH243332   2.526   5.773  15.348  0.3044  0.9847  0.2721
 7306TIP3    H143333   2.595   5.775  15.414  1.6598  0.1536 -1.0337
 7306TIP3    H243334   2.539   5.689  15.303 -1.8679  0.5947  0.2656
 7307TIP3   OH243335   6.108   4.200  13.926  0.2141 -0.0331  0.5747
 7307TIP3    H143336   6.180   4.144  13.898 -0.2814 -0.7400  0.6788
 7307TIP3    H243337   6.073   4.236  13.844 -0.7781 -1.5309  0.2951
 7308TIP3   OH243338   1.692   1.129  14.541  0.0522  0.4435  0.4906
 7308TIP3    H143339   1.715   1.201  14.482 -0.2487  0.7495  0.7427
 7308TIP3    H243340   1.773   1.080  14.551  0.1724  0.5435  0.0312
 7309TIP3   OH243341   6.065   2.389   5.300 -0.5343  0.0140  0.2523
 7309TIP3    H143342   6.007   2.450   5.256 -0.3217  0.3831  0.4806
 7309TIP3    H243343   6.116   2.443   5.361 -0.0867 -0.3292  0.1919
 7310TIP3   OH243344   4.975   6.291  12.634 -0.6070 -0.0439  0.4421
 7310TIP3    H143345   4.898   6.341  12.660 -1.0470  0.1190 -1.0983
 7310TIP3    H243346   4.976   6.295  12.539  0.4085 -1.4056  0.3616
 7311TIP3   OH243347   0.517   5.560  15.660 -0.1180 -0.1222  0.7433
 7311TIP3    H143348   0.566   5.566  15.742 -1.5809  0.2893  1.6296
 7311TIP3    H243349   0.440   5.615  15.675  0.5963  1.6980 -1.6745
 7312TIP3   OH243350   4.109   0.213  13.646  0.1850 -0.0207 -0.4654
 7312TIP3    H143351   4.203   0.205  13.662  0.0301 -0.9753  0.0368
 7312TIP3    H243352   4.102   0.249  13.557  1.0274  1.6597  0.1039
 7313TIP3   OH243353   3.061   0.019  16.999 -0.0533  0.2227  0.4574
 7313TIP3    H143354   3.047  -0.018  17.087  0.4191 -0.3549  0.2929
 7313TIP3    H243355   3.134  -0.031  16.964  0.2297  0.9481  0.0097
 7314TIP3   OH243356   2.087   4.854  11.234 -0.2710 -0.4465  0.1778
 7314TIP3    H143357   2.046   4.861  11.320 -0.3956 -0.2893  0.1060
 7314TIP3    H243358   2.127   4.940  11.219 -3.3003  0.8322 -1.4538
 7315TIP3   OH243359   6.749   4.223   3.277 -0.0739 -0.3424 -0.2243
 7315TIP3    H143360   6.828   4.207   3.327 -1.4052  0.5911  2.3415
 7315TIP3    H243361   6.684   4.162   3.313 -0.6871 -0.7681 -1.9450
 7316TIP3   OH243362   2.451   6.238   3.600  0.3118  0.3748 -0.4548
 7316TIP3    H143363   2.431   6.165   3.658  1.7249  1.0627  0.9813
 7316TIP3    H243364   2.452   6.200   3.513 -1.5315 -0.7592 -0.0280
 7317TIP3   OH243365   4.068   5.880   4.572 -0.1985  0.4508 -0.0879
 7317TIP3    H143366   4.141   5.866   4.633  1.0334  0.0600 -1.5750
 7317TIP3    H243367   4.081   5.813   4.505 -2.2409  0.0632 -0.1402
 7318TIP3   OH243368   6.161   6.167   6.066  0.1124  0.3662  0.0754
 7318TIP3    H143369   6.192   6.234   6.127  1.9052 -0.1043 -0.2581
 7318TIP3    H243370   6.097   6.117   6.116 -0.8715  1.9617  0.5015
 7319TIP3   OH243371   1.149   1.367   3.429 -0.4355  0.2075 -0.0900
 7319TIP3    H143372   1.184   1.435   3.486 -0.4452  1.4920 -1.5337
 7319TIP3    H243373   1.198   1.288   3.452 -0.6242  0.5964  1.8321
 7320TIP3   OH243374   0.337   2.102   4.839 -0.2772  0.4834  0.1847
 7320TIP3    H143375   0.302   2.183   4.876  0.5651  0.3781  1.2239
 7320TIP3    H243376   0.342   2.120   4.745  0.8568  2.0219  0.4963
 7321TIP3   OH243377   6.030   4.108   5.553 -0.4039  0.2194 -0.0960
 7321TIP3    H143378   6.038   4.140   5.642  1.0693 -0.5952  0.1014
 7321TIP3    H243379   5.969   4.034   5.558  1.4689 -1.3649  0.7257
 7322TIP3   OH243380   5.059   1.161  10.275 -0.2221  0.5627 -0.6448
 7322TIP3    H143381   4.992   1.093  10.269 -0.0627  0.4297 -0.9395
 7322TIP3    H243382   5.013   1.237  10.313 -0.3773  0.2665 -0.2265
 7323TIP3   OH243383   5.828   5.177   3.269  0.4137  0.8519  0.4091
 7323TIP3    H143384   5.742   5.186   3.308 -0.1934 -2.1304 -0.0087
 7323TIP3    H243385   5.845   5.083   3.268  2.0462  1.0152 -2.9540
 7324TIP3   OH243386   1.647   2.852   6.489 -0.7108 -0.5586  0.0929
 7324TIP3    H143387   1.720   2.879   6.433  0.1257 -0.2341  1.3083
 7324TIP3    H243388   1.580   2.919   6.475  0.6638  1.2827  1.7404
 7325TIP3   OH243389   4.846   1.718  13.926 -0.2562  0.2848  0.1146
 7325TIP3    H143390   4.793   1.640  13.943 -0.2036  0.4004  0.8192
 7325TIP3    H243391   4.812   1.752  13.843 -0.9401  0.0624  0.2979
 7326TIP3   OH243392   6.699   6.174   4.121 -0.2198 -0.1667 -0.5003
 7326TIP3    H143393   6.682   6.101   4.061  2.5503 -0.0404 -1.5523
 7326TIP3    H243394   6.777   6.147   4.170 -0.3992  1.2192  0.6107
 7327TIP3   OH243395   4.419   6.428  16.981  0.6166 -0.6210  0.1299
 7327TIP3    H143396   4.484   6.396  17.044  0.7885 -0.3358  0.0996
 7327TIP3    H243397   4.340   6.378  17.002  0.6550 -0.4936  0.6116
 7328TIP3   OH243398   2.073   2.182  14.487  0.0507  0.0873  0.6024
 7328TIP3    H143399   2.140   2.231  14.534 -0.8968  1.1739  0.8534
 7328TIP3    H243400   1.991   2.205  14.530 -0.4381 -1.8695  0.8498
 7329TIP3   OH243401   5.938   1.822  13.351  0.2881  0.0015 -0.2552
 7329TIP3    H143402   5.995   1.746  13.338  2.2972  1.5960 -1.5466
 7329TIP3    H243403   5.992   1.884  13.400 -1.9438 -0.0229  2.4080
 7330TIP3   OH243404   1.923   5.146  16.560  0.0151 -0.3513 -0.7649
 7330TIP3    H143405   1.898   5.053  16.567  0.8561 -0.7907 -2.7631
 7330TIP3    H243406   1.842   5.190  16.535 -0.3025 -0.6109 -0.2143
 7331TIP3   OH243407   3.244   2.049   2.581  0.4628 -0.2620  0.2384
 7331TIP3    H143408   3.187   2.011   2.648 -0.7633 -0.8170 -1.0698
 7331TIP3    H243409   3.322   1.995   2.583 -0.5076 -1.7393 -0.3229
 7332TIP3   OH243410   1.946   3.610  10.483 -0.5991  0.0168 -0.4205
 7332TIP3    H143411   1.873   3.638  10.539  0.2180 -0.3667  0.8924
 7332TIP3    H243412   1.997   3.551  10.539  1.2854  1.0864 -0.9242
 7333TIP3   OH243413   5.547   6.389   0.141  0.1752  0.1074 -0.0918
 7333TIP3    H143414   5.507   6.459   0.192 -2.3052 -0.5025 -1.0680
 7333TIP3    H243415   5.527   6.309   0.190 -0.9393 -0.3287 -1.2075
 7334TIP3   OH243416   3.315   3.499  15.974 -0.2858  0.9214  0.0010
 7334TIP3    H143417   3.348   3.549  16.048 -1.8664  1.2081  0.5540
 7334TIP3    H243418   3.333   3.554  15.898  2.0750  0.2688  0.0178
 7335TIP3   OH243419   4.868   2.100   0.894 -0.1194  0.2240  0.4056
 7335TIP3    H143420   4.897   2.126   0.981 -1.9726  1.1140  0.8030
 7335TIP3    H243421   4.922   2.152   0.834  1.6482 -0.8972  0.9524
 7336TIP3   OH243422   3.681   5.233  13.722  0.5602 -0.0898 -0.1706
 7336TIP3    H143423   3.731   5.180  13.660  0.0119  1.0101 -1.6052
 7336TIP3    H243424   3.692   5.323  13.691  3.4443  1.1050  3.5297
 7337TIP3   OH243425   5.007   3.151   0.186 -0.0824 -0.3846 -0.1520
 7337TIP3    H143426   5.000   3.138   0.280  1.2747  2.0481  0.3636
 7337TIP3    H243427   5.030   3.065   0.151 -0.8645 -1.3920  1.6595
 7338TIP3   OH243428   1.213   0.707   5.303 -0.2553 -0.0628 -0.3556
 7338TIP3    H143429   1.196   0.755   5.222  0.9984  0.2413 -0.4648
 7338TIP3    H243430   1.164   0.754   5.370 -1.0865 -0.1551 -0.8807
 7339TIP3   OH243431   4.775   5.919  12.093  0.6767 -0.4315 -0.6134
 7339TIP3    H143432   4.851   5.970  12.120  1.1126 -0.9853 -0.7888
 7339TIP3    H243433   4.728   5.902  12.174 -0.3868  1.6664 -0.7230
 7340TIP3   OH243434   4.676   1.544   1.117 -0.1101  1.0915 -0.3302
 7340TIP3    H143435   4.611   1.612   1.100 -0.3759  0.7338 -0.7617
 7340TIP3    H243436   4.682   1.540   1.212  0.6530  2.4253 -0.2974
 7341TIP3   OH243437   3.449   3.384   3.567  0.6031 -0.1326 -0.6248
 7341TIP3    H143438   3.480   3.454   3.624 -2.9173  2.5641 -1.6585
 7341TIP3    H243439   3.395   3.329   3.624  2.3533 -1.3967 -0.0932
 7342TIP3   OH243440   5.847   2.104  14.951 -0.2309  0.0882 -0.1655
 7342TIP3    H143441   5.769   2.115  15.006 -0.0138 -0.4221  0.2551
 7342TIP3    H243442   5.814   2.113  14.861 -0.7445  0.0644  0.0151
 7343TIP3   OH243443   0.720   0.143   6.207 -0.1045 -0.5823 -0.7794
 7343TIP3    H143444   0.716   0.193   6.289 -0.6151 -1.4680 -0.2391
 7343TIP3    H243445   0.668   0.193   6.145 -0.8910 -0.6012 -0.1521
 7344TIP3   OH243446   1.114   6.655  13.081  0.1358  0.9122  0.1901
 7344TIP3    H143447   1.137   6.662  13.173  1.7979  0.7167 -0.1635
 7344TIP3    H243448   1.052   6.725  13.065  0.9052  1.8383  1.1626
 7345TIP3   OH243449   2.953   5.104   5.720  0.5575  0.1006  0.3775
 7345TIP3    H143450   2.921   5.087   5.809 -0.5980 -0.4359 -0.1289
 7345TIP3    H243451   2.983   5.195   5.723  0.1009  0.2365  1.1940
 7346TIP3   OH243452   4.636   6.137  13.104  0.7078 -0.2086 -0.0597
 7346TIP3    H143453   4.683   6.057  13.082  2.2834  0.5887  0.2801
 7346TIP3    H243454   4.703   6.205  13.104 -0.4191  0.9433  0.6350
 7347TIP3   OH243455   0.278   4.565   2.263 -0.3972  0.2004  0.3490
 7347TIP3    H143456   0.323   4.643   2.296  0.9319 -0.5752  0.4368
 7347TIP3    H243457   0.290   4.500   2.332  1.9652 -1.2979 -1.3125
 7348TIP3   OH243458   6.442   0.619  12.882  0.2908  0.8752  0.2966
 7348TIP3    H143459   6.411   0.534  12.852 -2.2605  1.5244  0.9258
 7348TIP3    H243460   6.530   0.602  12.916  0.5655 -1.1228 -1.2436
 7349TIP3   OH243461   2.005   3.783  11.250 -0.5933  0.1934  0.0266
 7349TIP3    H143462   2.051   3.724  11.191  0.0457 -0.8339  1.4964
 7349TIP3    H243463   1.936   3.729  11.289 -0.9731  0.8369  0.2658
 7350TIP3   OH243464   5.625   6.319   2.273  0.0822  0.3417 -0.5527
 7350TIP3    H143465   5.699   6.379   2.265 -0.0023  0.1901 -3.1037
 7350TIP3    H243466   5.556   6.358   2.221 -1.5037  0.1829  1.3117
 7351TIP3   OH243467   3.640   0.483   4.144 -0.1081 -0.4916 -0.0073
 7351TIP3    H143468   3.627   0.549   4.076 -0.5776 -0.5847 -0.0097
 7351TIP3    H243469   3.679   0.532   4.217 -1.1400 -0.0558  0.2607
 7352TIP3   OH243470   5.502   1.115  13.677 -0.2742  0.7555 -0.2872
 7352TIP3    H143471   5.590   1.080  13.661 -0.1336  1.1138 -0.2915
 7352TIP3    H243472   5.448   1.073  13.611 -0.4050 -0.6501  0.6615
 7353TIP3   OH243473   3.206   4.106   3.384 -0.2478  0.2645 -0.2637
 7353TIP3    H143474   3.219   4.095   3.290  1.0089  1.0072 -0.1957
 7353TIP3    H243475   3.154   4.185   3.393  0.6802  0.8895 -0.2990
 7354TIP3   OH243476   4.482   4.436   2.655  0.0704  0.1010 -0.5058
 7354TIP3    H143477   4.514   4.522   2.627 -1.1471  1.4243  1.8764
 7354TIP3    H243478   4.443   4.451   2.741  1.1150 -3.1209  0.7039
 7355TIP3   OH243479   6.358   1.430  11.614  0.3757  0.1436 -0.0205
 7355TIP3    H143480   6.342   1.469  11.528  1.6231  0.3765 -0.1619
 7355TIP3    H243481   6.397   1.345  11.595 -1.5123 -0.8675  0.3050
 7356TIP3   OH243482   1.602   5.776   3.216 -0.0527  0.3173 -0.3632
 7356TIP3    H143483   1.602   5.728   3.133  0.1008 -0.4526  0.0719
 7356TIP3    H243484   1.548   5.724   3.274  0.2996  0.5590  0.1886
 7357TIP3   OH243485   1.909   1.783   5.003  0.1752  0.0207  0.0251
 7357TIP3    H143486   1.870   1.775   5.090  0.4719  1.0942  0.2667
 7357TIP3    H243487   1.963   1.704   4.994 -2.1306 -1.6194 -0.3998
 7358TIP3   OH243488   6.572   4.740  13.330  0.1087  0.1194  0.3893
 7358TIP3    H143489   6.609   4.829  13.332 -0.3523  0.3886 -1.2498
 7358TIP3    H243490   6.611   4.700  13.253 -0.4045 -0.7842  0.5910
 7359TIP3   OH243491   4.174   0.078  12.750  0.1772  0.0550 -0.0271
 7359TIP3    H143492   4.092   0.051  12.790 -0.7367 -0.5654 -2.1893
 7359TIP3    H243493   4.203   0.001  12.701  2.3261  0.1001  1.0501
 7360TIP3   OH243494   5.197   3.136  13.607  0.4050 -0.0761  0.4510
 7360TIP3    H143495   5.250   3.161  13.532  0.2449  0.4845  0.5232
 7360TIP3    H243496   5.195   3.040  13.604 -1.5587 -0.0596 -1.6527
 7361TIP3   OH243497   6.638   5.656  15.988  0.4283 -0.1426  0.4179
 7361TIP3    H143498   6.682   5.739  15.967 -0.8505  0.1923 -1.1013
 7361TIP3    H243499   6.545   5.680  15.996  0.0452 -1.4232  0.0062
 7362TIP3   OH243500   5.320   5.724   2.548  0.0958 -0.0367  0.3281
 7362TIP3    H143501   5.348   5.744   2.637 -0.0728  1.2422  0.1138
 7362TIP3    H243502   5.383   5.659   2.517 -0.6671 -1.5844  1.8407
 7363TIP3   OH243503   3.670   4.264  15.685  0.2249  0.2439 -0.0888
 7363TIP3    H143504   3.764   4.257  15.664  0.0216 -0.8678 -0.6822
 7363TIP3    H243505   3.657   4.357  15.704  1.1399  0.7051 -1.5472
 7364TIP3   OH243506   3.586   6.532  15.677  0.7985  0.3597  0.1150
 7364TIP3    H143507   3.504   6.511  15.721  1.0555  0.7074  0.7698
 7364TIP3    H243508   3.587   6.475  15.600 -0.7483  1.3898 -0.7189
 7365TIP3   OH243509   4.713   0.769  14.259 -0.7760  0.2987  0.2890
 7365TIP3    H143510   4.631   0.806  14.292 -1.0516 -1.1507  1.2965
 7365TIP3    H243511   4.697   0.675  14.253  0.6442  0.0482 -0.0405
 7366TIP3   OH243512   2.454   5.517  12.323  0.3509 -0.3611  0.4727
 7366TIP3    H143513   2.400   5.594  12.304 -0.8511 -0.9289  1.4762
 7366TIP3    H243514   2.480   5.527  12.414 -2.5991 -2.6890  1.7340
 7367TIP3   OH243515   3.132   3.478  13.297  0.2831 -0.2171 -0.0519
 7367TIP3    H143516   3.197   3.452  13.363  1.8874  0.0892 -1.4563
 7367TIP3    H243517   3.154   3.569  13.277 -2.0870  0.6918  1.1064
 7368TIP3   OH243518   1.644   6.756   0.040 -0.3459  0.4911 -0.0810
 7368TIP3    H143519   1.566   6.784   0.088 -0.4588 -0.0360  0.0557
 7368TIP3    H243520   1.632   6.790  -0.048 -0.1019  1.5317  0.2825
 7369TIP3   OH243521   4.863   4.606  15.624  0.2743  0.2127  0.3041
 7369TIP3    H143522   4.863   4.633  15.715 -3.4075  1.4592  0.0704
 7369TIP3    H243523   4.833   4.683  15.576  2.5541 -0.2451 -2.1297
 7370TIP3   OH243524   2.808   3.094   0.754 -0.1417 -0.2087  0.1378
 7370TIP3    H143525   2.737   3.031   0.771  1.0127 -1.4211  0.6491
 7370TIP3    H243526   2.866   3.086   0.829  0.0291  1.5184  0.2184
 7371TIP3   OH243527   0.464   1.723   0.331  0.0963 -0.0445  0.0025
 7371TIP3    H143528   0.539   1.784   0.332  0.5920 -0.6422  1.8253
 7371TIP3    H243529   0.390   1.777   0.302  1.1325  0.6458 -1.4921
 7372TIP3   OH243530   4.020   0.393  11.545 -0.1040 -0.0510 -0.5083
 7372TIP3    H143531   4.069   0.470  11.573 -2.6391  1.4930 -0.0939
 7372TIP3    H243532   3.961   0.425  11.477 -1.8916 -1.3744  0.3318
 7373TIP3   OH243533   4.136   0.123  12.455  0.5014 -0.5468  0.4467
 7373TIP3    H143534   4.221   0.081  12.464  0.4243 -0.6412  0.7268
 7373TIP3    H243535   4.115   0.113  12.362  1.5351  0.9161  0.0207
 7374TIP3   OH243536   1.445   2.488   2.725  0.0514 -0.1011 -0.3417
 7374TIP3    H143537   1.517   2.543   2.754  1.0207  0.0378 -2.7526
 7374TIP3    H243538   1.485   2.403   2.706 -0.3727 -0.0219 -1.7104
 7375TIP3   OH243539   1.427   3.439   5.687  0.1119  0.0153  0.5493
 7375TIP3    H143540   1.407   3.470   5.776  0.9019  1.4778  0.2460
 7375TIP3    H243541   1.514   3.473   5.669  0.3150 -0.9900 -0.4892
 7376TIP3   OH243542   2.892   4.821   6.252  0.0765  0.0286  0.9201
 7376TIP3    H143543   2.898   4.725   6.261 -1.6204 -0.3809 -1.3425
 7376TIP3    H243544   2.956   4.855   6.315  2.4923 -2.6456  0.1497
 7377TIP3   OH243545   3.969   3.096   1.528 -0.2459  0.1329  0.6591
 7377TIP3    H143546   3.983   3.189   1.545  0.3966  0.0817  0.4050
 7377TIP3    H243547   3.904   3.069   1.594  0.7466  0.3872  1.7609
 7378TIP3   OH243548   0.554   1.705  17.089  0.4563  0.0939 -0.4311
 7378TIP3    H143549   0.591   1.767  17.152  0.2403 -0.3488  0.1388
 7378TIP3    H243550   0.485   1.754  17.044  0.0338  0.1567  0.2761
 7379TIP3   OH243551   5.151   3.358  11.857 -0.1278  0.2251 -0.3022
 7379TIP3    H143552   5.206   3.358  11.935 -1.3435  1.9393  0.6133
 7379TIP3    H243553   5.202   3.407  11.792  0.6967 -0.8255 -0.4734
 7380TIP3   OH243554   5.313   1.147   3.405 -0.0459  0.4021 -0.0279
 7380TIP3    H143555   5.349   1.234   3.387 -0.9340  0.8233  0.1939
 7380TIP3    H243556   5.247   1.162   3.473 -0.9006 -0.2947 -0.6874
 7381TIP3   OH243557   6.107   5.131   4.397  0.0306  0.4362  0.3072
 7381TIP3    H143558   6.114   5.225   4.409 -2.3468  0.8946 -1.2105
 7381TIP3    H243559   6.190   5.105   4.356 -0.5667  2.5530 -2.5930
 7382TIP3   OH243560   1.402   3.049   5.288 -0.3251  0.2905  0.7547
 7382TIP3    H143561   1.443   3.114   5.345  0.2885 -0.6442  1.4127
 7382TIP3    H243562   1.449   2.968   5.307 -1.2866 -0.4208  0.1858
 7383TIP3   OH243563   6.718   5.677  13.239 -0.4048 -0.6361 -0.2494
 7383TIP3    H143564   6.630   5.702  13.212 -0.1692 -0.6957 -1.1207
 7383TIP3    H243565   6.770   5.758  13.231 -0.2708 -0.7200 -0.2383
 7384TIP3   OH243566   4.556   6.690  14.836 -0.7433  0.3028  0.3571
 7384TIP3    H143567   4.487   6.752  14.811 -0.1389 -0.2472 -3.1616
 7384TIP3    H243568   4.509   6.609  14.858 -1.3825 -0.5307 -3.3977
 7385TIP3   OH243569   2.691   1.368  12.262  0.1153  0.2592  0.0005
 7385TIP3    H143570   2.624   1.376  12.329 -0.1021 -1.7327  0.0845
 7385TIP3    H243571   2.650   1.400  12.182 -0.0622  1.4171  0.5412
 7386TIP3   OH243572   1.067   1.040   1.434  0.0059  0.1401  0.2834
 7386TIP3    H143573   1.146   1.023   1.485  0.8957  1.3728 -0.6248
 7386TIP3    H243574   1.090   1.014   1.345 -0.0692  1.8558 -0.2762
 7387TIP3   OH243575   5.908   2.699  16.491  0.0264  0.3436  0.5544
 7387TIP3    H143576   5.967   2.660  16.426 -1.5221 -2.5563  0.7151
 7387TIP3    H243577   5.947   2.785  16.510  2.2565  0.0035 -1.8289
 7388TIP3   OH243578   3.759   2.093  15.251  0.2326 -0.3466 -0.4689
 7388TIP3    H143579   3.780   2.021  15.311 -0.6588 -1.9232 -1.9654
 7388TIP3    H243580   3.798   2.067  15.168 -2.2227 -0.4099 -1.7085
 7389TIP3   OH243581   2.476   1.311  15.508  0.2082  0.6372 -0.3628
 7389TIP3    H143582   2.522   1.235  15.473  1.9488  1.3804  0.1743
 7389TIP3    H243583   2.440   1.355  15.432  1.0998  0.4604 -0.9010
 7390TIP3   OH243584   0.801   2.483  14.282  0.9647  0.3725 -0.7288
 7390TIP3    H143585   0.711   2.491  14.252  0.5009 -0.5758  0.3420
 7390TIP3    H243586   0.851   2.461  14.203 -0.4967 -3.9278 -0.7373
 7391TIP3   OH243587   1.211   2.276   4.328 -0.8126  0.0451  0.6366
 7391TIP3    H143588   1.147   2.280   4.257  0.4580 -1.8338 -0.6984
 7391TIP3    H243589   1.251   2.189   4.320  0.8418  0.5725  2.3644
 7392TIP3   OH243590   1.508   0.120   3.234 -0.5669  0.0084 -0.5503
 7392TIP3    H143591   1.450   0.050   3.264  0.8752 -0.5080  1.2441
 7392TIP3    H243592   1.463   0.201   3.258 -1.4960 -0.3343 -1.1187
 7393TIP3   OH243593   2.915   3.638  15.256 -0.1501  0.1026  0.8473
 7393TIP3    H143594   2.909   3.684  15.173 -1.3049 -0.1660  0.7737
 7393TIP3    H243595   2.935   3.706  15.320  0.3438  0.3669  0.4206
 7394TIP3   OH243596   2.608   4.184  11.375 -0.3656 -0.2659 -0.0592
 7394TIP3    H143597   2.558   4.103  11.390  0.8697 -0.9762  0.3298
 7394TIP3    H243598   2.592   4.205  11.283 -0.2114 -1.3098 -0.3401
 7395TIP3   OH243599   6.405   5.071  17.029  0.6087  0.3797 -0.5372
 7395TIP3    H143600   6.478   5.033  16.980  0.9958 -0.9454  0.9900
 7395TIP3    H243601   6.363   5.131  16.967  2.9835  1.2086 -1.4573
 7396TIP3   OH243602   6.553   2.486  15.566  0.2788  0.8808  0.7550
 7396TIP3    H143603   6.562   2.563  15.621  1.9705  0.9890  0.3754
 7396TIP3    H243604   6.461   2.486  15.540 -0.2060  1.6422  2.3548
 7397TIP3   OH243605   6.188   2.485   1.363  0.4124  0.0349  0.2382
 7397TIP3    H143606   6.244   2.510   1.289 -0.8305 -0.8606 -1.0454
 7397TIP3    H243607   6.181   2.390   1.357  0.3843 -0.0700  1.6047
 7398TIP3   OH243608   1.630   5.216  12.793 -0.2838  0.0599 -0.1867
 7398TIP3    H143609   1.623   5.312  12.786  1.4874  0.0823 -4.1779
 7398TIP3    H243610   1.546   5.189  12.830 -1.1407  3.0744  0.3458
 7399TIP3   OH243611   6.036   6.743  12.510  0.0649 -0.7627 -0.4207
 7399TIP3    H143612   6.024   6.837  12.494  1.7379 -0.5949 -0.9678
 7399TIP3    H243613   5.957   6.702  12.475 -1.8726  0.5726  2.0295
 7400TIP3   OH243614   2.480   4.347  13.301  0.8638  0.2096  0.1858
 7400TIP3    H143615   2.482   4.257  13.268  1.0531  0.0106  0.7301
 7400TIP3    H243616   2.524   4.342  13.386  1.0826  0.8585  0.1155
 7401TIP3   OH243617   5.438   6.607  12.798 -0.4262  0.4152 -0.8487
 7401TIP3    H143618   5.452   6.667  12.870  0.8547 -0.9169  0.0647
 7401TIP3    H243619   5.363   6.554  12.825 -0.6481  0.6381 -1.0153
 7402TIP3   OH243620   1.314   1.088   0.625 -0.1761 -0.3641 -0.2994
 7402TIP3    H143621   1.307   1.006   0.575  0.7867 -0.1284 -0.8659
 7402TIP3    H243622   1.405   1.089   0.655  0.5523  1.5891 -2.3113
 7403TIP3   OH243623   4.941   3.825   2.534  0.5204  0.3294  0.0603
 7403TIP3    H143624   4.981   3.905   2.568 -0.0377  1.1106 -1.0421
 7403TIP3    H243625   4.872   3.856   2.475 -0.9174 -0.9741  0.9805
 7404TIP3   OH243626   6.370   4.950   5.686 -0.4795 -0.1778  0.0774
 7404TIP3    H143627   6.417   4.934   5.604  0.7857  0.0659  0.7220
 7404TIP3    H243628   6.436   4.936   5.754 -1.8199 -1.6864  1.1499
 7405TIP3   OH243629   5.182   3.214  15.681 -0.4010 -1.0089  0.1609
 7405TIP3    H143630   5.167   3.255  15.766 -0.3808  1.2835 -0.8629
 7405TIP3    H243631   5.219   3.129  15.702 -0.3821 -0.5133  2.4443
 7406TIP3   OH243632   5.959   2.258   2.080  0.3129  0.1071  0.1418
 7406TIP3    H143633   6.048   2.247   2.114  1.4135  1.5544 -2.0291
 7406TIP3    H243634   5.937   2.349   2.099 -1.1664 -0.4870  1.5151
 7407TIP3   OH243635   0.211   0.275   3.705  0.2349  0.1113  0.1768
 7407TIP3    H143636   0.193   0.193   3.750  1.3704 -0.2660 -0.0272
 7407TIP3    H243637   0.130   0.325   3.713 -0.7057 -1.2810 -0.2696
 7408TIP3   OH243638   4.181   5.833  15.090  0.0263  0.0058 -0.3070
 7408TIP3    H143639   4.198   5.759  15.032  0.7567  0.2980 -0.4711
 7408TIP3    H243640   4.184   5.795  15.178  0.0274 -0.2306 -0.4078
 7409TIP3   OH243641   4.690   4.344   3.647  0.0081 -0.0111  0.0015
 7409TIP3    H143642   4.688   4.356   3.742  0.7681 -0.5319  0.0943
 7409TIP3    H243643   4.652   4.257   3.632 -1.4448  0.6501 -0.3029
 7410TIP3   OH243644   3.057   5.140  15.757 -0.1109 -0.6045  0.0703
 7410TIP3    H143645   3.069   5.115  15.666 -0.8434  1.7675 -0.7396
 7410TIP3    H243646   2.964   5.161  15.765  0.4213  1.8335  0.6064
 7411TIP3   OH243647   2.877   1.595   4.839  0.0412  0.4676  0.3760
 7411TIP3    H143648   2.906   1.685   4.853  2.0218 -0.3509  2.1148
 7411TIP3    H243649   2.784   1.602   4.818  0.1139  2.8963  0.6313
 7412TIP3   OH243650   1.627   5.659  13.150  0.0001  0.4053 -0.6630
 7412TIP3    H143651   1.590   5.741  13.117 -0.9610  0.5713  0.7436
 7412TIP3    H243652   1.609   5.661  13.244 -0.0699 -1.4295 -0.6106
 7413TIP3   OH243653   5.572   0.322   1.949  0.1911  0.0747 -0.3730
 7413TIP3    H143654   5.611   0.291   1.867 -0.7121  0.2022 -0.8588
 7413TIP3    H243655   5.500   0.379   1.922 -0.3763 -0.2026  0.5036
 7414TIP3   OH243656   6.120   0.354  15.291  0.0218  0.2824  0.1628
 7414TIP3    H143657   6.113   0.378  15.199 -0.0227  0.4592  0.2125
 7414TIP3    H243658   6.126   0.258  15.291 -1.2730  0.1795  0.0449
 7415TIP3   OH243659   2.168   5.733  15.231 -0.3160 -0.5184 -0.2647
 7415TIP3    H143660   2.187   5.681  15.309 -1.5892 -0.9860 -0.2329
 7415TIP3    H243661   2.072   5.744  15.233 -0.2233  0.5969 -1.0483
 7416TIP3   OH243662   2.191   2.918  12.902  0.7693  0.6585  0.6556
 7416TIP3    H143663   2.119   2.864  12.869  1.1395  0.5004  0.0901
 7416TIP3    H243664   2.270   2.878  12.865  0.9732  2.2770 -0.7938
 7417TIP3   OH243665   4.003   5.644  11.585  0.9370 -0.0528 -0.0188
 7417TIP3    H143666   3.967   5.618  11.500  2.7639 -0.8852 -0.5943
 7417TIP3    H243667   3.984   5.570  11.643  2.2741 -0.8251 -0.5148
 7418TIP3   OH243668   2.599   5.841   2.101  0.0865  0.5092 -0.3134
 7418TIP3    H143669   2.581   5.774   2.167  1.6767 -0.3312 -0.6800
 7418TIP3    H243670   2.597   5.793   2.018 -2.9220  1.7254 -1.0911
 7419TIP3   OH243671   3.216   5.870   1.369 -0.3865  0.1591  0.1472
 7419TIP3    H143672   3.126   5.881   1.337 -0.0069 -1.0002 -1.4680
 7419TIP3    H243673   3.270   5.880   1.290  0.8446  0.1240  0.9730
 7420TIP3   OH243674   6.516   2.322  15.348  0.5312 -0.3915  0.3044
 7420TIP3    H143675   6.554   2.353  15.430 -0.9989  2.4261  0.0448
 7420TIP3    H243676   6.433   2.281  15.374  0.0137  0.5622  0.1933
 7421TIP3   OH243677   4.569   5.224  12.476 -0.0840 -0.0258 -0.3524
 7421TIP3    H143678   4.583   5.236  12.382 -1.6222 -0.5855 -0.6886
 7421TIP3    H243679   4.484   5.267  12.492 -0.2514 -0.6948  0.5975
 7422TIP3   OH243680   0.945   5.503   5.227  0.3187  0.4054  0.1866
 7422TIP3    H143681   0.944   5.461   5.312 -1.5601  0.3492  0.1835
 7422TIP3    H243682   0.948   5.597   5.246  1.4080  0.3686  0.2575
 7423TIP3   OH243683   4.250   4.229  15.610 -0.0311  0.2564 -0.0381
 7423TIP3    H143684   4.248   4.236  15.705 -1.7182 -0.5126  0.0179
 7423TIP3    H243685   4.285   4.313  15.580  3.1324 -0.4364  1.2805
 7424TIP3   OH243686   1.388   1.299   4.192  0.4214  0.2289 -0.0532
 7424TIP3    H143687   1.413   1.216   4.233 -0.0710 -0.1514 -0.5097
 7424TIP3    H243688   1.382   1.361   4.265  0.0951 -0.3068  0.3830
 7425TIP3   OH243689   5.473   5.935  11.525  0.0722 -0.1954  0.5363
 7425TIP3    H143690   5.519   5.958  11.445 -2.0638  0.0113 -0.7136
 7425TIP3    H243691   5.511   5.851  11.551  0.4248 -0.5448 -1.0134
 7426TIP3   OH243692   4.137   0.574   0.027 -0.0617  0.2568  0.5644
 7426TIP3    H143693   4.165   0.638   0.091  0.9222  0.6869 -0.2673
 7426TIP3    H243694   4.072   0.620  -0.027  2.0244  1.2670 -1.2459
 7427TIP3   OH243695   3.894   3.202  14.551  0.3184 -0.0752 -0.0658
 7427TIP3    H143696   3.980   3.178  14.585 -0.8915 -0.9147  2.6918
 7427TIP3    H243697   3.833   3.139  14.591 -1.4131 -1.0598 -3.7726
 7428TIP3   OH243698   5.009   3.127  10.316 -0.0289 -0.1161 -1.0246
 7428TIP3    H143699   5.013   3.207  10.368 -1.0922  0.2158 -1.4112
 7428TIP3    H243700   5.100   3.099  10.306  0.2988  0.6742 -0.3162
 7429TIP3   OH243701   6.556   0.374  16.774  0.1005 -0.1392  0.3374
 7429TIP3    H143702   6.536   0.439  16.842  0.2054  0.4235 -0.1625
 7429TIP3    H243703   6.641   0.338  16.799 -0.2946 -0.6264  1.0211
 7430TIP3   OH243704   5.309   4.578  14.804  0.4338 -0.6945 -0.4857
 7430TIP3    H143705   5.398   4.558  14.831  0.1978  1.3257  2.1662
 7430TIP3    H243706   5.254   4.532  14.867 -0.2544  1.0423  0.2389
 7431TIP3   OH243707   0.033   5.070   3.858 -0.0286 -0.1012 -0.1800
 7431TIP3    H143708   0.072   5.156   3.843  1.2937 -0.7962 -0.9025
 7431TIP3    H243709   0.019   5.066   3.953 -1.5570  1.4789 -0.3051
 7432TIP3   OH243710   6.746   3.992  14.594 -0.1086 -0.7027  0.5995
 7432TIP3    H143711   6.699   4.053  14.651 -0.0907  0.0074 -0.1266
 7432TIP3    H243712   6.831   3.982  14.635  0.6913  1.4884 -0.3813
 7433TIP3   OH243713   6.087   3.155  12.191  0.6870 -0.6798  0.5705
 7433TIP3    H143714   6.174   3.127  12.164  0.3738 -0.3671 -0.8211
 7433TIP3    H243715   6.096   3.249  12.207  0.5370 -0.5816  0.0947
 7434TIP3   OH243716   5.537   1.326   1.603 -0.1119 -0.2301  0.1306
 7434TIP3    H143717   5.631   1.312   1.589  0.2157  0.2257  1.6802
 7434TIP3    H243718   5.495   1.259   1.550  1.0602 -0.0340 -1.1023
 7435TIP3   OH243719   2.496   4.162   4.012 -0.5063  0.2833  0.3872
 7435TIP3    H143720   2.460   4.129   3.930  0.2876  0.2803  0.0283
 7435TIP3    H243721   2.449   4.244   4.027  0.0930  0.8352 -0.6387
 7436TIP3   OH243722   2.731   5.172  11.415 -0.2366 -0.4626  0.1798
 7436TIP3    H143723   2.719   5.156  11.508 -0.2521  0.7355  0.4058
 7436TIP3    H243724   2.823   5.199  11.408 -1.0183  2.7795  0.4279
 7437TIP3   OH243725   1.748   2.439  16.479 -0.4090 -0.1116 -0.1082
 7437TIP3    H143726   1.741   2.448  16.384  1.0089  2.2156 -0.0956
 7437TIP3    H243727   1.674   2.489  16.514 -0.1638  0.2079 -0.0282
 7438TIP3   OH243728   2.020   1.946  12.750  0.1292 -0.4298  0.4566
 7438TIP3    H143729   2.031   2.009  12.821  0.1851 -0.1988  0.2463
 7438TIP3    H243730   2.019   1.860  12.793  2.5499 -0.4750  0.5529
 7439TIP3   OH243731   1.911   3.885  13.533  0.1902  0.1938  0.6408
 7439TIP3    H143732   1.826   3.849  13.506  0.9140 -1.2572  0.1670
 7439TIP3    H243733   1.905   3.978  13.515 -0.7482 -0.1280 -0.8986
 7440TIP3   OH243734   0.859   6.215   1.920 -0.8285 -0.6820  0.2172
 7440TIP3    H143735   0.835   6.261   1.840 -0.0311 -1.7367 -0.6659
 7440TIP3    H243736   0.929   6.268   1.958  0.7443 -1.5603 -1.2827
 7441TIP3   OH243737   3.931   0.083  14.131  0.1120 -0.4623  0.0618
 7441TIP3    H143738   3.839   0.055  14.138  0.0111  0.0231  0.7017
 7441TIP3    H243739   3.966   0.030  14.059  0.7602 -4.4734  2.9937
 7442TIP3   OH243740   6.345   2.515   2.664  0.4453 -0.4101 -0.1729
 7442TIP3    H143741   6.373   2.545   2.578  2.6520 -2.5693 -0.3054
 7442TIP3    H243742   6.365   2.588   2.722  3.2370 -0.5213 -0.8564
 7443TIP3   OH243743   0.311   6.117   3.895  0.0598  0.1708 -0.3854
 7443TIP3    H143744   0.371   6.148   3.827 -0.9993  0.4065 -1.2476
 7443TIP3    H243745   0.307   6.022   3.881  0.6842  0.0686  0.0710
 7444TIP3   OH243746   0.752   6.779  12.576 -0.2851 -0.3012  0.5335
 7444TIP3    H143747   0.821   6.716  12.594 -0.2886 -0.5366 -0.2496
 7444TIP3    H243748   0.799   6.860  12.556 -0.2361 -0.4116  0.1924
 7445TIP3   OH243749   4.402   4.410   0.261 -0.1879 -0.0647  0.2097
 7445TIP3    H143750   4.471   4.460   0.304 -0.0863 -0.0172 -0.0030
 7445TIP3    H243751   4.436   4.320   0.258  0.2242  0.1040 -0.6140
 7446TIP3   OH243752   0.496   5.853   3.315  0.0690  0.0212  0.5268
 7446TIP3    H143753   0.546   5.859   3.233  2.6819 -1.8908  1.8484
 7446TIP3    H243754   0.407   5.876   3.290  1.0851  1.1821 -2.4956
 7447TIP3   OH243755   1.853   2.869  14.354 -0.2648  0.2684  0.5917
 7447TIP3    H143756   1.843   2.810  14.429 -0.1203 -2.0619 -1.1164
 7447TIP3    H243757   1.946   2.894  14.356 -0.3645  0.6148  1.4279
 7448TIP3   OH243758   2.265   0.937   4.486 -0.1658 -0.9823 -0.0612
 7448TIP3    H143759   2.301   1.005   4.543 -0.5194 -1.3096  0.5490
 7448TIP3    H243760   2.252   0.861   4.543  0.1359 -1.5413 -0.7165
 7449TIP3   OH243761   3.398   2.566   1.874 -0.6311  0.0958  0.2883
 7449TIP3    H143762   3.374   2.487   1.825 -0.7426  1.1613 -1.4628
 7449TIP3    H243763   3.342   2.635   1.839 -0.6286  0.9529  1.8710
 7450TIP3   OH243764   4.247   5.884   4.034 -0.1371 -0.3031  0.6412
 7450TIP3    H143765   4.240   5.976   4.058  0.3252 -0.3840  1.1037
 7450TIP3    H243766   4.196   5.838   4.100 -2.2542 -0.2287 -0.8409
 7451TIP3   OH243767   5.665   0.450   0.286  0.3019  0.4227  0.1605
 7451TIP3    H143768   5.756   0.421   0.279  0.3138  0.8061 -2.8266
 7451TIP3    H243769   5.614   0.369   0.282  0.5044  0.3231 -0.8206
 7452TIP3   OH243770   1.772   6.235   0.131  0.4742 -0.1942  0.4325
 7452TIP3    H143771   1.758   6.151   0.086  0.7990 -0.1688  0.2851
 7452TIP3    H243772   1.684   6.272   0.140  0.4273 -0.1088 -0.3502
 7453TIP3   OH243773   2.312   1.770  15.654  0.0341  0.5990 -0.4755
 7453TIP3    H143774   2.313   1.865  15.638 -0.0042  0.9900  1.5562
 7453TIP3    H243775   2.375   1.757  15.724  1.4137 -1.1873 -1.9505
 7454TIP3   OH243776   4.517   0.200   1.600 -0.8488 -0.6310 -0.1920
 7454TIP3    H143777   4.498   0.194   1.506  0.1637  0.2803 -0.4910
 7454TIP3    H243778   4.440   0.244   1.637 -0.2618  1.2534 -1.0367
 7455TIP3   OH243779   4.223   5.718   3.572  0.0455  0.0450 -0.0735
 7455TIP3    H143780   4.249   5.682   3.657  0.8435  1.5997  0.3793
 7455TIP3    H243781   4.243   5.812   3.578  1.0768  0.0496 -2.3034
 7456TIP3   OH243782   2.478   5.375  11.895  0.3605  0.6789  0.1900
 7456TIP3    H143783   2.554   5.375  11.954  0.6589  0.8227 -0.1868
 7456TIP3    H243784   2.462   5.283  11.876  1.9466  0.7038 -1.6159
 7457TIP3   OH243785   4.377   1.842  13.635  0.3178  0.1680  0.3527
 7457TIP3    H143786   4.395   1.825  13.727  1.4621  1.4054  0.3924
 7457TIP3    H243787   4.443   1.791  13.588  0.5807  0.5727  0.2784
 7458TIP3   OH243788   5.832   3.839  13.048 -0.5361  0.3890 -0.1347
 7458TIP3    H143789   5.832   3.816  12.955 -0.8462  0.6596 -0.2011
 7458TIP3    H243790   5.910   3.796  13.083 -0.8729 -0.4050 -0.3480
 7459TIP3   OH243791   2.747   5.549   0.518 -0.2651 -0.2770 -0.5704
 7459TIP3    H143792   2.690   5.594   0.456 -1.7969 -2.5603 -0.9521
 7459TIP3    H243793   2.789   5.480   0.465 -0.9230 -1.7029  0.6980
 7460TIP3   OH243794   0.745   3.609  11.278 -0.1388  0.9233 -0.3431
 7460TIP3    H143795   0.742   3.513  11.287 -0.2978  0.7892 -1.6139
 7460TIP3    H243796   0.819   3.625  11.220  0.6867  1.6827  0.8755
 7461TIP3   OH243797   2.697   2.521  13.459  0.1303 -0.1829 -0.2326
 7461TIP3    H143798   2.720   2.478  13.377  0.0402  0.1560 -0.4361
 7461TIP3    H243799   2.768   2.498  13.519 -0.1190 -0.9481 -0.2170
 7462TIP3   OH243800   1.702   2.012  16.737 -0.2237 -0.1438 -0.5531
 7462TIP3    H143801   1.706   2.083  16.801 -0.7978 -0.0828 -0.5846
 7462TIP3    H243802   1.774   2.031  16.677 -0.4532  0.4927 -0.6418
 7463TIP3   OH243803   6.452   0.098  11.893 -0.3779  0.3299 -0.3416
 7463TIP3    H143804   6.500   0.050  11.961 -0.5051  1.4067  0.5424
 7463TIP3    H243805   6.513   0.102  11.820  0.5372  0.8306  0.4184
 7464TIP3   OH243806   6.774   3.141  16.765 -0.2439  0.0098  0.3712
 7464TIP3    H143807   6.765   3.072  16.700  1.2330 -0.2007  0.3778
 7464TIP3    H243808   6.687   3.181  16.769 -1.0437 -1.6151  0.1235
 7465TIP3   OH243809   5.774   0.047   0.900  0.1590  0.5906 -0.2264
 7465TIP3    H143810   5.717   0.082   0.968  0.7682  2.6398 -0.7081
 7465TIP3    H243811   5.736   0.078   0.818 -0.9911 -2.4621 -0.9538
 7466TIP3   OH243812   3.410   0.638   2.119 -0.1512 -0.4328 -0.3650
 7466TIP3    H143813   3.316   0.625   2.128  0.0326 -0.8985  1.2013
 7466TIP3    H243814   3.442   0.557   2.080 -0.4064 -0.2271 -1.0082
 7467TIP3   OH243815   1.385   5.430   3.966  0.6469  0.6741  0.2681
 7467TIP3    H143816   1.431   5.358   3.923 -2.8083 -1.1403 -0.7950
 7467TIP3    H243817   1.312   5.388   4.011 -0.4833  3.3587  1.1442
 7468TIP3   OH243818   3.038   3.474  16.077 -0.2360  0.2456  0.0800
 7468TIP3    H143819   3.076   3.394  16.041 -0.0038  1.0745 -1.6355
 7468TIP3    H243820   3.108   3.540  16.067 -0.4911  0.7247  1.2646
 7469TIP3   OH243821   1.446   4.374   3.162 -0.3799 -0.3294  0.1790
 7469TIP3    H143822   1.492   4.311   3.218 -1.8769 -1.1461  0.5513
 7469TIP3    H243823   1.444   4.455   3.213  2.4390  0.4355 -0.6995
 7470TIP3   OH243824   3.506   2.487  15.378  0.0318 -0.1488 -0.0618
 7470TIP3    H143825   3.595   2.502  15.411 -0.5411  1.0524  0.9861
 7470TIP3    H243826   3.499   2.543  15.301  1.1304 -2.4341 -1.9561
 7471TIP3   OH243827   2.327   3.378  14.473  0.0752  0.1304  0.1423
 7471TIP3    H143828   2.340   3.473  14.480  0.7608 -0.0044  0.8603
 7471TIP3    H243829   2.306   3.364  14.381 -1.6746  1.1551  0.3489
 7472TIP3   OH243830   3.471   1.695  13.033  0.0659  0.1758 -0.5171
 7472TIP3    H143831   3.511   1.729  12.953 -0.5851  0.4830 -0.7151
 7472TIP3    H243832   3.435   1.610  13.007  2.2940 -1.0509  0.1417
 7473TIP3   OH243833   2.862   5.387  16.048 -0.2930 -0.1079  0.0430
 7473TIP3    H143834   2.912   5.311  16.078  0.4122  0.1942 -0.3483
 7473TIP3    H243835   2.928   5.446  16.011 -0.7135  1.0652  1.0862
 7474TIP3   OH243836   6.022   6.516  14.457  0.1227 -0.1731  0.3002
 7474TIP3    H143837   5.962   6.443  14.444 -0.6146  0.4686 -0.0398
 7474TIP3    H243838   6.103   6.490  14.413 -0.5622 -0.2575 -0.9512
 7475TIP3   OH243839   2.032   1.402  16.406  0.4978  0.0730  0.0652
 7475TIP3    H143840   2.065   1.345  16.475 -0.0077 -1.0250 -0.5686
 7475TIP3    H243841   2.109   1.450  16.376  1.0087 -0.5310  0.3829
 7476TIP3   OH243842   3.044   5.104  15.058  0.2599 -0.0891 -0.8012
 7476TIP3    H143843   2.949   5.094  15.066  0.2319  0.3818 -0.4711
 7476TIP3    H243844   3.071   5.134  15.145  0.8590 -1.2996 -0.5560
 7477TIP3   OH243845   4.043   4.710   1.457 -0.3118  0.0299 -0.5577
 7477TIP3    H143846   4.124   4.683   1.413  0.7511  0.8234  0.8031
 7477TIP3    H243847   4.066   4.793   1.500 -2.1114  0.6951 -0.8116
 7478TIP3   OH243848   6.230   6.442   1.074  0.2137  0.2048 -0.5799
 7478TIP3    H143849   6.178   6.509   1.118  2.2149  0.6800  1.2586
 7478TIP3    H243850   6.190   6.359   1.103 -0.8460  0.5477 -1.0006
 7479TIP3   OH243851   6.719   1.852  15.553  0.3267 -0.2521 -0.3698
 7479TIP3    H143852   6.726   1.790  15.480  1.0941 -0.6687  0.0462
 7479TIP3    H243853   6.648   1.911  15.527 -0.1590 -1.0650 -0.9478
 7480TIP3   OH243854   1.410   3.318   2.664 -0.6210 -0.8509 -0.0061
 7480TIP3    H143855   1.338   3.260   2.642 -1.3149  0.0747 -0.2438
 7480TIP3    H243856   1.410   3.384   2.595  0.7792 -1.1097 -0.2823
 7481TIP3   OH243857   5.290   6.111   3.586 -0.5257  0.7204 -0.1131
 7481TIP3    H143858   5.331   6.161   3.657  0.3208  0.4343 -0.3817
 7481TIP3    H243859   5.343   6.132   3.509 -0.8485  0.2867 -0.4560
 7482TIP3   OH243860   6.202   3.580   1.838  0.6664 -0.0296 -0.1343
 7482TIP3    H143861   6.154   3.563   1.757  0.0716  2.3307 -0.3524
 7482TIP3    H243862   6.276   3.635   1.811  0.6875  0.4480  0.8621
 7483TIP3   OH243863   4.426   0.266  15.868  0.4783  0.4781  0.2439
 7483TIP3    H143864   4.350   0.211  15.888  0.2006  1.1204  1.0175
 7483TIP3    H243865   4.472   0.219  15.799 -0.3692 -0.1586  0.0916
 7484TIP3   OH243866   5.168   3.396  16.488  0.3054 -0.3488  0.4872
 7484TIP3    H143867   5.187   3.464  16.424 -1.5936 -2.4180 -2.5534
 7484TIP3    H243868   5.109   3.438  16.552 -0.2910  1.0376 -0.9188
 7485TIP3   OH243869   3.990   0.956  16.737  0.2189 -0.3033 -0.9676
 7485TIP3    H143870   3.942   0.924  16.661 -0.3144 -1.0309 -0.3361
 7485TIP3    H243871   3.939   1.032  16.767  1.2905  0.9810 -2.2506
 7486TIP3   OH243872   0.053   1.989  11.986  0.1242 -0.6038  0.6391
 7486TIP3    H143873   0.118   2.037  12.036  0.5495 -0.9681  0.4468
 7486TIP3    H243874   0.074   2.008  11.894 -1.1718  0.7543  0.5724
 7487TIP3   OH243875   6.069   0.581  11.503  0.1603  0.2271 -0.0430
 7487TIP3    H143876   6.037   0.669  11.484  0.0243 -0.3083 -2.5440
 7487TIP3    H243877   6.155   0.576  11.462 -0.1451 -1.0362 -0.5857
 7488TIP3   OH243878   2.712   4.869  16.729 -0.1345  0.2900 -0.1241
 7488TIP3    H143879   2.806   4.884  16.733 -0.3374  1.6485 -0.0602
 7488TIP3    H243880   2.702   4.793  16.672  0.8913  1.4730 -1.9667
 7489TIP3   OH243881   6.096   3.967  13.012  0.7766 -0.8941  0.4723
 7489TIP3    H143882   6.092   3.876  13.041 -0.1709 -1.2451 -0.6997
 7489TIP3    H243883   6.187   3.993  13.026  0.6357 -1.3533  2.7161
 7490TIP3   OH243884   2.512   3.111  13.857 -0.0142  0.0301 -0.1688
 7490TIP3    H143885   2.421   3.118  13.828  0.8886 -0.7034 -3.5175
 7490TIP3    H243886   2.562   3.161  13.793  2.1998 -1.6241  0.1574
 7491TIP3   OH243887   2.849   2.670  12.185  0.4901  0.0906  0.2500
 7491TIP3    H143888   2.910   2.718  12.240  1.8095 -2.1823  0.9366
 7491TIP3    H243889   2.766   2.674  12.233  0.0608  2.9810 -0.5571
 7492TIP3   OH243890   0.091   5.087  12.035  0.5329 -0.3167  0.6836
 7492TIP3    H143891   0.179   5.111  12.063  1.9925 -0.8907 -2.8664
 7492TIP3    H243892   0.072   5.144  11.960 -2.1108 -0.3116  1.2322
 7493TIP3   OH243893   5.538   1.547  14.972  0.2627 -0.1444 -0.6288
 7493TIP3    H143894   5.467   1.483  14.981 -0.3680  0.7380  1.0219
 7493TIP3    H243895   5.494   1.632  14.969  1.2122  0.3756 -0.2115
 7494TIP3   OH243896   2.893   6.353  14.102  0.2832 -0.1867  0.3997
 7494TIP3    H143897   2.834   6.351  14.177 -1.4011 -1.4152 -0.8842
 7494TIP3    H243898   2.935   6.267  14.103  0.5093 -0.0812  0.1223
 7495TIP3   OH243899   5.290   2.577  16.602  0.0350  0.3887 -0.2285
 7495TIP3    H143900   5.341   2.566  16.522 -0.4262  0.0592 -0.4828
 7495TIP3    H243901   5.246   2.661  16.591  2.0720  1.7094  0.8817
 7496TIP3   OH243902   2.608   2.492  10.410  0.1372  0.2635  0.0947
 7496TIP3    H143903   2.683   2.453  10.366  1.2438  0.0104  2.0538
 7496TIP3    H243904   2.635   2.498  10.502 -1.8176  1.2445  0.6671
 7497TIP3   OH243905   4.253   4.633   0.147  0.5064  0.4702 -0.2014
 7497TIP3    H143906   4.258   4.709   0.204 -1.2827 -0.4381  1.2599
 7497TIP3    H243907   4.303   4.565   0.192  1.3812  0.5153 -1.0800
 7498TIP3   OH243908   1.889   0.720  11.859 -0.0786 -0.0453  0.1669
 7498TIP3    H143909   1.831   0.788  11.893  1.3980  1.1289  0.4734
 7498TIP3    H243910   1.957   0.768  11.811 -0.0952 -1.4483 -1.3656
 7499TIP3   OH243911   3.458   3.954  16.912  0.1516  0.9782 -0.4336
 7499TIP3    H143912   3.411   3.881  16.872 -1.3873  1.5670  0.2398
 7499TIP3    H243913   3.399   4.029  16.904  0.7966  1.6541  0.7909
 7500TIP3   OH243914   3.222   5.076   3.258 -0.3898  0.0885  0.5571
 7500TIP3    H143915   3.281   5.001   3.253 -1.5589 -0.7966 -0.4798
 7500TIP3    H243916   3.159   5.053   3.326 -0.9317 -0.0212  0.0286
 7501TIP3   OH243917   2.763   6.659   5.753 -0.1095  0.2370 -0.6191
 7501TIP3    H143918   2.755   6.590   5.687 -0.3839  0.4936 -0.8562
 7501TIP3    H243919   2.857   6.668   5.768  0.1509  1.7697 -2.6730
 7502TIP3   OH243920   6.742   4.888  16.490 -0.1171 -0.1168  0.5113
 7502TIP3    H143921   6.815   4.869  16.430 -0.0835  1.7243 -0.1009
 7502TIP3    H243922   6.664   4.857  16.444 -0.3115  2.8917 -1.4300
 7503TIP3   OH243923   3.228   2.387  11.445  0.1871  0.5093  0.1241
 7503TIP3    H143924   3.181   2.315  11.486  0.6886  0.6694  1.0019
 7503TIP3    H243925   3.162   2.431  11.390 -0.6878  0.6940  1.2741
 7504TIP3   OH243926   1.339   3.287   0.887 -0.0342 -0.3766  0.4517
 7504TIP3    H143927   1.276   3.358   0.886 -0.4005 -0.6958  0.6135
 7504TIP3    H243928   1.310   3.230   0.959  0.9076 -0.0943  1.0782
 7505TIP3   OH243929   5.437   2.911  14.451 -0.2277 -0.1911 -0.2254
 7505TIP3    H143930   5.480   2.864  14.380 -0.0132  2.1130 -1.7178
 7505TIP3    H243931   5.504   2.971  14.485 -1.2864  1.2099 -0.4834
 7506TIP3   OH243932   1.932   1.319   5.629  0.0354 -0.2606  0.1509
 7506TIP3    H143933   1.859   1.310   5.568 -0.2051  0.0875  0.3774
 7506TIP3    H243934   1.996   1.372   5.582  0.8154 -1.8390 -0.6233
 7507TIP3   OH243935   3.616   6.686  12.767  0.4786 -0.3431  0.3091
 7507TIP3    H143936   3.609   6.595  12.795 -1.7783 -0.4689 -0.4902
 7507TIP3    H243937   3.547   6.732  12.814 -2.2732 -0.2313 -3.3961
 7508TIP3   OH243938   6.740   1.473  12.361 -0.3333 -0.3765 -0.3983
 7508TIP3    H143939   6.719   1.389  12.321 -0.4918 -0.9194  0.7864
 7508TIP3    H243940   6.834   1.469  12.378 -0.5461 -0.8285  0.7683
 7509TIP3   OH243941   2.101   1.125  13.195 -0.3908  0.0850 -0.1552
 7509TIP3    H143942   2.110   1.165  13.109 -0.9701  0.6731  0.0580
 7509TIP3    H243943   2.182   1.148  13.241  0.1088 -0.5803 -0.6708
 7510TIP3   OH243944   6.618   5.318   4.232 -0.0198 -0.0397  0.5459
 7510TIP3    H143945   6.652   5.236   4.197 -0.5908  0.6320 -1.7846
 7510TIP3    H243946   6.690   5.381   4.223 -0.3457  0.2707 -0.0670
 7511TIP3   OH243947   5.870   1.866   4.081  0.1299  0.0996 -0.3538
 7511TIP3    H143948   5.891   1.855   4.174  1.2990 -0.7857 -0.7019
 7511TIP3    H243949   5.778   1.841   4.074  0.2467 -0.5970  0.4382
 7512TIP3   OH243950   0.509   5.491   1.805  0.2756 -0.3902 -0.8369
 7512TIP3    H143951   0.520   5.531   1.719  3.1224 -2.1616 -1.4368
 7512TIP3    H243952   0.492   5.399   1.787 -0.3241 -0.5632  0.4975
 7513TIP3   OH243953   1.453   2.365   1.876  0.1162  0.4325 -0.4930
 7513TIP3    H143954   1.381   2.414   1.914 -0.7395  1.0554 -2.7418
 7513TIP3    H243955   1.417   2.278   1.859  0.7733 -0.1357  0.8992
 7514TIP3   OH243956   5.007   1.831   2.694 -0.0480  0.1749 -0.3294
 7514TIP3    H143957   4.970   1.919   2.687  0.7711  0.6686  1.1720
 7514TIP3    H243958   5.093   1.839   2.653 -0.4564 -0.2747 -1.3200
 7515TIP3   OH243959   0.685   1.158   2.282 -0.9160 -0.2877  0.3066
 7515TIP3    H143960   0.613   1.191   2.335 -1.5121  0.9814 -1.2078
 7515TIP3    H243961   0.647   1.142   2.196  0.4774 -0.1038 -0.3832
 7516TIP3   OH243962   5.741   1.242  11.608 -0.0627 -0.3974 -0.2125
 7516TIP3    H143963   5.766   1.308  11.543  0.0126  0.6043  0.7913
 7516TIP3    H243964   5.752   1.158  11.563  1.5375  0.1754 -0.9851
 7517TIP3   OH243965   2.596   6.274  12.289 -0.5927  0.4428 -0.3310
 7517TIP3    H143966   2.501   6.272  12.291 -0.5978  0.6064  1.4205
 7517TIP3    H243967   2.618   6.365  12.309 -0.1069 -0.1239  2.1034
 7518TIP3   OH243968   6.572   4.272   1.262  0.9436 -0.0282  0.7529
 7518TIP3    H143969   6.561   4.360   1.297  1.2260  0.5667 -0.5981
 7518TIP3    H243970   6.666   4.259   1.257  0.9973  0.8908 -2.0607
 7519TIP3   OH243971   3.761   1.352  14.250 -0.3739 -0.3831  0.7718
 7519TIP3    H143972   3.812   1.271  14.243 -0.3143 -0.2459 -0.7235
 7519TIP3    H243973   3.768   1.377  14.342 -0.7438 -2.2950  1.3695
 7520TIP3   OH243974   1.403   2.820   4.639  0.0909 -0.4005  0.3231
 7520TIP3    H143975   1.334   2.844   4.701 -1.3785 -1.5582 -0.7667
 7520TIP3    H243976   1.381   2.730   4.613  1.0700 -0.2108 -1.3141
 7521TIP3   OH243977   2.803   5.627   3.445 -0.1615 -0.2205 -0.0678
 7521TIP3    H143978   2.758   5.597   3.524 -0.5838  0.9246  0.1378
 7521TIP3    H243979   2.751   5.592   3.373  0.0162 -0.9579  0.1528
 7522TIP3   OH243980   3.837   3.630  12.701 -0.1580 -0.4599  0.2264
 7522TIP3    H143981   3.928   3.643  12.725 -0.0130 -0.0332 -0.5333
 7522TIP3    H243982   3.797   3.592  12.779  0.7551 -1.0264  0.4340
 7523TIP3   OH243983   0.235   1.655  16.278  0.3723  0.0504  0.0088
 7523TIP3    H143984   0.312   1.712  16.278 -0.3601  1.1152 -1.1887
 7523TIP3    H243985   0.201   1.662  16.188 -1.2006 -0.2549  0.5548
 7524TIP3   OH243986   4.124   1.317  13.033  0.3101 -0.5499 -0.1018
 7524TIP3    H143987   4.121   1.238  12.979 -2.6733 -0.5101 -0.1787
 7524TIP3    H243988   4.046   1.366  13.008 -0.1161  0.4545  2.7762
 7525TIP3   OH243989   4.777   4.951   4.567  0.0937  0.0909  0.2882
 7525TIP3    H143990   4.837   4.988   4.632 -1.3083  0.4753  1.4302
 7525TIP3    H243991   4.751   4.867   4.605  0.5014 -0.4399 -0.5818
 7526TIP3   OH243992   2.636   1.796  13.554 -0.4249  0.4089  0.2957
 7526TIP3    H143993   2.704   1.765  13.494 -0.3490 -0.4020  0.7962
 7526TIP3    H243994   2.651   1.890  13.559  1.2073  0.1462  1.0661
 7527TIP3   OH243995   6.335   3.934  11.246  0.2015  0.1146 -0.0797
 7527TIP3    H143996   6.383   3.965  11.170  2.1718  0.3836  1.1934
 7527TIP3    H243997   6.330   3.839  11.235  0.6699  0.1308 -0.4439
 7528TIP3   OH243998   0.142   0.989   0.549 -0.0790  0.0651 -0.4376
 7528TIP3    H143999   0.052   1.016   0.531 -0.8179 -0.5845  1.9677
 7528TIP3    H244000   0.193   1.070   0.540 -0.8989  0.4795 -1.6555
 7529TIP3   OH244001   1.572   1.074  15.355 -0.2652  0.5029 -0.1096
 7529TIP3    H144002   1.666   1.062  15.348 -0.1046  1.5193  0.1680
 7529TIP3    H244003   1.536   0.986  15.345  0.7254  0.0494  0.2028
 7530TIP3   OH244004   3.845   6.546  12.066  0.6396 -0.3191  0.1368
 7530TIP3    H144005   3.790   6.522  11.992 -1.3777  1.9218  0.7823
 7530TIP3    H244006   3.890   6.625  12.037 -0.4901  0.8216  1.3680
 7531TIP3   OH244007   5.815   2.508   2.545  0.4646 -0.3954  0.3264
 7531TIP3    H144008   5.895   2.515   2.494  1.4429  0.6402  1.9050
 7531TIP3    H244009   5.766   2.588   2.524 -0.7488 -1.5396 -1.4866
 7532TIP3   OH244010   0.945   6.345  12.757  0.1935 -0.1131 -0.4335
 7532TIP3    H144011   0.944   6.249  12.753 -0.2815 -0.3252  2.4014
 7532TIP3    H244012   0.994   6.364  12.837 -1.8536  1.8949  0.4363
 7533TIP3   OH244013   6.070   2.710   2.478 -0.3675 -0.9859  0.1522
 7533TIP3    H144014   6.107   2.623   2.469  0.8409 -0.4714 -0.0856
 7533TIP3    H244015   6.146   2.767   2.489 -0.8685  0.4798 -2.9241
 7534TIP3   OH244016   2.512   3.894  14.743 -0.1323 -0.1980 -0.4734
 7534TIP3    H144017   2.549   3.807  14.759  2.6973  0.8929 -0.4532
 7534TIP3    H244018   2.548   3.920  14.658 -2.0929  0.4335 -1.1728
 7535TIP3   OH244019   1.770   4.096   1.937  0.3038 -1.1105  0.4985
 7535TIP3    H144020   1.712   4.050   1.875  0.3288  0.4796 -0.7822
 7535TIP3    H244021   1.730   4.182   1.946  2.0661 -0.2279  0.1554
 7536TIP3   OH244022   1.742   0.320   5.135  0.3090  0.5647 -0.5170
 7536TIP3    H144023   1.741   0.300   5.042  3.1695  0.2416 -0.5640
 7536TIP3    H244024   1.811   0.264   5.171 -1.2657  0.0613  1.9791
 7537TIP3   OH244025   3.400   0.219  16.918  0.2645  0.0915 -0.3183
 7537TIP3    H144026   3.379   0.270  16.840  1.6029  2.2825  0.6781
 7537TIP3    H244027   3.491   0.192  16.906  0.7429  1.1346  0.8154
 7538TIP3   OH244028   1.011   1.193  13.140 -0.4421 -0.1609  0.4242
 7538TIP3    H144029   1.060   1.275  13.148 -0.7293  0.2070 -1.1119
 7538TIP3    H244030   0.992   1.167  13.230  1.1126  0.5598  0.9955
 7539TIP3   OH244031   5.914   0.783  14.045 -0.0553  0.0211 -0.4792
 7539TIP3    H144032   5.996   0.765  14.000  0.3193 -0.0768  0.2247
 7539TIP3    H244033   5.889   0.699  14.083  1.7026  0.7932  2.8262
 7540TIP3   OH244034   2.708   4.208   5.795 -0.2778  0.3011 -0.6072
 7540TIP3    H144035   2.620   4.214   5.760 -1.0104 -1.3492  0.8033
 7540TIP3    H244036   2.761   4.264   5.738 -2.1783  1.1649 -1.5940
 7541TIP3   OH244037   4.596   1.984  12.902 -0.3411  0.0840 -0.2153
 7541TIP3    H144038   4.566   1.962  12.990 -2.1211 -3.4944 -1.5000
 7541TIP3    H244039   4.539   2.055  12.874 -0.0588  0.9468  1.3056
 7542TIP3   OH244040   1.531   0.352  15.042 -0.3327  0.2372 -0.1464
 7542TIP3    H144041   1.620   0.336  15.012 -0.4055 -0.1799 -0.1461
 7542TIP3    H244042   1.498   0.266  15.067 -0.8247  0.3481 -0.3919
 7543TIP3   OH244043   4.629   0.728  14.556 -0.2621 -0.2227  0.2849
 7543TIP3    H144044   4.543   0.695  14.528 -0.7005  0.6826  0.5209
 7543TIP3    H244045   4.609   0.812  14.599  0.7321 -0.0593  0.4355
 7544TIP3   OH244046   3.270   1.365  12.451 -0.3408 -0.3041 -0.5375
 7544TIP3    H144047   3.178   1.351  12.425 -0.8382  0.3461  0.8058
 7544TIP3    H244048   3.285   1.300  12.520  0.7274 -1.4817 -1.8190
 7545TIP3   OH244049   2.936   2.338   3.410  0.0561 -0.3429 -0.5881
 7545TIP3    H144050   2.903   2.412   3.359  0.1506 -0.2802 -0.5581
 7545TIP3    H244051   2.863   2.276   3.412 -0.7312  0.5782  1.0635
 7546TIP3   OH244052   0.127   1.500   5.324  0.2847 -0.2953 -0.7624
 7546TIP3    H144053   0.189   1.538   5.386  0.0137 -2.7597  1.1658
 7546TIP3    H244054   0.043   1.538   5.349  0.1340 -1.4684  0.6281
 7547TIP3   OH244055   4.363   0.315   5.114  0.1115  0.0722  0.3956
 7547TIP3    H144056   4.429   0.316   5.184 -0.4171 -0.1340  0.8981
 7547TIP3    H244057   4.281   0.335   5.158 -0.0216  1.4163 -0.3999
 7548TIP3   OH244058   4.162   2.699   2.462 -0.1952 -0.2165  0.6365
 7548TIP3    H144059   4.253   2.671   2.457 -0.3152 -0.5828  0.5083
 7548TIP3    H244060   4.153   2.761   2.389  0.5056  1.4365  1.8936
 7549TIP3   OH244061   4.651   3.556   5.708  0.2648  0.4272  0.0536
 7549TIP3    H144062   4.586   3.570   5.777  2.0768 -2.5100  2.6653
 7549TIP3    H244063   4.628   3.471   5.671  1.5349  0.1642 -0.1909
 7550TIP3   OH244064   5.964   3.244  15.128  0.0552 -0.2438  0.3948
 7550TIP3    H144065   5.924   3.164  15.093  0.9982 -0.2843 -0.6514
 7550TIP3    H244066   5.889   3.299  15.152 -0.6838 -0.1753 -1.8263
 7551TIP3   OH244067   3.811   4.901   0.091  0.6739  0.6370 -0.5258
 7551TIP3    H144068   3.883   4.876   0.033  0.7559  0.0043 -0.1636
 7551TIP3    H244069   3.849   4.967   0.149  1.5123 -0.9583  0.8319
 7552TIP3   OH244070   0.397   1.047  14.668 -0.2170 -0.3833 -0.0932
 7552TIP3    H144071   0.338   1.086  14.732  0.4321 -0.0810  0.3281
 7552TIP3    H244072   0.477   1.098  14.674  0.1880 -0.9599 -0.4644
 7553TIP3   OH244073   5.104   0.461  16.400  0.4063 -0.0242  0.0978
 7553TIP3    H144074   5.030   0.515  16.374  0.5549 -0.7593 -2.0703
 7553TIP3    H244075   5.067   0.398  16.462 -0.3671  0.7420  0.4339
 7554TIP3   OH244076   0.805   1.674  11.791  0.0114 -0.2826  0.2477
 7554TIP3    H144077   0.854   1.627  11.723  0.6755  1.5637 -0.6155
 7554TIP3    H244078   0.857   1.752  11.808 -1.7919  0.9119  0.5431
 7555TIP3   OH244079   3.163   6.077  12.883 -0.2336 -0.3586  0.1980
 7555TIP3    H144080   3.122   6.035  12.808 -0.5073 -0.7603  0.5656
 7555TIP3    H244081   3.178   6.005  12.945  0.1815 -0.0662  0.4387
 7556TIP3   OH244082   5.387   3.394   3.443  0.1843  0.0951 -0.4327
 7556TIP3    H144083   5.427   3.442   3.516  0.6809 -1.5051  0.3976
 7556TIP3    H244084   5.460   3.373   3.385 -0.0411  0.3625 -0.8222
 7557TIP3   OH244085   4.043   6.655   0.469  0.0792  0.2243  0.1770
 7557TIP3    H144086   4.055   6.574   0.519 -1.9995  0.0158  0.4338
 7557TIP3    H244087   4.098   6.719   0.514  0.8455 -0.7564  0.6768
 7558TIP3   OH244088   1.899   2.071  14.058 -0.0317 -0.2731 -0.2007
 7558TIP3    H144089   1.818   2.088  14.105 -0.1675  0.3466 -0.6399
 7558TIP3    H244090   1.887   1.984  14.020 -0.5342 -0.1451 -0.3432
 7559TIP3   OH244091   1.245   2.809   3.372  0.0348  0.0928  0.4091
 7559TIP3    H144092   1.328   2.857   3.371  0.6774 -0.9615  0.9370
 7559TIP3    H244093   1.204   2.836   3.454  0.3027 -0.1052  0.6109
 7560TIP3   OH244094   3.263   5.737   5.741 -0.2463  0.3399 -0.2061
 7560TIP3    H144095   3.239   5.772   5.827 -1.0250  1.0512 -0.6940
 7560TIP3    H244096   3.343   5.688   5.757 -0.7264 -0.0793  1.0432
 7561TIP3   OH244097   1.189   4.422  15.018  0.1936  0.5506  0.0745
 7561TIP3    H144098   1.256   4.417  14.950  0.8506 -1.4221  0.7801
 7561TIP3    H244099   1.223   4.486  15.080  1.7614 -0.7534  0.6656
 7562TIP3   OH244100   1.604   1.544   2.138  0.6817  0.2259 -0.6577
 7562TIP3    H144101   1.542   1.492   2.189  1.0617  0.7780  0.3837
 7562TIP3    H244102   1.581   1.525   2.046 -1.0870  0.5187 -0.3071
 7563TIP3   OH244103   4.615   1.641  15.855 -0.3865 -0.4656  0.8567
 7563TIP3    H144104   4.693   1.587  15.865  0.1537 -0.3487 -1.9202
 7563TIP3    H244105   4.630   1.715  15.913  1.0959 -0.9546  1.1442
 7564TIP3   OH244106   1.418   4.677   1.999  0.2434  0.0797  0.0715
 7564TIP3    H144107   1.513   4.693   1.990  0.3441  0.3770  1.4874
 7564TIP3    H244108   1.380   4.765   2.003  0.0267 -0.0419  0.6605
 7565TIP3   OH244109   2.510   0.868  16.556 -0.2162  0.4817  0.8026
 7565TIP3    H144110   2.579   0.814  16.595 -1.2482  0.0393  2.0857
 7565TIP3    H244111   2.502   0.943  16.615 -1.5466 -0.0116  1.2789
 7566TIP3   OH244112   0.469   5.533   1.542 -0.2114 -0.4389  0.1603
 7566TIP3    H144113   0.411   5.466   1.576 -0.6444 -0.2315 -0.1516
 7566TIP3    H244114   0.495   5.500   1.456  0.2242 -0.5837  0.3472
 7567TIP3   OH244115   3.543   1.285   5.254 -0.1998 -0.0471  0.2429
 7567TIP3    H144116   3.449   1.277   5.240 -0.2597 -1.2725  1.2072
 7567TIP3    H244117   3.558   1.250   5.341  0.9974  1.3691  0.6590
 7568TIP3   OH244118   4.131   5.076   2.035  0.6407 -0.0348  0.0114
 7568TIP3    H144119   4.071   5.076   2.110  0.0560 -1.1639 -0.4136
 7568TIP3    H244120   4.142   5.168   2.012  0.7211  0.3167  1.3864
 7569TIP3   OH244121   6.229   2.115  11.015  0.0299 -0.3114 -0.4201
 7569TIP3    H144122   6.291   2.043  11.027  0.3272  0.1193  0.7404
 7569TIP3    H244123   6.283   2.189  10.986  0.1098  0.1263  0.8039
 7570TIP3   OH244124   4.571   3.901  13.299  0.1755  0.1377 -0.1956
 7570TIP3    H144125   4.519   3.981  13.309  1.7075  1.1261  0.3375
 7570TIP3    H244126   4.572   3.863  13.386  1.8987  1.1910  0.3062
 7571TIP3   OH244127   1.180   0.274  15.612  0.1684 -0.2595  0.1164
 7571TIP3    H144128   1.119   0.201  15.604  0.5217 -0.3799 -2.2099
 7571TIP3    H244129   1.156   0.333  15.540  1.8973  0.3573  0.0035
 7572TIP3   OH244130   1.785   3.740  14.611  0.2464  0.5223 -0.2056
 7572TIP3    H144131   1.745   3.796  14.544  0.7477  0.8882 -0.2035
 7572TIP3    H244132   1.854   3.693  14.564  0.0652  0.1702 -0.1239
 7573TIP3   OH244133   1.761   6.444  15.783 -0.4781 -0.2099 -0.3677
 7573TIP3    H144134   1.679   6.419  15.826 -0.6018  0.2635 -0.3156
 7573TIP3    H244135   1.819   6.469  15.854  0.3208 -2.1923 -0.2750
 7574TIP3   OH244136   0.457   0.100  12.957 -0.2946 -0.3250 -0.0091
 7574TIP3    H144137   0.412   0.180  12.930 -0.4427 -0.2495  0.4553
 7574TIP3    H244138   0.542   0.104  12.913 -0.8308 -0.5931 -1.1085
 7575TIP3   OH244139   4.209   2.303   2.419  0.3163 -0.2351  0.3767
 7575TIP3    H144140   4.190   2.268   2.505 -0.7744  1.5798  0.9283
 7575TIP3    H244141   4.125   2.304   2.373  0.7736 -0.6345 -0.5072
 7576TIP3   OH244142   5.925   5.497  15.012  0.0912 -0.0481  0.1649
 7576TIP3    H144143   5.991   5.450  14.962  0.2834 -0.9973  1.2788
 7576TIP3    H244144   5.974   5.541  15.082 -0.2090  1.0347 -0.2798
 7577TIP3   OH244145   2.030   0.593   2.540  0.2495  0.3027 -0.4025
 7577TIP3    H144146   2.061   0.635   2.460 -0.2513 -0.4560 -1.0045
 7577TIP3    H244147   2.091   0.521   2.555  0.0341  0.1166 -0.4075
 7578TIP3   OH244148   3.395   0.373   1.733  0.1229 -0.6878 -0.1491
 7578TIP3    H144149   3.480   0.401   1.698  0.0723  0.6234  0.6802
 7578TIP3    H244150   3.376   0.291   1.689  1.4484 -0.5901 -0.9486
 7579TIP3   OH244151   1.771   6.398  13.033  0.0298 -0.1010 -0.0266
 7579TIP3    H144152   1.682   6.428  13.016  0.0493  0.6869  1.1041
 7579TIP3    H244153   1.824   6.478  13.033  0.5030 -0.4037  0.5959
 7580TIP3   OH244154   1.345   0.140  14.213  0.0742 -0.0208  0.5065
 7580TIP3    H144155   1.404   0.188  14.154 -0.3561  0.8692  0.8007
 7580TIP3    H244156   1.258   0.157  14.179 -0.1738  0.4426  1.3572
 7581TIP3   OH244157   0.710   3.887  16.961 -0.7529 -0.1217  0.6777
 7581TIP3    H144158   0.759   3.857  17.037  2.2255  2.2949 -0.0710
 7581TIP3    H244159   0.711   3.982  16.968 -1.0999  0.1450 -1.9278
 7582TIP3   OH244160   2.094   0.940   2.278  0.2577  0.3894 -0.0937
 7582TIP3    H144161   2.077   0.920   2.370 -1.6175 -0.6429 -0.6048
 7582TIP3    H244162   2.181   0.902   2.261  0.1403 -0.4033  0.9658
 7583TIP3   OH244163   0.701   6.788   1.181 -0.4914  0.4988 -0.2244
 7583TIP3    H144164   0.758   6.861   1.207 -1.0306  1.0557 -0.5592
 7583TIP3    H244165   0.753   6.737   1.120  0.7178 -0.7010  1.6974
 7584TIP3   OH244166   2.658   4.884   4.238  0.0107  0.6642 -0.0870
 7584TIP3    H144167   2.586   4.897   4.177  1.4462 -2.0423 -2.5936
 7584TIP3    H244168   2.619   4.838   4.313 -0.9564 -0.4606 -1.2479
 7585TIP3   OH244169   4.995   3.971   6.560 -0.5649  0.0828  0.0592
 7585TIP3    H144170   4.961   3.958   6.471 -1.8298 -1.3708  0.6956
 7585TIP3    H244171   4.944   4.044   6.595 -0.4472  0.3020 -0.2242
 7586TIP3   OH244172   2.850   5.618   1.274  0.0288 -0.6481  0.2440
 7586TIP3    H144173   2.887   5.704   1.295 -0.2926 -0.3986 -0.1962
 7586TIP3    H244174   2.767   5.637   1.230 -1.4522 -1.1962  2.6142
 7587TIP3   OH244175   0.396   6.360  14.048  0.1985  0.1848 -0.0708
 7587TIP3    H144176   0.331   6.381  13.982 -1.5095  1.8894  1.9918
 7587TIP3    H244177   0.358   6.285  14.095 -0.6054  1.4645  1.4249
 7588TIP3   OH244178   5.729   3.751  11.015  0.0108 -0.0805  0.3943
 7588TIP3    H144179   5.717   3.790  10.929 -0.9386 -1.1971  0.0016
 7588TIP3    H244180   5.725   3.657  11.000  0.2458 -0.3069  1.6071
 7589TIP3   OH244181   4.709   1.537  11.650  0.0210 -0.3669 -0.2667
 7589TIP3    H144182   4.765   1.464  11.676 -0.2937 -0.2106  0.9552
 7589TIP3    H244183   4.768   1.610  11.639  0.5357 -1.0846 -2.9428
 7590TIP3   OH244184   6.782   6.465  13.639 -0.4554  0.4011 -0.3291
 7590TIP3    H144185   6.729   6.416  13.576 -0.5118  0.6470 -0.4736
 7590TIP3    H244186   6.790   6.553  13.600 -0.1324  0.4290 -0.1993
 7591TIP3   OH244187   1.910   1.147   3.599  0.7638  0.1339  0.1555
 7591TIP3    H144188   1.961   1.101   3.666 -0.1071  0.1133  0.8187
 7591TIP3    H244189   1.973   1.206   3.558  1.5553 -0.6017  0.2774
 7592TIP3   OH244190   3.413   4.524  15.323 -0.5161  0.3226  0.6384
 7592TIP3    H144191   3.423   4.497  15.232 -0.6604  0.2578  0.6418
 7592TIP3    H244192   3.398   4.443  15.371  2.2468  0.0248  1.1293
 7593TIP3   OH244193   1.108   4.856   5.593  0.1180  0.0749  0.4854
 7593TIP3    H144194   1.144   4.905   5.667 -0.7502  1.9359 -0.2481
 7593TIP3    H244195   1.013   4.870   5.598  0.0491  0.4111 -1.0575
 7594TIP3   OH244196   2.259   4.856   2.140 -0.6368 -0.4256 -0.3240
 7594TIP3    H144197   2.327   4.789   2.148  1.0742  1.2973  0.4337
 7594TIP3    H244198   2.233   4.854   2.048  1.9336  0.1913 -1.1333
 7595TIP3   OH244199   1.887   5.937   2.046  0.7030 -0.3311  0.5457
 7595TIP3    H144200   1.866   6.028   2.067  1.5754  0.2400 -0.9583
 7595TIP3    H244201   1.869   5.889   2.127  1.4463  1.3646  1.7597
 7596TIP3   OH244202   4.116   3.021  12.716  0.0340  0.3704  0.0321
 7596TIP3    H144203   4.109   3.044  12.623 -0.3434  0.2875  0.0410
 7596TIP3    H244204   4.053   3.078  12.760 -1.1915 -0.9230  0.0144
 7597TIP3   OH244205   5.200   3.344  13.230 -0.5083 -0.7926  0.3193
 7597TIP3    H144206   5.290   3.360  13.202 -0.3898 -1.4357  0.3286
 7597TIP3    H244207   5.207   3.283  13.303 -0.8844  0.1203  1.1370
 7598TIP3   OH244208   5.284   5.756   4.200  0.1467  0.5092 -0.2277
 7598TIP3    H144209   5.214   5.743   4.136  0.0619 -0.0988 -0.0173
 7598TIP3    H244210   5.314   5.667   4.221  0.6430  0.7390  0.0558
 7599TIP3   OH244211   2.684   4.249  14.816 -0.4694 -0.1298  0.9573
 7599TIP3    H144212   2.693   4.255  14.911  0.6233  0.9968  0.8241
 7599TIP3    H244213   2.605   4.299  14.796  0.0003  0.7433  1.1991
 7600TIP3   OH244214   4.348   4.429   3.495 -0.2094  0.1048  0.3884
 7600TIP3    H144215   4.334   4.477   3.577 -1.9678  1.0030 -0.4071
 7600TIP3    H244216   4.407   4.358   3.520 -0.6729  0.3697  2.4393
 7601TIP3   OH244217   1.651   5.637  15.278 -0.2755 -0.0943 -0.0310
 7601TIP3    H144218   1.569   5.621  15.231 -0.7056 -0.8220  0.9273
 7601TIP3    H244219   1.634   5.714  15.332 -0.0125  0.3188 -0.5305
 7602TIP3   OH244220   2.858   5.045   5.272  0.2100  0.0793  0.1998
 7602TIP3    H144221   2.900   5.049   5.186  1.3365 -1.6907  0.6112
 7602TIP3    H244222   2.782   5.102   5.264  0.9527  0.8973 -1.5828
 7603TIP3   OH244223   6.117   0.255  12.712  0.8030  0.1328  0.6171
 7603TIP3    H144224   6.050   0.199  12.673  0.3531  0.3705  1.0345
 7603TIP3    H244225   6.071   0.336  12.732  1.2709  0.3755  0.7179
 7604TIP3   OH244226   2.016   0.694  12.106  0.0891 -0.0341 -0.3334
 7604TIP3    H144227   1.949   0.716  12.170  0.1824 -1.4566  0.2883
 7604TIP3    H244228   1.968   0.674  12.026 -0.2113 -0.7476  0.0224
 7605TIP3   OH244229   2.431   1.665  15.408  0.5211 -0.1033  0.5458
 7605TIP3    H144230   2.408   1.708  15.491  0.5020  0.9853 -0.0035
 7605TIP3    H244231   2.447   1.737  15.348  1.4867 -0.8757 -0.1504
 7606TIP3   OH244232   6.626   0.662  11.272  0.4388 -0.6643 -0.1118
 7606TIP3    H144233   6.595   0.743  11.231  1.6073 -0.0081  0.2351
 7606TIP3    H244234   6.623   0.597  11.202  2.6673  0.4978 -1.4063
 7607TIP3   OH244235   4.893   3.608  14.959  0.5969 -0.2984  0.0956
 7607TIP3    H144236   4.909   3.550  15.034 -1.7261 -0.6692  0.3988
 7607TIP3    H244237   4.803   3.587  14.932  1.3693 -0.2593 -2.8854
 7608TIP3   OH244238   3.229   2.159  12.380  0.4552  0.2224 -0.1831
 7608TIP3    H144239   3.279   2.135  12.458 -0.3891  0.1213  0.3499
 7608TIP3    H244240   3.253   2.094  12.314 -0.7392 -1.3043  0.7979
 7609TIP3   OH244241   5.990   5.938   4.708  0.2430  0.9406 -0.1235
 7609TIP3    H144242   5.944   6.019   4.733  0.8222  0.8342  1.4108
 7609TIP3    H244243   6.069   5.969   4.663  0.6168  1.2686  0.7247
 7610TIP3   OH244244   1.230   4.862  15.642 -0.0205 -0.1851 -0.8999
 7610TIP3    H144245   1.301   4.899  15.590 -1.3403  0.7901 -2.0839
 7610TIP3    H244246   1.260   4.773  15.663  2.0761  0.6141 -0.2322
 7611TIP3   OH244247   1.163   1.664  12.141 -0.1185 -0.0673 -0.0076
 7611TIP3    H144248   1.082   1.709  12.119  0.9879  3.0423  1.6025
 7611TIP3    H244249   1.138   1.572  12.154 -3.0785  0.5370 -0.8191
 7612TIP3   OH244250   3.058   1.412   4.738  0.1096  0.2430  0.4284
 7612TIP3    H144251   3.103   1.466   4.803 -0.6798  2.6989 -0.9385
 7612TIP3    H244252   2.989   1.468   4.704  1.6292 -0.0977 -3.8975
 7613TIP3   OH244253   3.222   6.725   5.525  0.3887  0.1747  0.2243
 7613TIP3    H144254   3.150   6.787   5.534 -1.1759 -1.5802  0.5210
 7613TIP3    H244255   3.248   6.706   5.615  0.7490  0.2922  0.1433
 7614TIP3   OH244256   6.692   3.677  12.538  0.5809 -0.3585 -0.2084
 7614TIP3    H144257   6.651   3.719  12.462 -0.3640  0.4761  0.7186
 7614TIP3    H244258   6.773   3.727  12.552  1.6196 -1.5603 -1.6200
 7615TIP3   OH244259   0.228   3.878  14.218 -0.4687  0.2468  0.0693
 7615TIP3    H144260   0.183   3.960  14.235  1.3748  0.9777  1.7628
 7615TIP3    H244261   0.280   3.895  14.139 -1.3073  0.1690 -0.5052
 7616TIP3   OH244262   4.132   4.413   1.311 -0.4878  0.1927 -0.4342
 7616TIP3    H144263   4.039   4.395   1.294 -0.6688  0.3113  0.3542
 7616TIP3    H244264   4.170   4.328   1.332 -0.6965  0.3014  0.4301
 7617TIP3   OH244265   4.833   2.566   3.249  0.3771  0.0885 -0.1244
 7617TIP3    H144266   4.772   2.527   3.186  1.1947  0.4924 -1.1937
 7617TIP3    H244267   4.782   2.636   3.291 -0.3379 -0.5276  0.0460
 7618TIP3   OH244268   2.844   6.802  14.890  0.0143 -0.0130 -0.0235
 7618TIP3    H144269   2.764   6.769  14.933  0.5799 -1.4486 -0.0226
 7618TIP3    H244270   2.908   6.807  14.960 -0.2526  1.9769  0.1578
 7619TIP3   OH244271   1.219   5.000  11.229  0.3660  0.2290  0.2155
 7619TIP3    H144272   1.268   5.061  11.285  0.5946  0.1004  0.1558
 7619TIP3    H244273   1.267   5.000  11.146 -0.5310  1.1758 -0.3214
 7620TIP3   OH244274   1.626   4.545  10.830  0.4308  0.4218 -0.0252
 7620TIP3    H144275   1.693   4.557  10.762 -0.8026  2.7652 -0.9244
 7620TIP3    H244276   1.575   4.470  10.800  1.0347  0.2624 -0.6933
 7621TIP3   OH244277   6.224   5.653  16.910 -0.1957 -0.6412 -0.1188
 7621TIP3    H144278   6.203   5.746  16.907  0.7646 -0.3578  0.9850
 7621TIP3    H244279   6.199   5.620  16.824 -1.4647  0.4176 -0.1889
 7622TIP3   OH244280   4.474   5.520   3.187  0.3216 -0.0142  0.1387
 7622TIP3    H144281   4.490   5.425   3.181 -1.8103 -0.4783  0.8666
 7622TIP3    H244282   4.420   5.540   3.110  0.1403  0.4529  0.3839
 7623TIP3   OH244283   5.573   1.166   0.825  0.4764  0.0289 -0.1635
 7623TIP3    H144284   5.577   1.126   0.738 -0.8295  0.5837 -0.5107
 7623TIP3    H244285   5.525   1.248   0.811  1.5947  0.8849  0.8339
 7624TIP3   OH244286   4.211   2.512   4.976  0.1825 -0.0130  0.6167
 7624TIP3    H144287   4.177   2.579   4.917  1.6841 -0.4043 -0.7988
 7624TIP3    H244288   4.159   2.434   4.956  0.4647 -0.0562  0.0223
 7625TIP3   OH244289   1.926   2.926   2.969 -0.8944  0.3964 -0.1683
 7625TIP3    H144290   1.978   2.861   2.923 -2.3676 -1.6931  0.9884
 7625TIP3    H244291   1.837   2.916   2.935 -1.0067  2.5813 -0.7131
 7626TIP3   OH244292   5.025   3.625   0.766  0.4809 -0.1409  0.6176
 7626TIP3    H144293   4.966   3.553   0.744 -0.6294  0.9018  0.0910
 7626TIP3    H244294   5.097   3.618   0.703 -1.2044  1.0740 -1.5566
 7627TIP3   OH244295   6.818   4.654  10.498 -0.4815  0.2062  0.0539
 7627TIP3    H144296   6.894   4.711  10.489 -2.0710  2.1603 -2.0854
 7627TIP3    H244297   6.800   4.654  10.592  2.3531 -0.7125  0.7054
 7628TIP3   OH244298   5.160   2.476  13.190 -0.3378  0.3581 -0.6274
 7628TIP3    H144299   5.100   2.462  13.263 -0.0632 -0.0569 -0.4741
 7628TIP3    H244300   5.234   2.523  13.228 -0.2914  0.3295 -0.6822
 7629TIP3   OH244301   0.257   2.704   0.436 -0.2137 -0.3569 -0.2263
 7629TIP3    H144302   0.332   2.698   0.495 -0.7210 -0.5995  0.4081
 7629TIP3    H244303   0.296   2.707   0.348  0.5450 -0.1321  0.1075
 7630TIP3   OH244304   6.136   3.455  13.519 -0.3755 -0.7887  0.4529
 7630TIP3    H144305   6.041   3.442  13.515 -0.2471 -1.3983 -2.1427
 7630TIP3    H244306   6.169   3.418  13.438  1.6811  2.7142 -0.5320
 7631TIP3   OH244307   4.640   0.671   1.999 -0.1279 -0.3757 -0.1914
 7631TIP3    H144308   4.623   0.760   2.030 -2.0153 -0.7129 -0.1821
 7631TIP3    H244309   4.666   0.622   2.077 -1.6194 -0.4268  0.3021
 7632TIP3   OH244310   1.152   0.775  14.703 -0.1469 -0.3958 -0.0815
 7632TIP3    H144311   1.126   0.791  14.613  0.3765 -0.5015 -0.2569
 7632TIP3    H244312   1.186   0.859  14.734 -1.6455  0.0357  0.4947
 7633TIP3   OH244313   1.597   5.336  12.077 -0.0135 -0.0774  0.2356
 7633TIP3    H144314   1.535   5.317  12.006  0.7038 -0.2697 -0.3543
 7633TIP3    H244315   1.553   5.403  12.130 -0.2983  0.5368 -0.7498
 7634TIP3   OH244316   5.416   1.397   0.044 -0.1330  0.3445 -0.4579
 7634TIP3    H144317   5.494   1.453   0.041  0.6696 -0.7558 -0.7659
 7634TIP3    H244318   5.409   1.370   0.135  0.0647  0.1512 -0.4990
 7635TIP3   OH244319   5.763   4.994  12.014 -0.0150  0.4505 -0.4119
 7635TIP3    H144320   5.738   4.981  12.106  1.3776  0.1075 -0.0562
 7635TIP3    H244321   5.785   5.087  12.008 -0.9295  0.6583 -0.6169
 7636TIP3   OH244322   3.672   4.624  11.598 -0.5739  0.3042 -0.1574
 7636TIP3    H144323   3.618   4.577  11.535 -0.1683 -0.4361  0.0275
 7636TIP3    H244324   3.731   4.557  11.633  1.6025  1.3897 -1.5394
 7637TIP3   OH244325   4.686   3.533   3.550  0.1935 -0.2427 -0.7309
 7637TIP3    H144326   4.751   3.469   3.520 -0.2788 -2.1107  1.8814
 7637TIP3    H244327   4.737   3.599   3.596  0.5096  0.2337 -1.7344
 7638TIP3   OH244328   5.771   0.882   0.652  0.3924 -0.3697  0.3874
 7638TIP3    H144329   5.809   0.829   0.582  1.0039  0.9296 -0.3121
 7638TIP3    H244330   5.731   0.819   0.711 -0.0044 -1.5357 -1.0547
 7639TIP3   OH244331   3.876   5.716   0.361  0.0745  0.1213 -0.1842
 7639TIP3    H144332   3.789   5.698   0.325 -0.0420  1.2180 -0.4797
 7639TIP3    H244333   3.901   5.801   0.324 -0.2672  1.5947  2.6805
 7640TIP3   OH244334   0.369   1.582  15.212  0.5173 -0.3074  0.4911
 7640TIP3    H144335   0.424   1.619  15.142  2.2371 -1.1219  1.3384
 7640TIP3    H244336   0.306   1.651  15.232  0.1913  0.0771 -1.6180
 7641TIP3   OH244337   3.905   3.202  14.910  0.1904 -0.0353  0.3544
 7641TIP3    H144338   3.980   3.187  14.852 -0.7371 -0.1873 -0.8562
 7641TIP3    H244339   3.839   3.243  14.853 -0.7269 -0.1370  1.3196
 7642TIP3   OH244340   6.099   5.772   4.325 -0.0364  0.0482  0.5350
 7642TIP3    H144341   6.060   5.859   4.339  0.3837  0.1562  1.0410
 7642TIP3    H244342   6.193   5.787   4.330  0.0628 -0.2915 -0.2495
 7643TIP3   OH244343   3.185   0.682   0.291 -0.1899  0.2522 -0.5051
 7643TIP3    H144344   3.253   0.723   0.236 -1.0579  0.8823 -1.1353
 7643TIP3    H244345   3.109   0.738   0.280 -0.5365  0.0890  0.9618
 7644TIP3   OH244346   6.300   5.198  15.473 -0.0493 -0.5586 -0.0544
 7644TIP3    H144347   6.331   5.288  15.471  2.1346 -1.2460 -0.0878
 7644TIP3    H244348   6.346   5.156  15.400 -1.1805 -1.6679 -0.1640
 7645TIP3   OH244349   6.428   4.773   5.245 -0.0841 -0.3148  0.2615
 7645TIP3    H144350   6.440   4.695   5.299 -0.6678 -1.2234 -0.8656
 7645TIP3    H244351   6.337   4.799   5.261 -0.8751 -1.6816 -1.5801
 7646TIP3   OH244352   3.635   0.947  15.046 -0.2565  0.6198 -0.4739
 7646TIP3    H144353   3.660   0.962  14.955  0.0706  1.4692 -0.2550
 7646TIP3    H244354   3.649   0.854  15.060  1.0931  0.7387 -0.8887
 7647TIP3   OH244355   6.458   3.113   0.260 -0.3798 -0.8813 -0.4716
 7647TIP3    H144356   6.382   3.107   0.318  1.2589  3.1191  2.5629
 7647TIP3    H244357   6.519   3.049   0.295 -0.9153 -1.4066 -0.4752
 7648TIP3   OH244358   1.289   5.465  13.509  0.6601 -0.0137 -0.4309
 7648TIP3    H144359   1.334   5.419  13.580 -1.8701  0.7075  1.7903
 7648TIP3    H244360   1.303   5.558  13.528  0.4360  0.1884 -1.2391
 7649TIP3   OH244361   1.660   2.396  13.191 -0.2269  0.1922  0.2157
 7649TIP3    H144362   1.686   2.319  13.242 -0.2349  2.0856  3.3225
 7649TIP3    H244363   1.742   2.443  13.175 -0.2697 -0.2000 -1.3314
 7650TIP3   OH244364   3.844   1.078  13.354 -0.8155 -0.0317  0.0025
 7650TIP3    H144365   3.858   1.006  13.292  1.6872 -0.6930  1.1891
 7650TIP3    H244366   3.898   1.149  13.320 -1.7506  0.6279 -0.1201
 7651TIP3   OH244367   4.010   4.287  13.483  0.0129  0.0515  0.1765
 7651TIP3    H144368   4.049   4.366  13.519  0.0617  0.1839 -0.1574
 7651TIP3    H244369   3.960   4.250  13.555  0.5470  0.0160  0.5341
 7652TIP3   OH244370   2.630   0.970   3.705  0.4072 -0.4008 -0.0020
 7652TIP3    H144371   2.629   0.976   3.800  0.3514 -0.7835  0.0243
 7652TIP3    H244372   2.552   1.017   3.676  0.3984 -0.3273  0.1428
 7653TIP3   OH244373   1.474   6.622   6.104 -0.2439  0.0058 -0.2684
 7653TIP3    H144374   1.505   6.653   6.018  0.1392  0.0781 -0.1074
 7653TIP3    H244375   1.513   6.535   6.113  0.6491  0.4467  0.3174
 7654TIP3   OH244376   3.549   1.949  11.547  0.0027 -0.2079 -0.5260
 7654TIP3    H144377   3.570   1.934  11.455  1.5738 -0.8754 -0.0834
 7654TIP3    H244378   3.456   1.973  11.547 -0.2145 -0.9377 -2.2023
 7655TIP3   OH244379   4.505   2.790  10.192 -0.0042 -0.1803  0.0869
 7655TIP3    H144380   4.461   2.706  10.177  2.8062 -1.6109 -0.7223
 7655TIP3    H244381   4.551   2.779  10.275  1.4483  0.0396 -0.6612
 7656TIP3   OH244382   2.629   6.761  15.026 -0.3283  0.0649  0.0045
 7656TIP3    H144383   2.548   6.716  15.050 -0.3241 -0.4978 -0.9717
 7656TIP3    H244384   2.601   6.848  15.000 -0.9757 -0.8425 -2.6233
 7657TIP3   OH244385   0.612   6.551   5.456 -0.6278 -0.1026 -0.5752
 7657TIP3    H144386   0.703   6.580   5.441 -0.3255 -1.3457 -1.3301
 7657TIP3    H244387   0.579   6.531   5.369 -1.5334  0.0084 -0.2700
 7658TIP3   OH244388   1.439   3.589   1.530  0.1367  0.6489  0.0852
 7658TIP3    H144389   1.478   3.504   1.514 -0.5145  0.5720 -1.2213
 7658TIP3    H244390   1.502   3.652   1.495 -0.4997  0.5625 -1.2774
 7659TIP3   OH244391   3.755   6.673   0.413 -0.5222  0.1851 -0.1386
 7659TIP3    H144392   3.791   6.652   0.326  1.0277  0.2916  0.4525
 7659TIP3    H244393   3.832   6.695   0.466 -1.5165  0.8192  1.0757
 7660TIP3   OH244394   3.101   4.070  12.202  0.0933 -0.9376  0.0721
 7660TIP3    H144395   3.025   4.016  12.226 -0.2469 -1.3041 -1.6466
 7660TIP3    H244396   3.063   4.150  12.165  0.5734 -0.5011  0.5060
 7661TIP3   OH244397   2.476   0.418  12.432  0.2406  0.1295  0.3398
 7661TIP3    H144398   2.393   0.414  12.481  1.0477 -0.9239  1.6849
 7661TIP3    H244399   2.463   0.489  12.369 -1.4364  0.4419  0.9870
 7662TIP3   OH244400   3.000   6.539  14.316  0.1520 -0.0985 -0.2916
 7662TIP3    H144401   2.941   6.477  14.274 -0.5826  0.8077 -0.6381
 7662TIP3    H244402   3.065   6.484  14.361 -0.5631 -1.1030 -0.4547
 7663TIP3   OH244403   4.095   3.890  13.533 -0.4011 -0.1381 -0.3639
 7663TIP3    H144404   4.019   3.852  13.488 -0.1696  3.0635 -3.9907
 7663TIP3    H244405   4.169   3.865  13.478  0.4749  0.8847  0.3280
 7664TIP3   OH244406   2.403   3.434  13.059 -1.4499  0.2472 -0.2165
 7664TIP3    H144407   2.471   3.382  13.101 -0.7066  1.5693  0.2916
 7664TIP3    H244408   2.431   3.441  12.967 -1.0054  0.6031 -0.0574
 7665TIP3   OH244409   0.601   5.354  14.704 -0.0624 -0.1461 -0.0748
 7665TIP3    H144410   0.651   5.363  14.623 -0.3282  1.3115 -0.0942
 7665TIP3    H244411   0.606   5.261  14.725  3.1797  0.0074  0.2807
 7666TIP3   OH244412   6.667   4.944   2.397  0.7113  0.4790  0.7178
 7666TIP3    H144413   6.626   4.867   2.360  1.3500  0.9072 -0.9408
 7666TIP3    H244414   6.729   4.910   2.462  1.2086 -0.4310 -0.2128
 7667TIP3   OH244415   5.388   2.245   0.860  0.1265 -0.1834  0.2773
 7667TIP3    H144416   5.295   2.236   0.838 -0.0343  1.5469  0.0735
 7667TIP3    H244417   5.422   2.306   0.793  1.2354 -0.2396  0.7716
 7668TIP3   OH244418   3.449   5.077   3.010 -0.1141 -0.2821 -0.2062
 7668TIP3    H144419   3.367   5.120   2.986  0.3262  0.4501 -0.4386
 7668TIP3    H244420   3.459   5.093   3.103 -0.4178 -0.6876 -0.1034
 7669TIP3   OH244421   2.329   4.057  15.896 -0.6366 -0.1914  0.2570
 7669TIP3    H144422   2.307   4.024  15.984  1.8614  0.6250  1.2743
 7669TIP3    H244423   2.332   4.152  15.906  0.4181 -0.1303 -0.5275
 7670TIP3   OH244424   2.982   0.834   6.274 -0.2606  0.6378  0.3631
 7670TIP3    H144425   3.033   0.781   6.337 -1.7583  1.4480  2.3542
 7670TIP3    H244426   3.048   0.888   6.230  0.7827  0.6378  1.8338
 7671TIP3   OH244427   1.922   1.766  14.977 -0.4417 -0.0719 -0.3393
 7671TIP3    H144428   1.945   1.715  14.899  1.3410  0.6553 -0.3369
 7671TIP3    H244429   1.885   1.847  14.942  1.4557  0.7661 -0.5177
 7672TIP3   OH244430   4.974   0.094  14.284 -0.2059 -0.9165  0.1547
 7672TIP3    H144431   4.982   0.150  14.361  1.9212  0.9119 -1.2513
 7672TIP3    H244432   4.923   0.145  14.222  0.7258 -1.0151 -0.7244
 7673TIP3   OH244433   6.451   3.469  15.991  0.6789  0.0174 -0.4246
 7673TIP3    H144434   6.439   3.376  15.974  0.4276 -0.0075 -0.1214
 7673TIP3    H244435   6.376   3.493  16.047  1.3805  0.1334  0.4908
 7674TIP3   OH244436   2.188   4.975   3.935 -0.3073 -0.1972  0.3911
 7674TIP3    H144437   2.223   4.997   3.849 -0.1548 -3.3908 -0.5075
 7674TIP3    H244438   2.264   4.976   3.993 -0.0465 -0.0086  0.0507
 7675TIP3   OH244439   3.077   2.181  11.590 -0.2637  0.4587  0.1337
 7675TIP3    H144440   3.049   2.166  11.681 -0.7203  2.2218  0.3270
 7675TIP3    H244441   2.995   2.195  11.542  0.0262  0.6400 -0.3092
 7676TIP3   OH244442   0.553   2.333   3.243  0.0385  0.3622 -0.3336
 7676TIP3    H144443   0.594   2.271   3.303 -1.9103 -0.3413  0.3876
 7676TIP3    H244444   0.546   2.286   3.160  1.4842  0.8257 -0.7302
 7677TIP3   OH244445   0.981   2.814   4.309  0.0356  0.7863  0.1878
 7677TIP3    H144446   0.979   2.735   4.255  1.9658  1.4526 -0.9435
 7677TIP3    H244447   0.943   2.882   4.253  0.3739  1.1107  0.3496
 7678TIP3   OH244448   1.601   1.241   3.074 -0.1335  0.2074  0.0335
 7678TIP3    H144449   1.638   1.198   2.996 -0.5437  2.0607 -1.2419
 7678TIP3    H244450   1.673   1.242   3.137  0.2219 -1.2801 -0.3033
 7679TIP3   OH244451   0.717   4.198  13.860  0.1239  0.0762 -0.9612
 7679TIP3    H144452   0.757   4.284  13.844  0.2064  0.0272 -1.0190
 7679TIP3    H244453   0.754   4.170  13.944  0.1572  0.0627 -0.9803
 7680TIP3   OH244454   6.399   1.170   3.116 -0.5728  0.1309 -0.4532
 7680TIP3    H144455   6.405   1.248   3.061 -1.8688 -0.1336 -1.0315
 7680TIP3    H244456   6.414   1.201   3.205  3.8898  0.2101 -1.0248
 7681TIP3   OH244457   1.065   1.180  14.173 -0.5538 -0.1955  0.3581
 7681TIP3    H144458   1.070   1.131  14.255  1.0054  0.4366  0.6864
 7681TIP3    H244459   1.059   1.113  14.106 -2.1075 -0.7174  0.9846
 7682TIP3   OH244460   1.782   5.439  13.084  0.7929 -0.5571  0.0137
 7682TIP3    H144461   1.733   5.487  13.151 -0.0475 -1.8206  0.3468
 7682TIP3    H244462   1.737   5.460  13.002  1.9898  1.2076 -0.2210
 7683TIP3   OH244463   1.042   2.554  10.170  0.9092 -0.3444 -0.0069
 7683TIP3    H144464   1.109   2.622  10.178  0.9658 -0.0967 -2.0392
 7683TIP3    H244465   1.080   2.477  10.212  0.6808  0.9162  2.7090
 7684TIP3   OH244466   1.103   4.115   4.674 -0.1460  0.2274  0.1082
 7684TIP3    H144467   1.104   4.201   4.632  0.7768 -0.0346 -0.4124
 7684TIP3    H244468   1.054   4.060   4.613  0.9544 -0.0847 -0.5185
 7685TIP3   OH244469   1.996   3.428   4.029 -0.1341  0.1292  0.4849
 7685TIP3    H144470   2.013   3.389   3.943 -1.1182  1.4747 -0.3595
 7685TIP3    H244471   2.081   3.427   4.073 -0.0074 -2.4142  0.3256
 7686TIP3   OH244472   5.741   5.959   4.338 -0.0038  0.1343  0.4706
 7686TIP3    H144473   5.730   5.872   4.377 -2.2482 -0.0283 -0.3718
 7686TIP3    H244474   5.679   6.015   4.386 -0.4103  0.6625 -0.6354
 7687TIP3   OH244475   5.988   3.548  14.656 -0.0338 -0.2077 -0.3187
 7687TIP3    H144476   5.955   3.464  14.688  0.8843 -0.6957 -0.6152
 7687TIP3    H244477   5.981   3.606  14.731  0.5724 -0.9087  0.3036
 7688TIP3   OH244478   6.182   3.351  15.284  0.2479 -0.5720  0.7806
 7688TIP3    H144479   6.103   3.332  15.233  0.8636 -0.4113 -0.2541
 7688TIP3    H244480   6.221   3.265  15.301  0.6255 -0.5596  0.0145
 7689TIP3   OH244481   5.299   4.240   5.209  0.1285  0.0428 -0.2741
 7689TIP3    H144482   5.333   4.329   5.212 -0.4534  0.2525  1.4112
 7689TIP3    H244483   5.227   4.240   5.271  0.1917 -1.6313 -0.1517
 7690TIP3   OH244484   1.078   2.400  16.368  0.0467 -0.4893 -0.0404
 7690TIP3    H144485   1.078   2.461  16.294 -2.4133 -0.4266 -0.0824
 7690TIP3    H244486   1.011   2.335  16.345 -1.1651 -0.1887  2.2963
 7691TIP3   OH244487   6.113   5.604  15.216 -0.3480 -0.2631  0.6363
 7691TIP3    H144488   6.041   5.601  15.279 -0.9024  0.6901  0.0733
 7691TIP3    H244489   6.191   5.583  15.267 -0.9243 -0.5056  1.4268
 7692TIP3   OH244490   2.897   1.340   1.761 -0.4178  0.4921  0.1709
 7692TIP3    H144491   2.985   1.374   1.770  0.2257 -1.3481  1.3248
 7692TIP3    H244492   2.902   1.279   1.687 -0.7923  0.6090  0.0470
 7693TIP3   OH244493   0.996   3.288   4.095  0.0693  0.4609  0.3356
 7693TIP3    H144494   1.062   3.339   4.048  0.4449  0.8568  1.2625
 7693TIP3    H244495   0.913   3.311   4.053  0.5360 -0.2893 -1.0554
 7694TIP3   OH244496   4.486   1.221  13.323 -0.0403 -0.0004 -0.1017
 7694TIP3    H144497   4.447   1.259  13.244  0.1707 -0.2556 -0.3301
 7694TIP3    H244498   4.450   1.274  13.395  0.6311  0.9600 -0.4419
 7695TIP3   OH244499   3.759   4.197  12.506 -0.4101  0.7999 -0.4888
 7695TIP3    H144500   3.834   4.203  12.565 -0.6895  1.0511 -0.1548
 7695TIP3    H244501   3.738   4.103  12.503 -1.3670  0.9282  1.0623
 7696TIP3   OH244502   0.128   2.035  16.359  0.1000  0.4089  0.1582
 7696TIP3    H144503   0.180   2.106  16.320 -0.9281  0.5169 -1.1047
 7696TIP3    H244504   0.091   1.989  16.284 -1.4091  0.1808  1.0059
 7697TIP3   OH244505   6.021   2.354  10.895 -0.1056  0.0973 -0.1241
 7697TIP3    H144506   5.959   2.320  10.830  0.5082 -0.6797 -0.3109
 7697TIP3    H244507   6.097   2.381  10.844  0.0034  0.3716  0.1819
 7698TIP3   OH244508   6.679   4.964   3.671  0.1077 -0.9776  0.0301
 7698TIP3    H144509   6.748   4.994   3.730 -0.5617 -0.6675  0.6686
 7698TIP3    H244510   6.601   5.012   3.699 -0.4318 -1.5354 -0.4929
 7699TIP3   OH244511   2.989   2.644  12.858  0.0059 -0.0894  0.3497
 7699TIP3    H144512   2.979   2.617  12.767 -1.1358  0.2393  0.3664
 7699TIP3    H244513   2.941   2.578  12.908 -2.4564  1.6521  0.4229
 7700TIP3   OH244514   4.602   2.072   0.838 -0.0241 -0.1559  0.1475
 7700TIP3    H144515   4.632   2.149   0.790  0.1596 -0.1351  0.3000
 7700TIP3    H244516   4.568   2.106   0.921  2.9111 -0.5129  1.6035
 7701TIP3   OH244517   5.855   3.228   1.172 -0.0918  0.0776 -0.8349
 7701TIP3    H144518   5.881   3.136   1.178 -1.1025 -0.3285 -2.1956
 7701TIP3    H244519   5.769   3.232   1.213  0.6245  0.7603  0.6639
 7702TIP3   OH244520   4.492   2.396   1.197  0.8175 -0.1975 -0.2605
 7702TIP3    H144521   4.400   2.422   1.199  0.9524  0.4629 -1.7634
 7702TIP3    H244522   4.521   2.405   1.288 -1.2994 -3.1574  0.8781
 7703TIP3   OH244523   6.420   3.904   4.244 -0.2193 -0.2878  0.1367
 7703TIP3    H144524   6.395   3.813   4.262 -0.9743 -0.1621 -0.2199
 7703TIP3    H244525   6.511   3.899   4.214 -0.3244 -0.9556 -0.0918
 7704TIP3   OH244526   5.439   1.272   3.696  0.2381 -0.0132 -0.0559
 7704TIP3    H144527   5.359   1.321   3.680  1.3494  2.0243  0.2421
 7704TIP3    H244528   5.456   1.226   3.614 -0.6066  0.4999 -0.5374
 7705TIP3   OH244529   5.421   1.374   1.944  0.2092 -0.2303 -0.7357
 7705TIP3    H144530   5.464   1.290   1.932 -0.0283 -0.2834 -1.2539
 7705TIP3    H244531   5.473   1.436   1.892 -0.8007 -0.4535 -2.0881
 7706TIP3   OH244532   0.702   1.948  13.964  0.1390 -1.0486  1.0819
 7706TIP3    H144533   0.726   2.036  13.936  1.1309 -1.0825  1.8017
 7706TIP3    H244534   0.606   1.947  13.958  0.1622 -0.2087  0.2552
 7707TIP3   OH244535   3.121   4.170   3.758 -0.5283 -0.0766  0.1990
 7707TIP3    H144536   3.045   4.188   3.702 -0.4025 -0.5101 -0.1174
 7707TIP3    H244537   3.124   4.244   3.819 -0.9345  0.1741 -0.0790
 7708TIP3   OH244538   6.006   3.322  11.373 -0.0759  0.2762 -0.4547
 7708TIP3    H144539   6.099   3.342  11.357 -0.1366  1.2808  0.3268
 7708TIP3    H244540   5.960   3.402  11.349 -0.6198  0.1895  0.2584
 7709TIP3   OH244541   0.561   3.935   3.054  0.2475 -0.0113  0.4486
 7709TIP3    H144542   0.531   4.006   3.112 -1.0195  0.5876 -0.8798
 7709TIP3    H244543   0.510   3.859   3.082 -1.7781  0.7224 -1.0207
 7710TIP3   OH244544   4.041   4.203   1.750  0.0534  0.1701 -0.4705
 7710TIP3    H144545   4.091   4.279   1.723  0.4368  0.3691  0.7147
 7710TIP3    H244546   4.089   4.128   1.715  0.2436  0.4362 -0.7731
 7711TIP3   OH244547   0.035   2.855  12.071 -0.0339 -0.7780 -0.1118
 7711TIP3    H144548  -0.054   2.836  12.041  0.0984 -3.4708  0.8936
 7711TIP3    H244549   0.078   2.769  12.074  1.9540  0.1766  1.4648
 7712TIP3   OH244550   1.391   0.093   0.129 -0.2422 -0.1159  0.1438
 7712TIP3    H144551   1.422   0.184   0.131  2.1342 -0.8523  0.0654
 7712TIP3    H244552   1.363   0.076   0.219  1.1558  0.1479  0.6579
 7713TIP3   OH244553   5.851   5.570   1.011  0.4696  0.8906  0.3963
 7713TIP3    H144554   5.808   5.623   0.944 -1.1815  0.0425  0.7239
 7713TIP3    H244555   5.791   5.572   1.085  0.3182 -1.3893  0.4290
 7714TIP3   OH244556   6.694   6.379  11.133 -0.0651  0.0833  0.2526
 7714TIP3    H144557   6.785   6.358  11.109  0.5225  1.2227  1.3165
 7714TIP3    H244558   6.665   6.304  11.185 -0.6938 -1.5165 -2.2593
 7715TIP3   OH244559   1.563   6.643   4.549  0.3924  0.3396 -0.3935
 7715TIP3    H144560   1.571   6.559   4.593  0.1848  2.2112  3.6276
 7715TIP3    H244561   1.469   6.659   4.542  0.4342  0.5063 -0.6195
 7716TIP3   OH244562   1.866   3.644   1.973  0.4172  0.8602  0.4133
 7716TIP3    H144563   1.854   3.688   1.889 -1.4443 -1.3154 -0.5723
 7716TIP3    H244564   1.786   3.661   2.022  1.2756  1.6787  1.5912
 7717TIP3   OH244565   5.727   2.533  16.356 -0.2626 -0.0265 -0.2436
 7717TIP3    H144566   5.721   2.548  16.262 -0.4457  1.1969 -0.0526
 7717TIP3    H244567   5.781   2.605  16.389  0.2368 -0.7313  0.5257
 7718TIP3   OH244568   0.258   4.261  15.534 -0.0086 -0.4013  0.1593
 7718TIP3    H144569   0.323   4.329  15.515  1.7400 -1.8681  0.6199
 7718TIP3    H244570   0.208   4.295  15.608  1.0330  0.2838  0.5712
 7719TIP3   OH244571   1.941   2.540  16.811  0.2561 -0.3951 -0.2633
 7719TIP3    H144572   1.861   2.584  16.781  0.6939 -0.1941 -1.1679
 7719TIP3    H244573   1.973   2.493  16.734  2.1154  1.1872 -0.5452
 7720TIP3   OH244574   3.600   0.226   0.669 -0.0882 -0.3497 -0.3526
 7720TIP3    H144575   3.541   0.301   0.672  1.0118  0.5297 -0.1648
 7720TIP3    H244576   3.645   0.227   0.753  0.4245 -0.8280 -0.6132
 7721TIP3   OH244577   6.317   0.313  14.679  0.4366 -0.4522  0.3678
 7721TIP3    H144578   6.225   0.322  14.707  0.6187  0.1492  0.8048
 7721TIP3    H244579   6.349   0.403  14.676  1.3799 -0.7314  1.4802
 7722TIP3   OH244580   0.356   5.231   4.111  0.3770  0.6318 -0.2442
 7722TIP3    H144581   0.402   5.289   4.171 -2.1764  0.4210  2.1457
 7722TIP3    H244582   0.413   5.155   4.103  2.0890  1.8833 -0.4388
 7723TIP3   OH244583   1.250   0.815  12.410  0.1148  0.3369  0.1793
 7723TIP3    H144584   1.188   0.785  12.477  0.2064 -0.4379 -0.0692
 7723TIP3    H244585   1.281   0.899  12.442  0.2382 -0.0713  1.1657
 7724TIP3   OH244586   4.482   6.211  13.978 -0.4201  0.6559  0.0279
 7724TIP3    H144587   4.476   6.299  14.014  0.4241  0.2649  1.1813
 7724TIP3    H244588   4.561   6.213  13.924 -1.7453  1.2766 -2.0114
 7725TIP3   OH244589   1.066   1.490   2.415 -0.3600 -0.4246 -0.1636
 7725TIP3    H144590   1.085   1.396   2.412  0.0365 -0.4636  1.9077
 7725TIP3    H244591   1.141   1.531   2.373  0.0939 -0.9976  0.0672
 7726TIP3   OH244592   5.171   6.059   5.530  0.2760 -0.1946  0.3888
 7726TIP3    H144593   5.227   6.076   5.606 -1.1779 -1.5399  1.8443
 7726TIP3    H244594   5.160   5.964   5.529 -0.2166 -0.1478 -1.1628
 7727TIP3   OH244595   1.573   5.499  12.923 -0.1845  0.3322 -0.3273
 7727TIP3    H144596   1.639   5.532  12.862  0.0460  1.0426  0.2844
 7727TIP3    H244597   1.531   5.578  12.957 -2.1164 -0.1303 -1.5127
 7728TIP3   OH244598   5.625   2.489  15.558  0.2818  0.2229 -0.6098
 7728TIP3    H144599   5.558   2.496  15.490  1.5284  1.0656 -1.7978
 7728TIP3    H244600   5.686   2.422  15.526  1.4673  1.3945 -0.8843
 7729TIP3   OH244601   0.069   6.252   5.159 -0.1290 -0.3671  0.1859
 7729TIP3    H144602   0.138   6.207   5.207  0.7393  1.5025  0.7438
 7729TIP3    H244603   0.006   6.279   5.226  1.2653  2.5682  0.4347
 7730TIP3   OH244604   2.858   3.997  14.872  0.3139 -0.1039 -0.0528
 7730TIP3    H144605   2.785   4.056  14.855  0.9010  0.4640 -0.7052
 7730TIP3    H244606   2.906   3.993  14.789  1.3780  0.0464  0.5254
 7731TIP3   OH244607   1.026   5.301   4.675  0.5777  0.1483  0.1595
 7731TIP3    H144608   1.038   5.360   4.749  0.0529 -1.2500  1.4103
 7731TIP3    H244609   0.942   5.327   4.637  0.0344 -0.1716  1.1001
 7732TIP3   OH244610   0.836   4.338  14.225  0.0165 -0.1858  0.0341
 7732TIP3    H144611   0.896   4.295  14.286 -0.3686 -0.8950 -0.0782
 7732TIP3    H244612   0.785   4.266  14.187 -2.6653  0.5122  1.9739
 7733TIP3   OH244613   5.460   1.281  13.378 -0.6369  0.1426  0.3198
 7733TIP3    H144614   5.408   1.341  13.324 -1.7457 -0.7641  0.3595
 7733TIP3    H244615   5.402   1.208  13.397  0.9072 -1.3287 -0.3264
 7734TIP3   OH244616   2.333   5.462  15.886  0.4560 -0.2032 -0.2686
 7734TIP3    H144617   2.321   5.533  15.950 -2.5087  0.2414 -1.1307
 7734TIP3    H244618   2.371   5.506  15.810 -0.8895  0.4135 -0.6170
 7735TIP3   OH244619   5.924   5.251   0.256  1.0770 -0.7172  0.0856
 7735TIP3    H144620   6.002   5.206   0.224  0.6679 -0.7810 -0.8583
 7735TIP3    H244621   5.885   5.290   0.178  0.1909 -0.6446  0.5504
 7736TIP3   OH244622   4.598   3.828   2.888  0.0401 -0.4780 -0.6167
 7736TIP3    H144623   4.653   3.882   2.944 -0.8571  0.7643 -0.8716
 7736TIP3    H244624   4.591   3.878   2.807 -0.5124 -1.1648 -1.0025
 7737TIP3   OH244625   4.068   5.709  11.215 -0.0210  0.5271 -0.2359
 7737TIP3    H144626   4.099   5.633  11.264 -3.2937 -1.7086 -1.3443
 7737TIP3    H244627   4.045   5.773  11.283 -2.9582 -1.8872  1.2413
 7738TIP3   OH244628   2.751   0.701  12.321 -0.6708  0.8528  0.2912
 7738TIP3    H144629   2.827   0.745  12.359 -1.3840  2.5754 -0.1743
 7738TIP3    H244630   2.679   0.725  12.379 -1.0091 -0.1690  0.3207
 7739TIP3   OH244631   5.136   3.176  11.645  0.3712  0.3190 -0.3702
 7739TIP3    H144632   5.042   3.189  11.661  0.7556  1.7881  0.9657
 7739TIP3    H244633   5.176   3.185  11.732  1.5941 -2.3279 -0.5700
 7740TIP3   OH244634   6.229   1.342  14.631  0.2472  0.0304 -0.3241
 7740TIP3    H144635   6.234   1.250  14.656 -0.4148  0.4455  1.4786
 7740TIP3    H244636   6.304   1.356  14.573 -0.2629 -1.8754 -1.5374
 7741TIP3   OH244637   4.004   1.489   1.983  0.7787 -0.2662 -0.4246
 7741TIP3    H144638   4.054   1.549   2.038  1.3981 -0.7658 -0.4359
 7741TIP3    H244639   3.943   1.446   2.043 -0.3442  1.0505 -0.5717
 7742TIP3   OH244640   4.824   2.590  13.070 -0.5690  0.2340 -0.0987
 7742TIP3    H144641   4.732   2.594  13.045 -0.6165 -0.5901 -0.0902
 7742TIP3    H244642   4.846   2.497  13.064  0.6146  0.5509 -1.3678
 7743TIP3   OH244643   2.245   5.047  12.884  0.3780  0.3964  0.4224
 7743TIP3    H144644   2.244   5.138  12.912  0.0698  0.6463 -0.3733
 7743TIP3    H244645   2.157   5.015  12.901  0.5586  0.1602  0.9485
 7744TIP3   OH244646   3.172   4.696   5.896 -0.2448 -0.0035  0.1136
 7744TIP3    H144647   3.182   4.780   5.941  0.0551  0.0510 -0.0472
 7744TIP3    H244648   3.259   4.680   5.858 -0.9706  0.8826 -2.0496
 7745TIP3   OH244649   0.506   1.053  12.327  0.7032 -0.0829  0.1641
 7745TIP3    H144650   0.414   1.045  12.354  0.8758  0.2500  0.8936
 7745TIP3    H244651   0.503   1.060  12.232  0.0569 -1.3141  0.0674
 7746TIP3   OH244652   2.452   2.098  16.274 -0.0893 -0.0469 -0.0868
 7746TIP3    H144653   2.488   2.182  16.303 -2.8769  0.8384  1.1452
 7746TIP3    H244654   2.466   2.039  16.348 -0.4249  0.0618  0.0642
 7747TIP3   OH244655   4.811   3.999  14.137  0.6508 -0.3677  0.0769
 7747TIP3    H144656   4.741   4.057  14.169  0.3422 -0.4544 -0.4282
 7747TIP3    H244657   4.871   3.992  14.211  0.0075 -0.4764  0.6016
 7748TIP3   OH244658   5.743   3.926   1.064 -0.5173 -0.1456  0.0483
 7748TIP3    H144659   5.817   3.954   1.010 -1.6846  0.5809 -1.2095
 7748TIP3    H244660   5.685   4.002   1.066 -0.9169 -0.4495  1.6421
 7749TIP3   OH244661   6.581   2.133   5.405 -0.1856 -0.4147 -0.1723
 7749TIP3    H144662   6.572   2.137   5.500 -1.2090  0.0491 -0.2740
 7749TIP3    H244663   6.619   2.218   5.382  0.9669 -0.8927 -0.1045
 7750TIP3   OH244664   6.561   5.398   1.399 -0.1058  0.2647  0.0747
 7750TIP3    H144665   6.526   5.430   1.482 -0.8037  2.3461 -0.9595
 7750TIP3    H244666   6.576   5.477   1.347  0.9998 -0.9360 -1.5251
 7751TIP3   OH244667   5.351   2.982  12.541 -0.6188 -0.3483 -0.0874
 7751TIP3    H144668   5.358   3.036  12.620  0.6240 -0.1937 -0.2791
 7751TIP3    H244669   5.381   2.895  12.569 -1.9977 -0.7942  0.0608
 7752TIP3   OH244670   4.117   5.209  15.803 -0.6662  0.5642 -0.0794
 7752TIP3    H144671   4.126   5.294  15.760  0.1979 -0.0409 -1.1352
 7752TIP3    H244672   4.074   5.154  15.737 -2.1762  0.4257  0.9589
 7753TIP3   OH244673   0.777   2.880   5.901  0.7314 -0.0336 -0.2078
 7753TIP3    H144674   0.842   2.823   5.942  0.4411  0.2125  0.6223
 7753TIP3    H244675   0.695   2.831   5.909  0.7172 -0.0979 -0.7436
 7754TIP3   OH244676   4.503   0.937  10.829  0.1714 -0.0887  0.2373
 7754TIP3    H144677   4.443   0.865  10.812 -0.3882 -0.0100  1.6821
 7754TIP3    H244678   4.589   0.897  10.831  0.1564 -0.2739 -1.4478
 7755TIP3   OH244679   0.918   0.270  11.818  0.1806 -0.4653 -0.2022
 7755TIP3    H144680   0.889   0.251  11.728  1.6738  1.8631 -1.2838
 7755TIP3    H244681   0.983   0.203  11.836  0.2749 -0.6346 -1.0918
 7756TIP3   OH244682   3.150   6.480   5.227 -0.4121 -0.3209 -0.5214
 7756TIP3    H144683   3.228   6.535   5.225  1.1129 -2.1906  1.6360
 7756TIP3    H244684   3.184   6.391   5.221 -2.1390 -1.2932  2.3342
 7757TIP3   OH244685   6.084   0.735   0.541 -0.0116  0.1025 -0.5794
 7757TIP3    H144686   6.060   0.826   0.523 -0.0071  0.1080 -0.5578
 7757TIP3    H244687   6.180   0.736   0.545 -0.0122  0.1002 -0.5602
 7758TIP3   OH244688   1.522   5.575   4.766  0.0116 -0.3410  0.6535
 7758TIP3    H144689   1.516   5.563   4.671  1.8524 -1.3530  0.6210
 7758TIP3    H244690   1.435   5.608   4.791 -0.3842  0.3483 -1.4136
 7759TIP3   OH244691   2.159   3.367  16.774  0.6038 -0.1055 -0.5350
 7759TIP3    H144692   2.156   3.446  16.827  1.8986  0.5008 -1.3116
 7759TIP3    H244693   2.172   3.399  16.684 -1.4784 -1.0924 -1.2681
 7760TIP3   OH244694   1.203   0.374  11.261 -0.0495 -0.2317 -0.6041
 7760TIP3    H144695   1.136   0.347  11.198  0.4152  0.0579 -1.2241
 7760TIP3    H244696   1.279   0.321  11.239  0.4660  0.6661 -1.0042
 7761TIP3   OH244697   2.269   3.029  14.845 -0.7253 -0.3412 -0.6200
 7761TIP3    H144698   2.301   3.115  14.820 -0.5668  0.0736  0.9001
 7761TIP3    H244699   2.290   2.972  14.771 -2.9021  1.3385 -2.6834
 7762TIP3   OH244700   3.202   2.481  12.692  0.3137  0.4451  1.0244
 7762TIP3    H144701   3.208   2.391  12.723  2.4355  0.6864  1.4922
 7762TIP3    H244702   3.221   2.535  12.769 -1.4670  1.3537  0.8833
 7763TIP3   OH244703   3.041   0.860   2.454  0.0762 -0.1881 -0.0021
 7763TIP3    H144704   3.032   0.931   2.517 -0.1358 -0.5708  0.4036
 7763TIP3    H244705   3.108   0.803   2.492  1.4908  0.6426 -1.1284
 7764TIP3   OH244706   5.902   5.059   2.477  0.0560 -0.3254 -0.0019
 7764TIP3    H144707   5.914   5.046   2.383  1.1276  0.4579  0.0143
 7764TIP3    H244708   5.954   4.990   2.518 -1.6852 -1.6958  0.0488
 7765TIP3   OH244709   0.458   3.256   3.337  0.7776  0.3347  0.8959
 7765TIP3    H144710   0.550   3.271   3.315 -0.2877  2.1488 -3.6144
 7765TIP3    H244711   0.410   3.319   3.282 -3.2809 -2.7492  0.3911
 7766TIP3   OH244712   4.008   0.885  12.566 -0.8781  0.7193 -0.1644
 7766TIP3    H144713   3.985   0.792  12.557  1.6877  0.1025 -1.5431
 7766TIP3    H244714   4.032   0.895  12.658 -2.7042  0.4510  0.3712
 7767TIP3   OH244715   3.918   5.965  13.734 -0.0270 -0.2478 -0.2873
 7767TIP3    H144716   3.884   5.905  13.801  1.2114 -0.4824  0.1642
 7767TIP3    H244717   3.922   6.050  13.777  3.2124 -0.8574  0.8999
 7768TIP3   OH244718   1.299   5.148   2.220 -0.0368 -0.1639  0.5276
 7768TIP3    H144719   1.316   5.219   2.282  2.0005 -0.0467 -0.0769
 7768TIP3    H244720   1.214   5.168   2.182  0.2600  1.6789  0.7552
 7769TIP3   OH244721   1.681   0.289  15.596 -0.0530 -0.1645 -0.4118
 7769TIP3    H144722   1.603   0.234  15.604  0.1638 -0.7100 -1.8243
 7769TIP3    H244723   1.753   0.232  15.623  0.1174 -0.4369 -1.4184
 7770TIP3   OH244724   1.227   4.447  16.422  0.4113 -0.5281 -0.2914
 7770TIP3    H144725   1.246   4.468  16.513  2.8830  0.7699 -1.0210
 7770TIP3    H244726   1.286   4.375  16.401  1.2565  0.4143 -1.3210
 7771TIP3   OH244727   4.722   5.856  13.364  0.0935  0.1060  0.2018
 7771TIP3    H144728   4.796   5.806  13.328 -0.0788  0.1232 -0.1844
 7771TIP3    H244729   4.754   5.946  13.368 -0.4572  0.4232 -1.5847
 7772TIP3   OH244730   2.890   0.166   3.491  0.5956  0.2663  0.0714
 7772TIP3    H144731   2.966   0.151   3.548 -0.5854 -0.9685  1.3793
 7772TIP3    H244732   2.881   0.084   3.442 -0.2022  0.2043  0.3096
 7773TIP3   OH244733   6.074   6.321  12.427  0.2087  0.2414  0.2611
 7773TIP3    H144734   6.014   6.390  12.455  0.5098 -0.0309  1.6404
 7773TIP3    H244735   6.056   6.248  12.486  1.3812 -0.1054  0.2222
 7774TIP3   OH244736   1.914   2.737  13.222  0.3316 -0.4960 -0.8095
 7774TIP3    H144737   1.860   2.786  13.285  0.7598 -1.2986  0.2186
 7774TIP3    H244738   1.906   2.786  13.140 -2.8038 -1.1325 -1.0151
 7775TIP3   OH244739   4.343   3.050   3.918  0.5238 -0.3367 -0.2790
 7775TIP3    H144740   4.367   2.974   3.970 -2.6009 -1.2284  0.0467
 7775TIP3    H244741   4.416   3.061   3.857  1.2971 -3.3509 -0.0630
 7776TIP3   OH244742   6.530   0.846  13.994 -0.1055 -0.0124  0.0657
 7776TIP3    H144743   6.473   0.776  14.025  0.7698 -0.5932  0.4298
 7776TIP3    H244744   6.486   0.927  14.020 -0.4362 -0.4580  0.9307
 7777TIP3   OH244745   3.839   0.534  10.229  0.1905 -0.6028 -0.4136
 7777TIP3    H144746   3.911   0.489  10.274  0.2620 -0.0451  0.0381
 7777TIP3    H244747   3.784   0.567  10.300 -1.2023 -2.0816 -0.7317
 7778TIP3   OH244748   5.042   5.562   4.496  0.0083 -0.2300  0.1776
 7778TIP3    H144749   5.063   5.469   4.494 -0.7104 -0.3922 -2.1736
 7778TIP3    H244750   5.033   5.588   4.404  1.9564  2.6099  0.6368
 7779TIP3   OH244751   4.255   1.905  12.274 -0.4367  0.1997  0.7397
 7779TIP3    H144752   4.277   1.952  12.354  0.2307 -0.5306  1.0012
 7779TIP3    H244753   4.217   1.971  12.217 -0.9462  0.7287  1.6624
 7780TIP3   OH244754   6.146   5.364   0.568 -0.1116  0.4883  0.2240
 7780TIP3    H144755   6.217   5.375   0.632 -0.6850 -1.6837  1.2866
 7780TIP3    H244756   6.187   5.317   0.495 -0.1093  0.5698  0.1725
 7781TIP3   OH244757   4.792   4.179   1.544 -0.2396  0.2250 -0.1649
 7781TIP3    H144758   4.828   4.260   1.510  1.4803 -0.6932 -0.6704
 7781TIP3    H244759   4.824   4.174   1.634 -0.9771  0.4525  0.1187
 7782TIP3   OH244760   5.066   1.436   5.839  0.0281  0.1361  0.1120
 7782TIP3    H144761   5.088   1.343   5.849 -1.4336 -0.1623  0.7555
 7782TIP3    H244762   5.027   1.442   5.752  1.4650  0.4533 -0.5463
 7783TIP3   OH244763   0.157   4.928   1.997  0.5133  0.0949 -0.0079
 7783TIP3    H144764   0.163   5.023   1.989 -2.6313  0.3680 -0.3399
 7783TIP3    H244765   0.128   4.913   2.087  1.4000 -0.5814  0.1732
 7784TIP3   OH244766   0.829   0.233  14.893  0.0596 -0.5099  0.5666
 7784TIP3    H144767   0.735   0.246  14.909  0.1590  0.7847  0.1895
 7784TIP3    H244768   0.861   0.194  14.974 -0.7494 -0.6775  0.8194
 7785TIP3   OH244769   4.853   3.636  13.952 -0.2019  0.0782 -0.0877
 7785TIP3    H144770   4.843   3.542  13.934 -2.6000 -0.5821  3.5505
 7785TIP3    H244771   4.765   3.671  13.946  0.0021  1.1944  2.3485
 7786TIP3   OH244772   1.926   4.101   0.924  0.0608  0.1087  0.1933
 7786TIP3    H144773   2.014   4.130   0.948  0.4354 -1.2903  0.6031
 7786TIP3    H244774   1.940   4.022   0.871 -0.9212  0.5330 -0.7275
 7787TIP3   OH244775   2.036   5.235  12.400 -0.3984  0.0079  0.1663
 7787TIP3    H144776   1.968   5.267  12.341  0.3077 -1.6080 -1.6417
 7787TIP3    H244777   2.117   5.240  12.350  0.0549 -2.5143  0.4718
 7788TIP3   OH244778   1.227   3.473  15.267  0.3270 -0.4358  0.0410
 7788TIP3    H144779   1.178   3.510  15.194  0.6893 -0.0497 -0.0067
 7788TIP3    H244780   1.228   3.542  15.333  1.0794 -0.3292 -0.0804
 7789TIP3   OH244781   4.379   2.620  14.935 -0.2378 -0.4021  0.0265
 7789TIP3    H144782   4.427   2.666  14.866 -0.4653  0.4285  0.4090
 7789TIP3    H244783   4.373   2.530  14.904  0.7894 -0.3202 -0.4345
 7790TIP3   OH244784   6.005   6.484  13.229  0.2646  0.5486  0.3248
 7790TIP3    H144785   6.044   6.551  13.285  1.2311 -0.2334  0.6307
 7790TIP3    H244786   5.967   6.420  13.290 -1.1855  1.1032  0.0309
 7791TIP3   OH244787   6.185   5.670  14.813  0.1874 -0.0069  0.1241
 7791TIP3    H144788   6.258   5.641  14.758 -0.5618 -0.8103 -0.4692
 7791TIP3    H244789   6.188   5.613  14.889  0.7938  0.6460  0.6108
 7792TIP3   OH244790   1.879   4.497   0.649 -0.7038  0.2466 -0.3517
 7792TIP3    H144791   1.804   4.471   0.703 -0.5186 -1.3127 -0.8187
 7792TIP3    H244792   1.950   4.439   0.676  0.1961  1.3170 -0.3334
 7793TIP3   OH244793   1.065   4.740   4.110  0.4359 -0.5936 -0.1060
 7793TIP3    H144794   1.033   4.726   4.021 -1.6859 -1.1822  0.6842
 7793TIP3    H244795   1.055   4.655   4.153  2.5990 -0.6471  0.3972
 7794TIP3   OH244796   5.511   1.197   2.985 -0.0369 -0.0066 -0.4879
 7794TIP3    H144797   5.560   1.255   3.043  0.8356 -0.7013 -0.5026
 7794TIP3    H244798   5.461   1.255   2.928  1.2906  0.7384 -0.9172
 7795TIP3   OH244799   2.581   2.842  15.526  0.0606 -0.1432  0.4944
 7795TIP3    H144800   2.531   2.920  15.548  1.0264  0.3511  0.9911
 7795TIP3    H244801   2.652   2.840  15.591  0.0825 -1.3941  0.4456
 7796TIP3   OH244802   5.990   0.726   0.945 -0.3209  0.2890 -0.2707
 7796TIP3    H144803   6.031   0.655   0.995  1.3359  1.1219 -0.3797
 7796TIP3    H244804   5.936   0.681   0.880 -0.1170 -0.8505  0.3211
 7797TIP3   OH244805   2.637   3.847   5.184 -0.2423 -0.4001 -0.2554
 7797TIP3    H144806   2.730   3.831   5.171 -0.4572 -2.0055 -0.0533
 7797TIP3    H244807   2.632   3.888   5.270  0.2781 -0.4612 -0.1922
 7798TIP3   OH244808   0.412   3.554  12.484  0.3595  0.0911 -0.2802
 7798TIP3    H144809   0.322   3.551  12.453  0.2487 -1.8149  0.1103
 7798TIP3    H244810   0.418   3.482  12.547  2.0843  0.3337 -0.1257
 7799TIP3   OH244811   1.817   5.026   3.040 -0.1933 -0.7171  0.5759
 7799TIP3    H144812   1.738   4.988   3.078  1.2691 -2.3849  2.1343
 7799TIP3    H244813   1.878   4.953   3.034  0.4744 -0.0674 -3.0032
 7800TIP3   OH244814   1.059   6.694  17.047 -0.1524 -0.3201  0.4729
 7800TIP3    H144815   0.994   6.627  17.069 -0.4663 -0.5514 -1.0498
 7800TIP3    H244816   1.136   6.644  17.021 -0.0900 -0.0809  0.1997
 7801TIP3   OH244817   1.868   2.717  16.355 -0.1033 -0.5441 -0.2398
 7801TIP3    H144818   1.799   2.729  16.420  1.2048 -1.4460  1.4097
 7801TIP3    H244819   1.821   2.698  16.274 -1.8182 -2.0109  0.9965
 7802TIP3   OH244820   3.449   1.231  14.037 -0.2144 -0.8737 -0.2129
 7802TIP3    H144821   3.544   1.219  14.045 -0.4724 -2.2506  1.4953
 7802TIP3    H244822   3.428   1.199  13.950  0.7202 -2.0307 -0.0408
 7803TIP3   OH244823   2.164   6.309   4.492  0.2945 -0.2210  0.5497
 7803TIP3    H144824   2.183   6.318   4.398  1.0041  0.0113  0.7031
 7803TIP3    H244825   2.070   6.297   4.497 -0.2021  2.5734 -0.0285
 7804TIP3   OH244826   3.603   1.486   0.614  0.0356  0.3431 -0.2105
 7804TIP3    H144827   3.690   1.493   0.573 -0.0943  1.2241 -0.3638
 7804TIP3    H244828   3.583   1.576   0.641 -0.2682 -0.0698  0.9977
 7805TIP3   OH244829   4.401   0.357   0.288 -0.2972 -0.2257 -0.2518
 7805TIP3    H144830   4.449   0.415   0.229 -3.3668  1.2918 -1.4465
 7805TIP3    H244831   4.469   0.303   0.329  2.5739  2.9526 -0.4171
 7806TIP3   OH244832   1.081   1.101  14.448 -0.0419  0.1015  0.0828
 7806TIP3    H144833   1.160   1.156  14.448 -0.3732  0.6348 -1.7528
 7806TIP3    H244834   1.115   1.012  14.463  0.5548  0.6549  2.4485
 7807TIP3   OH244835   0.870   4.930   0.555 -0.2367  0.6172  0.3490
 7807TIP3    H144836   0.775   4.942   0.559 -0.0398  2.7271 -0.3591
 7807TIP3    H244837   0.896   4.921   0.647 -0.9659  1.5899  0.6744
 7808TIP3   OH244838   3.255   3.515  16.556  0.5664 -0.2630  0.1535
 7808TIP3    H144839   3.242   3.465  16.475 -0.0425 -0.5818  0.4449
 7808TIP3    H244840   3.304   3.455  16.613 -0.0352 -0.4720  0.4491
 7809TIP3   OH244841   5.503   0.310   0.610  0.5497  0.1252  0.3382
 7809TIP3    H144842   5.560   0.346   0.678  1.1455  2.6849 -1.3696
 7809TIP3    H244843   5.555   0.316   0.530 -0.1736 -2.7011 -0.4555
 7810TIP3   OH244844   2.005   1.870  13.399 -0.2503 -0.4100 -0.0175
 7810TIP3    H144845   2.058   1.909  13.468  1.9693  0.8489 -2.2868
 7810TIP3    H244846   1.942   1.814  13.446  0.3488  1.2511  3.0284
 7811TIP3   OH244847   3.564   0.846  13.374 -0.3864 -0.0883  0.0865
 7811TIP3    H144848   3.582   0.801  13.292  0.4642  0.2108  0.0985
 7811TIP3    H244849   3.492   0.797  13.414 -1.0272 -0.0549 -0.9763
 7812TIP3   OH244850   3.869   5.984  12.044  0.0846 -0.3661 -0.8289
 7812TIP3    H144851   3.799   5.936  11.999 -0.3137  1.1670 -1.9553
 7812TIP3    H244852   3.917   6.027  11.973  2.0763 -1.2198 -0.0539
 7813TIP3   OH244853   1.420   5.880   4.825 -0.2468 -0.2359  0.3140
 7813TIP3    H144854   1.476   5.908   4.753  0.2524 -1.3241  0.2602
 7813TIP3    H244855   1.479   5.873   4.900 -0.7922  1.0717  0.9078
 7814TIP3   OH244856   0.579   2.871   2.908  0.0644 -0.2105 -0.6560
 7814TIP3    H144857   0.617   2.890   2.994  1.8133  0.3450 -1.4985
 7814TIP3    H244858   0.584   2.954   2.861  0.2053 -0.7781 -1.6661
 7815TIP3   OH244859   6.544   2.382   5.581 -0.7340 -0.3667  0.0112
 7815TIP3    H144860   6.514   2.344   5.664 -1.3711 -0.9003 -0.4561
 7815TIP3    H244861   6.639   2.380   5.587 -0.7613 -1.3291  0.3279
 7816TIP3   OH244862   1.566   5.458   3.175 -0.4147 -0.2840 -0.7710
 7816TIP3    H144863   1.658   5.447   3.148 -0.1277 -0.6889  0.3274
 7816TIP3    H244864   1.544   5.375   3.217 -0.6901  0.4910  0.6684
 7817TIP3   OH244865   6.554   1.634   0.063 -0.5510 -0.1381 -0.4434
 7817TIP3    H144866   6.608   1.582   0.123 -2.0012 -1.1202  0.0776
 7817TIP3    H244867   6.571   1.596  -0.023  2.5517  2.1227 -0.9837
 7818TIP3   OH244868   1.333   3.907  12.767  0.7464  0.0570 -0.2165
 7818TIP3    H144869   1.323   3.994  12.729 -1.7563 -0.0130  0.1382
 7818TIP3    H244870   1.244   3.879  12.789  1.7162 -1.4058  2.3415
 7819TIP3   OH244871   0.964   5.802  11.015  0.5796  0.5121 -0.2986
 7819TIP3    H144872   1.002   5.856  10.945  1.7225 -1.7359 -1.5161
 7819TIP3    H244873   0.998   5.841  11.095  0.4950  2.2268 -1.0507
 7820TIP3   OH244874   0.995   4.472   1.171 -0.4611  0.2240 -0.0261
 7820TIP3    H144875   0.950   4.554   1.149 -0.1943  0.6730  1.0585
 7820TIP3    H244876   1.009   4.429   1.086 -1.5544  0.7926 -0.5162
 7821TIP3   OH244877   4.154   1.317   5.868  0.1397 -0.0824 -0.1715
 7821TIP3    H144878   4.147   1.222   5.869 -1.3235  0.0070  0.2155
 7821TIP3    H244879   4.116   1.346   5.951  0.0662  0.8635 -0.5150
 7822TIP3   OH244880   2.692   4.255  16.643  0.1171 -0.1799  0.1771
 7822TIP3    H144881   2.780   4.232  16.674  0.0021 -0.7906  0.0517
 7822TIP3    H244882   2.650   4.171  16.626 -0.8846  0.0708  1.3058
 7823TIP3   OH244883   2.043   4.874   5.132  0.3220  0.1621  0.1900
 7823TIP3    H144884   2.082   4.960   5.147 -0.4339  0.4271  0.6947
 7823TIP3    H244885   2.050   4.861   5.038 -0.3753  1.1764 -0.0170
 7824TIP3   OH244886   3.724   2.383  11.006  0.7795  0.4365  0.1992
 7824TIP3    H144887   3.720   2.340  10.920 -0.4941  0.5616  0.1761
 7824TIP3    H244888   3.750   2.473  10.986 -0.2424  0.6697 -0.1527
 7825TIP3   OH244889   0.891   3.427  13.949  0.3724 -0.0643 -1.0749
 7825TIP3    H144890   0.952   3.484  13.902  0.4717  1.1854  0.4785
 7825TIP3    H244891   0.831   3.487  13.992  0.3279 -1.1412  0.4418
 7826TIP3   OH244892   4.645   5.471   0.987 -0.2354  0.2645  0.2385
 7826TIP3    H144893   4.734   5.463   0.954 -0.3261 -0.4323  0.1488
 7826TIP3    H244894   4.614   5.555   0.953 -0.1882 -0.2363 -1.1017
 7827TIP3   OH244895   1.596   0.705  15.025 -0.3322  0.0885 -0.1672
 7827TIP3    H144896   1.662   0.666  15.082  0.0740  0.8954 -0.0660
 7827TIP3    H244897   1.514   0.699  15.074 -0.2205 -0.3530 -0.0321
 7828TIP3   OH244898   6.746   1.855  10.862 -0.0269 -0.1062  0.2627
 7828TIP3    H144899   6.841   1.857  10.873  0.1155  2.9771 -0.6811
 7828TIP3    H244900   6.732   1.817  10.776  0.4185  0.1410  0.0785
 7829TIP3   OH244901   4.700   6.015  12.543  0.0849  0.0626 -0.5080
 7829TIP3    H144902   4.712   5.929  12.502  0.0247  0.4883 -1.4398
 7829TIP3    H244903   4.606   6.031  12.540 -0.0074 -0.1971  0.4469
 7830TIP3   OH244904   0.663   3.366  14.885 -0.5605  0.7151 -0.1994
 7830TIP3    H144905   0.585   3.411  14.853 -0.9400  1.3713  1.5172
 7830TIP3    H244906   0.719   3.435  14.919 -0.2869  0.0675  0.7196
 7831TIP3   OH244907   3.126   4.344  14.736 -0.4157 -0.5617 -0.0265
 7831TIP3    H144908   3.149   4.422  14.786 -1.2931 -2.5871  3.9618
 7831TIP3    H244909   3.101   4.377  14.650  1.8361  3.1910  0.5270
 7832TIP3   OH244910   2.951   3.592  12.657  0.5491  0.3647 -0.3339
 7832TIP3    H144911   3.017   3.606  12.589 -0.2837  1.5140 -0.9429
 7832TIP3    H244912   2.955   3.499  12.675  2.4389  0.4361 -0.2407
 7833TIP3   OH244913   5.811   0.307   4.225  0.1044  0.2913 -0.4092
 7833TIP3    H144914   5.800   0.350   4.140  1.6621  2.3928  0.3580
 7833TIP3    H244915   5.869   0.233   4.207  0.5554  0.8152 -1.1657
 7834TIP3   OH244916   1.486   6.605  16.482  0.5259  0.7983 -0.2080
 7834TIP3    H144917   1.487   6.548  16.559 -0.1762 -0.9393 -1.4311
 7834TIP3    H244918   1.576   6.638  16.476  1.5774 -1.8851 -0.6480
 7835TIP3   OH244919   5.950   6.308   5.043  0.4449 -0.4598 -0.3152
 7835TIP3    H144920   5.901   6.369   5.099  0.8654  0.2947 -0.7517
 7835TIP3    H244921   5.890   6.235   5.030  0.9325 -1.4678  2.4803
 7836TIP3   OH244922   1.329   6.423   0.289  0.1540 -0.2628  0.0871
 7836TIP3    H144923   1.236   6.426   0.267 -0.1635 -2.3002  0.9818
 7836TIP3    H244924   1.347   6.509   0.328 -1.3752  0.1061  0.0479
 7837TIP3   OH244925   3.213   1.970   2.844 -0.6173 -0.0347 -0.0306
 7837TIP3    H144926   3.224   1.939   2.934  0.9889 -0.5541 -0.3627
 7837TIP3    H244927   3.301   1.998   2.817 -1.3364  1.4338 -0.9824
 7838TIP3   OH244928   6.661   2.386  10.551  0.2872 -0.1010 -0.5941
 7838TIP3    H144929   6.626   2.304  10.515  0.0109 -0.3056  0.1277
 7838TIP3    H244930   6.620   2.394  10.637  0.0931  0.9546 -0.7808
 7839TIP3   OH244931   5.300   5.944  11.770 -0.5343 -0.2290  0.0608
 7839TIP3    H144932   5.315   6.038  11.759 -0.9086  0.1742  2.3878
 7839TIP3    H244933   5.282   5.912  11.682 -0.9184  1.9850 -0.7349
 7840TIP3   OH244934   5.797   1.424  15.343  0.1181 -1.3320  0.3011
 7840TIP3    H144935   5.827   1.489  15.405  1.4111  0.7111 -2.2584
 7840TIP3    H244936   5.701   1.425  15.350 -0.4926  4.4258 -2.6049
 7841TIP3   OH244937   2.586   2.581   3.672 -0.3029  0.2980 -0.3576
 7841TIP3    H144938   2.602   2.525   3.748 -1.3090  0.7734  0.2141
 7841TIP3    H244939   2.550   2.523   3.606  0.6332 -0.1308 -0.5136
 7842TIP3   OH244940   1.442   2.563   0.031  0.1544 -0.1535 -0.1860
 7842TIP3    H144941   1.484   2.519  -0.043 -1.0268  0.1557 -1.0658
 7842TIP3    H244942   1.354   2.526   0.034 -0.6155  1.5885 -0.4634
 7843TIP3   OH244943   1.961   5.902   1.340 -0.5091  0.7643 -0.0541
 7843TIP3    H144944   1.913   5.824   1.312 -0.7229  1.1182 -0.6996
 7843TIP3    H244945   1.900   5.974   1.326  0.5295  1.3557 -1.8485
 7844TIP3   OH244946   3.063   0.279   4.945 -0.2170  0.2172 -0.1991
 7844TIP3    H144947   3.143   0.331   4.935 -1.0072  1.3190 -0.9763
 7844TIP3    H244948   3.089   0.190   4.920  0.3834  0.8797 -2.0504
 7845TIP3   OH244949   0.854   3.701   0.906  0.1302  0.8794  0.5529
 7845TIP3    H144950   0.860   3.652   0.988  1.0820  0.0271 -0.0078
 7845TIP3    H244951   0.836   3.791   0.934  0.4007  0.6026  1.6900
 7846TIP3   OH244952   3.989   3.590   0.762  0.4444 -0.1933 -0.2809
 7846TIP3    H144953   3.908   3.623   0.801  0.1294 -0.8272 -0.3928
 7846TIP3    H244954   3.972   3.497   0.747  0.0596  0.2622 -3.1387
 7847TIP3   OH244955   1.408   5.531  11.637  0.0522 -0.5027 -0.0545
 7847TIP3    H144956   1.314   5.546  11.628  0.4448  1.4571 -1.5545
 7847TIP3    H244957   1.430   5.471  11.566 -0.3203 -2.5622  1.4821
 7848TIP3   OH244958   2.755   0.243   4.893  0.0261  0.2224  0.5575
 7848TIP3    H144959   2.703   0.163   4.894 -0.8460  0.7593  0.2310
 7848TIP3    H244960   2.813   0.233   4.818  0.0697 -0.1950  0.6464
 7849TIP3   OH244961   5.218   0.209  16.677 -0.1648  0.5402  0.6077
 7849TIP3    H144962   5.204   0.249  16.762  0.1730  0.0486  0.8997
 7849TIP3    H244963   5.299   0.158  16.687 -0.7712 -0.5080  0.3581
 7850TIP3   OH244964   0.992   3.260  12.160 -0.2922 -0.0859  0.2899
 7850TIP3    H144965   0.929   3.251  12.231 -1.3546 -0.7900 -0.7124
 7850TIP3    H244966   1.017   3.170  12.138  0.4159  0.1459  0.0972
 7851TIP3   OH244967   4.968   0.459   1.994  0.1918 -0.0220  0.5128
 7851TIP3    H144968   4.988   0.534   1.938 -0.1872  0.8256  1.4813
 7851TIP3    H244969   4.900   0.412   1.947  0.6622  0.0508 -0.2614
 7852TIP3   OH244970   3.530   5.529   5.388  0.2996 -0.0348  0.5239
 7852TIP3    H144971   3.444   5.488   5.387 -0.1625  0.6791 -2.9234
 7852TIP3    H244972   3.513   5.623   5.387  1.1467  0.1308  0.4657
 7853TIP3   OH244973   0.373   5.219  13.254 -0.1942 -0.3408  0.1018
 7853TIP3    H144974   0.399   5.140  13.207  0.2913 -0.4789  0.5870
 7853TIP3    H244975   0.435   5.286  13.225 -0.0404 -0.3686  0.3555
 7854TIP3   OH244976   2.014   1.698  10.258  0.1402  0.2628  0.2138
 7854TIP3    H144977   2.008   1.681  10.164 -1.3401 -0.8242  0.4586
 7854TIP3    H244978   2.071   1.629  10.292 -0.7221 -0.4036  0.3341
 7855TIP3   OH244979   1.996   3.859  12.136  0.1569  0.2815 -0.1299
 7855TIP3    H144980   1.911   3.842  12.175  0.0949 -2.0940 -1.1178
 7855TIP3    H244981   2.040   3.774  12.137  1.3165  0.7692 -2.3981
 7856TIP3   OH244982   0.212   0.234   3.442  0.3855 -0.2864  0.7369
 7856TIP3    H144983   0.301   0.211   3.414  0.2718  0.4555 -0.2995
 7856TIP3    H244984   0.224   0.306   3.503  0.4274  1.1342 -0.8869
 7857TIP3   OH244985   2.952   6.349  14.565 -0.5649 -0.0764  0.1661
 7857TIP3    H144986   2.997   6.268  14.544  0.1133  0.5668 -0.9443
 7857TIP3    H244987   2.859   6.328  14.556 -0.3993 -0.7381 -0.0606
 7858TIP3   OH244988   5.665   5.715   0.755  0.3022 -0.4907 -0.2940
 7858TIP3    H144989   5.721   5.776   0.802  0.2124  0.9637 -1.9939
 7858TIP3    H244990   5.579   5.725   0.796 -0.2935  2.3081 -1.9479
 7859TIP3   OH244991   3.418   6.092  11.526  0.0615 -0.0914  0.6875
 7859TIP3    H144992   3.429   6.130  11.613  0.1700  1.1009  0.1618
 7859TIP3    H244993   3.373   6.159  11.475 -2.1941 -1.6730  0.4459
 7860TIP3   OH244994   6.020   1.660   0.931  0.8038  0.2790  0.7878
 7860TIP3    H144995   6.055   1.744   0.960  0.0684  0.9867 -0.3046
 7860TIP3    H244996   6.097   1.605   0.916  1.3048  0.8598  1.2131
 7861TIP3   OH244997   5.088   4.798   2.232 -0.3151  0.9811 -0.3059
 7861TIP3    H144998   5.071   4.860   2.161  0.3856  0.8745 -0.5765
 7861TIP3    H244999   5.140   4.848   2.295  0.9941  0.4625 -0.9173
 7862TIP3   OH245000   0.085   0.932   1.135  0.9663  0.3066 -0.3111
 7862TIP3    H145001   0.175   0.950   1.161  0.7904 -0.5849  0.9548
 7862TIP3    H245002   0.071   0.991   1.060  1.4234  3.1137  1.6428
 7863TIP3   OH245003   1.341   4.748   4.881  0.1781  0.3438 -0.9872
 7863TIP3    H145004   1.418   4.712   4.837  0.1856 -0.7421 -0.1052
 7863TIP3    H245005   1.267   4.702   4.841  0.0285  0.8527 -1.3083
 7864TIP3   OH245006   2.171   3.467  11.687  0.1669  0.4556 -0.4442
 7864TIP3    H145007   2.101   3.485  11.625 -0.8758 -2.1590 -0.1522
 7864TIP3    H245008   2.157   3.529  11.759 -0.8876  0.9922 -1.1022
 7865TIP3   OH245009   3.193   0.836  16.438 -0.2880  0.1998 -0.3343
 7865TIP3    H145010   3.182   0.798  16.350  0.4403  0.9770 -0.7682
 7865TIP3    H245011   3.281   0.875  16.437 -0.2831  0.2473  0.7329
 7866TIP3   OH245012   0.234   0.359  16.048  0.8773 -0.2357 -0.1301
 7866TIP3    H145013   0.278   0.435  16.011 -0.0889  1.2868  1.6706
 7866TIP3    H245014   0.167   0.337  15.983  0.5903  1.0322 -0.3043
 7867TIP3   OH245015   3.725   6.532   0.653  0.0285 -0.6414 -0.0902
 7867TIP3    H145016   3.798   6.569   0.702 -0.5174 -0.7521  0.8277
 7867TIP3    H245017   3.733   6.570   0.566  0.2356  0.6336  0.4647
 7868TIP3   OH245018   0.896   2.821  13.164  0.2588  0.4094  0.0063
 7868TIP3    H145019   0.923   2.741  13.118 -0.8156 -0.8181  1.4070
 7868TIP3    H245020   0.836   2.790  13.232 -1.2400  2.5668 -0.2584
 7869TIP3   OH245021   2.331   2.529   3.221  0.0064  0.2105 -0.1751
 7869TIP3    H145022   2.416   2.496   3.190  0.2486  1.1534 -0.5360
 7869TIP3    H245023   2.268   2.497   3.157  0.2462  0.5026 -0.5570
 7870TIP3   OH245024   4.619   4.456  15.130 -0.3940 -0.2810  0.0583
 7870TIP3    H145025   4.608   4.515  15.056 -1.4068 -0.3193  0.1731
 7870TIP3    H245026   4.572   4.498  15.202  0.8624 -0.0753  0.7910
 7871TIP3   OH245027   1.820   0.314   2.090 -0.1822 -0.0453 -0.0256
 7871TIP3    H145028   1.846   0.254   2.160 -2.1818  0.0449  0.8609
 7871TIP3    H245029   1.902   0.350   2.057  1.1800 -3.5746 -0.9251
 7872TIP3   OH245030   1.459   2.210   4.672 -0.3894 -0.1043 -0.1607
 7872TIP3    H145031   1.545   2.253   4.662 -0.8584  0.7486 -0.6188
 7872TIP3    H245032   1.450   2.157   4.594 -1.4399  1.9221 -1.4991
 7873TIP3   OH245033   6.543   3.139   0.672 -0.4488  0.1136  0.0170
 7873TIP3    H145034   6.549   3.213   0.611  0.2986 -0.7580 -1.0186
 7873TIP3    H245035   6.510   3.067   0.618 -0.1048 -0.5885  0.7295
 7874TIP3   OH245036   4.552   3.240  11.226  0.1068 -0.2799 -0.7970
 7874TIP3    H145037   4.485   3.171  11.227  2.7725 -3.3149  3.3258
 7874TIP3    H245038   4.529   3.297  11.300  1.2403 -0.5055 -0.2527
 7875TIP3   OH245039   0.364   1.225   3.817 -0.1452  0.4502  0.4696
 7875TIP3    H145040   0.363   1.220   3.912  0.2865  1.9608  0.5838
 7875TIP3    H245041   0.457   1.235   3.794 -0.2456  0.1123 -0.1116
 7876TIP3   OH245042   1.014   6.451   0.708  0.6902 -0.0657  0.0917
 7876TIP3    H145043   0.951   6.408   0.766 -0.3277 -1.0515 -1.6739
 7876TIP3    H245044   1.091   6.466   0.763 -0.1847 -1.0548  1.6593
 7877TIP3   OH245045   2.509   0.760   1.407  0.3729  0.3187  0.4944
 7877TIP3    H145046   2.439   0.755   1.473  1.2891 -2.8853  1.4032
 7877TIP3    H245047   2.466   0.735   1.325 -0.0016  0.5487  0.6200
 7878TIP3   OH245048   5.288   3.084   2.043 -0.7750 -0.2792 -0.1638
 7878TIP3    H145049   5.315   3.125   2.126 -1.9859  0.9814 -0.3557
 7878TIP3    H245050   5.369   3.046   2.008 -0.3370 -1.4800  1.9122
 7879TIP3   OH245051   5.906   3.430   4.706 -0.3095  0.9405  0.7367
 7879TIP3    H145052   5.959   3.509   4.706 -0.9745  1.4061 -0.1373
 7879TIP3    H245053   5.961   3.364   4.664 -0.4980  1.4911 -0.4209
 7880TIP3   OH245054   1.343   3.878   4.788 -0.0390  0.3130  0.0508
 7880TIP3    H145055   1.259   3.894   4.746  0.7242  1.0537 -1.2783
 7880TIP3    H245056   1.346   3.784   4.803 -1.4804  0.3950  0.9932
 7881TIP3   OH245057   1.967   5.457  11.709 -0.0599 -0.1674 -0.3972
 7881TIP3    H145058   2.022   5.381  11.728 -0.0185 -0.4630 -1.6784
 7881TIP3    H245059   2.003   5.526  11.765  0.2668 -0.9180  0.3460
 7882TIP3   OH245060   5.333   4.288   4.144  0.1385  0.4242  0.7794
 7882TIP3    H145061   5.276   4.363   4.161 -1.0318 -0.2737  0.1156
 7882TIP3    H245062   5.394   4.318   4.077 -1.8279  0.1824 -1.2912
 7883TIP3   OH245063   1.333   6.174   0.416  0.6243  0.0135  0.2123
 7883TIP3    H145064   1.331   6.260   0.373 -0.1373  0.5289  1.2436
 7883TIP3    H245065   1.425   6.162   0.442  0.6908  0.6183  0.2609
 7884TIP3   OH245066   1.735   6.329   1.360 -0.1011 -0.3683  0.8888
 7884TIP3    H145067   1.754   6.420   1.338 -4.1406  1.0378  2.2547
 7884TIP3    H245068   1.760   6.322   1.452 -0.6215 -0.3335  1.0353
 7885TIP3   OH245069   0.604   3.169   5.495 -0.1541  0.7204 -0.0152
 7885TIP3    H145070   0.622   3.089   5.545  0.7939  1.2877  0.5796
 7885TIP3    H245071   0.687   3.188   5.450 -0.0723  1.8721  0.5847
 7886TIP3   OH245072   5.586   3.739   2.293  0.8480 -0.2602 -0.0442
 7886TIP3    H145073   5.602   3.707   2.204 -2.8847 -1.2355 -0.5208
 7886TIP3    H245074   5.521   3.808   2.283 -0.3059 -0.9792  1.9626
 7887TIP3   OH245075   5.460   0.237   3.057 -0.8800  0.1954  0.5402
 7887TIP3    H145076   5.406   0.303   3.012 -1.3498  0.2209  1.1350
 7887TIP3    H245077   5.401   0.163   3.069 -1.3451  0.8529  2.7506
 7888TIP3   OH245078   0.710   4.739   0.908 -0.3507 -0.0300  0.3061
 7888TIP3    H145079   0.704   4.644   0.913  1.3360 -0.0999  1.7193
 7888TIP3    H245080   0.622   4.767   0.883 -0.4676 -2.0350 -1.9167
 7889TIP3   OH245081   3.254   4.666  16.055 -0.2346 -0.1514  0.4057
 7889TIP3    H145082   3.208   4.598  16.006 -1.4723  0.4246  0.7361
 7889TIP3    H245083   3.191   4.737  16.064 -0.0846 -0.2361  2.8725
 7890TIP3   OH245084   4.076   2.578   4.486 -0.3805 -0.4475 -0.3309
 7890TIP3    H145085   4.147   2.641   4.471 -0.7814  0.1088  0.0683
 7890TIP3    H245086   4.055   2.545   4.399  0.7946 -1.0926 -0.3901
 7891TIP3   OH245087   4.183   2.519  12.507  0.2886 -0.2699  0.2977
 7891TIP3    H145088   4.222   2.601  12.477 -1.3074 -0.1139 -1.6157
 7891TIP3    H245089   4.201   2.515  12.600 -0.8994  3.0638  0.8014
 7892TIP3   OH245090   3.577   6.803  16.371 -0.0315 -0.1084  0.0899
 7892TIP3    H145091   3.671   6.791  16.353  0.2375 -0.0960  1.3728
 7892TIP3    H245092   3.549   6.868  16.306  0.8733 -0.0098 -0.2305
 7893TIP3   OH245093   3.679   3.383  11.914 -0.3913  0.0776  0.2528
 7893TIP3    H145094   3.724   3.350  11.992 -0.0873  0.1414  0.1073
 7893TIP3    H245095   3.637   3.307  11.876 -0.3297 -0.0017  0.3431
 7894TIP3   OH245096   5.482   4.737  12.096 -0.1351 -0.2547 -0.4220
 7894TIP3    H145097   5.537   4.816  12.088  0.4596 -0.6936 -0.7956
 7894TIP3    H245098   5.395   4.770  12.117  0.6854  0.3889  2.3026
 7895TIP3   OH245099   0.971   4.679  11.454  0.3314 -0.2634  0.6097
 7895TIP3    H145100   1.035   4.685  11.383 -1.4984  0.6258 -1.0569
 7895TIP3    H245101   0.984   4.759  11.506  0.7644 -0.2453  0.4745
 7896TIP3   OH245102   4.981   2.465  15.731 -0.4997 -0.2268  0.4704
 7896TIP3    H145103   4.916   2.502  15.789 -0.8761 -1.2750  0.7388
 7896TIP3    H245104   4.932   2.439  15.653  0.0946  1.7469 -0.6341
 7897TIP3   OH245105   4.343   0.323  14.534 -0.2982  0.1189  0.0660
 7897TIP3    H145106   4.333   0.231  14.509 -2.0719  0.0119  1.0428
 7897TIP3    H245107   4.260   0.347  14.574  0.2661  2.0560  0.2029
 7898TIP3   OH245108   6.441   1.459   1.003  0.0217 -0.0297  0.1818
 7898TIP3    H145109   6.434   1.500   1.089  1.7902 -0.5585  0.6122
 7898TIP3    H245110   6.352   1.432   0.982 -0.4528  0.2151  1.7904
 7899TIP3   OH245111   4.207   1.286   4.521 -0.2037 -0.4249 -0.1096
 7899TIP3    H145112   4.210   1.199   4.481  2.5201 -0.7640  0.6689
 7899TIP3    H245113   4.236   1.345   4.452 -1.7537 -0.1195 -0.5400
 7900TIP3   OH245114   0.949   2.795  11.987  0.7607 -0.2939 -0.2184
 7900TIP3    H145115   1.006   2.795  12.063  0.6439  0.4922 -0.1180
 7900TIP3    H245116   1.008   2.787  11.912  0.8765 -1.0507 -0.0460
 7901TIP3   OH245117   5.906   3.762  10.523  0.1677 -0.2060  0.3084
 7901TIP3    H145118   5.997   3.786  10.540  0.4177 -1.7120  1.3350
 7901TIP3    H245119   5.911   3.670  10.496 -1.1010 -0.4902  0.9749
 7902TIP3   OH245120   5.343   1.373  15.760 -0.2993  0.4052  0.1675
 7902TIP3    H145121   5.339   1.278  15.765  0.6721  0.1096 -2.8651
 7902TIP3    H245122   5.426   1.391  15.716 -1.2896  2.5635 -0.9400
 7903TIP3   OH245123   0.388   5.801  12.357 -0.5445  0.2143 -0.6561
 7903TIP3    H145124   0.385   5.710  12.388  1.4449  0.4019  0.2704
 7903TIP3    H245125   0.329   5.848  12.416  0.7762  0.0052  0.9313
 7904TIP3   OH245126   3.139   0.165   3.698 -0.0678 -0.2052 -0.0906
 7904TIP3    H145127   3.109   0.246   3.738 -0.1137 -0.8346  1.1995
 7904TIP3    H245128   3.190   0.121   3.766 -0.8629 -1.7096 -0.4045
 7905TIP3   OH245129   0.139   4.047   3.926  0.5742 -0.0182 -0.2686
 7905TIP3    H145130   0.203   3.981   3.953  1.1428  0.5209 -0.2595
 7905TIP3    H245131   0.161   4.124   3.978  0.1303  0.2786 -0.5135
 7906TIP3   OH245132   0.385   0.964  12.603  0.2211  0.1572 -0.3280
 7906TIP3    H145133   0.333   1.019  12.545 -0.1553 -0.4009 -0.5348
 7906TIP3    H245134   0.465   1.013  12.618  0.7862 -0.1496 -2.1869
 7907TIP3   OH245135   4.589   3.106   1.430 -0.1931  0.3565 -0.3213
 7907TIP3    H145136   4.624   3.073   1.513  0.2652  0.0613 -0.6260
 7907TIP3    H245137   4.666   3.119   1.375 -0.6217 -3.8805 -2.3307
 7908TIP3   OH245138   2.930   0.330   4.340 -0.6577 -0.1750 -0.3922
 7908TIP3    H145139   2.993   0.397   4.313  0.3588 -0.7701  0.4274
 7908TIP3    H245140   2.899   0.293   4.258 -0.2985  0.4461 -0.8239
 7909TIP3   OH245141   4.777   0.738   1.369 -0.3423  0.1709  0.3384
 7909TIP3    H145142   4.820   0.722   1.285  1.1238 -1.7740  1.3708
 7909TIP3    H245143   4.697   0.686   1.367 -1.0087  1.1810 -0.3171
 7910TIP3   OH245144   3.190   0.106  13.683  0.1723 -0.4404 -0.6167
 7910TIP3    H145145   3.250   0.161  13.632 -1.0429  0.9971 -0.5747
 7910TIP3    H245146   3.112   0.099  13.628 -1.0636  0.9070  0.8444
 7911TIP3   OH245147   4.810   2.785   0.182 -0.6083  0.1566 -0.0833
 7911TIP3    H145148   4.789   2.721   0.250  0.2052  0.4771  0.4770
 7911TIP3    H245149   4.871   2.740   0.124  1.1621  0.8567  1.1373
 7912TIP3   OH245150   3.155   6.118   0.276  0.0651  0.4585 -0.2604
 7912TIP3    H145151   3.227   6.168   0.315 -0.5686  0.1409  1.3594
 7912TIP3    H245152   3.164   6.030   0.312 -0.2609  0.0209 -1.2200
 7913TIP3   OH245153   5.884   1.260  14.681 -0.1494  0.0793  0.0849
 7913TIP3    H145154   5.826   1.236  14.608  0.3115  0.1069 -0.2953
 7913TIP3    H245155   5.931   1.179  14.701 -0.5958 -0.0460  0.6572
 7914TIP3   OH245156   6.141   5.192  16.366  0.1753  0.2520 -0.6648
 7914TIP3    H145157   6.147   5.275  16.319 -1.0843  0.1675 -1.0010
 7914TIP3    H245158   6.195   5.132  16.316  2.8784  1.3233  0.7342
 7915TIP3   OH245159   5.815   4.230  14.323  0.5563 -0.0482 -0.1783
 7915TIP3    H145160   5.733   4.184  14.306  1.7640 -2.8327  0.9961
 7915TIP3    H245161   5.788   4.319  14.346 -2.0245 -0.5473 -1.0258
 7916TIP3   OH245162   6.065   4.614  16.419 -0.3641 -0.0353 -0.0916
 7916TIP3    H145163   5.989   4.562  16.395 -1.6977  1.6829  0.2004
 7916TIP3    H245164   6.125   4.605  16.345 -0.9928 -1.1474 -0.4812
 7917TIP3   OH245165   3.510   5.186  17.058 -0.1305 -0.6127  0.0619
 7917TIP3    H145166   3.457   5.169  17.135 -0.4071  2.9258  0.8176
 7917TIP3    H245167   3.591   5.224  17.092  0.2668 -0.1729 -1.2966
 7918TIP3   OH245168   2.168   4.541   2.124 -0.4170  0.3690  0.1666
 7918TIP3    H145169   2.140   4.450   2.112 -0.3340  0.4129 -0.3985
 7918TIP3    H245170   2.260   4.542   2.097  0.8452 -0.2068  3.9355
 7919TIP3   OH245171   3.398   6.764   4.819 -0.7184 -0.6259  0.4045
 7919TIP3    H145172   3.399   6.847   4.772 -2.6624 -0.8054 -0.0214
 7919TIP3    H245173   3.490   6.749   4.842  0.3084 -0.3351 -2.9609
 7920TIP3   OH245174   1.110   3.709   4.569  0.2481 -0.8822 -0.1307
 7920TIP3    H145175   1.197   3.668   4.561  0.2742 -1.1179  1.1772
 7920TIP3    H245176   1.049   3.637   4.556  0.2472 -0.8365 -0.3981
 7921TIP3   OH245177   6.348   3.096  12.146 -0.0731  0.2936 -0.0626
 7921TIP3    H145178   6.360   3.027  12.080  0.6561 -0.1113  0.4810
 7921TIP3    H245179   6.391   3.062  12.224 -1.4817  0.5072  0.8182
 7922TIP3   OH245180   6.486   3.026  12.373  0.1849 -0.7533  0.4962
 7922TIP3    H145181   6.572   2.994  12.398  1.1456  2.0860  1.2857
 7922TIP3    H245182   6.429   2.949  12.375  2.4157 -2.4761  1.2308
 7923TIP3   OH245183   0.379   6.599  13.592 -0.2179 -0.1269  0.5938
 7923TIP3    H145184   0.452   6.549  13.628  0.2165 -0.2226 -0.3717
 7923TIP3    H245185   0.382   6.581  13.498 -0.6918  0.8896  0.3679
 7924TIP3   OH245186   1.611   5.007  16.442 -0.2433  0.7511 -0.0208
 7924TIP3    H145187   1.590   5.066  16.514 -1.2845  0.1703  0.1859
 7924TIP3    H245188   1.687   4.958  16.472 -1.8649 -0.9204  1.5983
 7925TIP3   OH245189   0.492   5.903  12.923 -0.0314  0.1653 -0.0109
 7925TIP3    H145190   0.502   5.854  13.005  1.2646  0.0632 -0.2054
 7925TIP3    H245191   0.412   5.954  12.935  0.3621  0.4857  1.5027
 7926TIP3   OH245192   6.560   6.705  13.026  0.0995  0.1137 -0.1724
 7926TIP3    H145193   6.471   6.674  13.043 -0.1465 -0.0245 -1.5318
 7926TIP3    H245194   6.585   6.754  13.104 -1.7830  1.4941 -0.3759
 7927TIP3   OH245195   5.460   3.828  13.782  0.4910 -0.0222 -0.3226
 7927TIP3    H145196   5.383   3.772  13.771 -0.5522  1.0231  1.1966
 7927TIP3    H245197   5.441   3.905  13.729  1.0933 -0.3248 -0.9794
 7928TIP3   OH245198   5.347   4.983  14.836 -0.0493 -0.1105 -0.2495
 7928TIP3    H145199   5.348   4.924  14.760 -2.8764  0.6407 -0.9865
 7928TIP3    H245200   5.254   4.991  14.859  0.6765 -0.6848  3.6725
 7929TIP3   OH245201   3.824   5.318   2.867 -0.2514 -0.0570  0.3805
 7929TIP3    H145202   3.907   5.284   2.900  0.2062  1.4525  0.8813
 7929TIP3    H245203   3.793   5.376   2.936 -1.8091 -0.6888  0.2472
 7930TIP3   OH245204   4.949   0.498   4.099  0.5026 -0.8122 -0.6624
 7930TIP3    H145205   4.902   0.480   4.180 -1.4021  1.6787 -1.0760
 7930TIP3    H245206   4.898   0.453   4.031  0.4010 -0.5316 -0.7759
 7931TIP3   OH245207   4.915   1.000   4.092 -0.5810 -0.1947 -0.0762
 7931TIP3    H145208   4.923   0.915   4.049 -0.6184 -1.3071  1.9591
 7931TIP3    H245209   5.004   1.035   4.093 -0.4033 -0.6353 -0.1544
 7932TIP3   OH245210   1.906   1.104  15.590  0.7154 -0.2154  0.0433
 7932TIP3    H145211   1.843   1.167  15.627 -0.2432  1.0807 -3.3941
 7932TIP3    H245212   1.991   1.140  15.614  0.1773  1.9026 -0.9273
 7933TIP3   OH245213   4.185   2.222   2.695 -0.0857  0.5378  0.1194
 7933TIP3    H145214   4.196   2.165   2.771  0.0045 -0.0930 -0.3581
 7933TIP3    H245215   4.135   2.297   2.728 -1.8558 -0.6813  0.3603
 7934TIP3   OH245216   3.090   5.148   4.137 -0.2758  0.1622  0.0711
 7934TIP3    H145217   3.057   5.066   4.172  1.1318 -0.0911  0.8829
 7934TIP3    H245218   3.013   5.190   4.098 -1.0729 -1.3959 -0.1258
 7935TIP3   OH245219   6.613   0.091  12.398 -0.1974 -0.2753  0.4281
 7935TIP3    H145220   6.537   0.123  12.447  0.4100 -0.4140  1.4993
 7935TIP3    H245221   6.686   0.098  12.460  0.4530 -1.1943 -0.2059
 7936TIP3   OH245222   4.565   4.006   0.543  0.1424  0.3194 -0.3290
 7936TIP3    H145223   4.499   4.042   0.483 -1.3161  2.5337  2.3453
 7936TIP3    H245224   4.626   4.079   0.558  1.6212 -0.8140 -0.5671
 7937TIP3   OH245225   4.432   1.565  11.502  0.1898  0.2691 -0.0179
 7937TIP3    H145226   4.491   1.559  11.577 -0.1700  0.2411  0.2686
 7937TIP3    H245227   4.349   1.528  11.534 -0.0305  0.4630 -0.3594
 7938TIP3   OH245228   5.744   6.088   2.157 -0.2873 -1.0814  0.0224
 7938TIP3    H145229   5.705   6.165   2.198  0.4097 -0.1790 -0.9659
 7938TIP3    H245230   5.676   6.055   2.098 -0.6709 -1.3936  0.6175
 7939TIP3   OH245231   3.435   0.021  16.612  0.0222 -0.2967 -0.0423
 7939TIP3    H145232   3.488   0.009  16.533  1.6153  1.5786  0.6659
 7939TIP3    H245233   3.345   0.028  16.579  0.4955 -0.8022 -1.5516
 7940TIP3   OH245234   1.056   3.273   2.852 -0.0520  0.4857  0.4686
 7940TIP3    H145235   1.108   3.315   2.921 -0.5844  0.1583  1.0776
 7940TIP3    H245236   0.966   3.276   2.885 -0.1944 -0.4761  0.2029
 7941TIP3   OH245237   4.827   1.901  12.740 -0.4288 -0.0637  0.1224
 7941TIP3    H145238   4.865   1.987  12.721 -0.0525 -0.4134 -0.7830
 7941TIP3    H245239   4.738   1.921  12.770 -0.7908  0.6052 -1.2659
 7942TIP3   OH245240   0.879   5.532   3.994 -0.0587  0.3714  0.2040
 7942TIP3    H145241   0.784   5.541   3.995  0.0292  1.8470 -1.2080
 7942TIP3    H245242   0.911   5.619   4.017  0.9722 -0.1027  0.6231
 7943TIP3   OH245243   0.237   5.972  16.823 -0.2201 -0.0510 -0.2313
 7943TIP3    H145244   0.143   5.977  16.843 -0.4237 -1.4346 -0.7706
 7943TIP3    H245245   0.266   5.889  16.861  1.0986  0.9593  1.0700
 7944TIP3   OH245246   1.902   3.832   1.751 -0.4162  0.1203  0.2502
 7944TIP3    H145247   1.916   3.769   1.681 -1.0255 -0.1601  0.3661
 7944TIP3    H245248   1.806   3.841   1.756 -0.3159  1.8287 -0.4323
 7945TIP3   OH245249   1.998   0.153  16.549  0.4565 -0.4160  0.3676
 7945TIP3    H145250   1.916   0.164  16.500 -0.3550  1.8965  2.0759
 7945TIP3    H245251   1.976   0.092  16.620  0.3278 -0.1509  0.5577
 7946TIP3   OH245252   4.423   3.824   0.347 -0.1765 -0.2844  0.7251
 7946TIP3    H145253   4.428   3.794   0.257 -1.3909  1.9017 -0.1504
 7946TIP3    H245254   4.373   3.757   0.393 -0.2350 -1.0290 -0.4071
 7947TIP3   OH245255   3.016   6.458  16.929 -0.4724 -0.3971 -0.0586
 7947TIP3    H145256   3.083   6.434  16.993  0.8727  2.0119 -0.4639
 7947TIP3    H245257   2.941   6.485  16.982 -0.3799 -1.0705  0.4311
 7948TIP3   OH245258   5.279   1.277   4.992  0.2254  0.6938 -0.2562
 7948TIP3    H145259   5.276   1.202   5.052  1.4694  1.1704  0.4313
 7948TIP3    H245260   5.227   1.345   5.035 -0.3931  0.4461 -0.5938
 7949TIP3   OH245261   1.864   1.102  12.848  0.0613  0.0338  0.1059
 7949TIP3    H145262   1.836   1.135  12.933 -2.7926 -1.4131 -0.1530
 7949TIP3    H245263   1.832   1.012  12.846  2.7689 -1.0246 -1.3436
 7950TIP3   OH245264   1.183   2.192  13.394  0.2119 -0.1013  0.0603
 7950TIP3    H145265   1.215   2.282  13.401  0.0092  0.5461 -4.4732
 7950TIP3    H245266   1.262   2.138  13.397  0.4500  0.2627  1.3908
 7951TIP3   OH245267   3.343   1.481  11.561 -0.2373  0.6779  0.5557
 7951TIP3    H145268   3.312   1.398  11.596  1.4802 -0.6959 -0.9682
 7951TIP3    H245269   3.342   1.541  11.635  0.9679 -1.4257  2.3611
 7952TIP3   OH245270   0.272   2.679  15.550  0.5781  0.4391 -0.0136
 7952TIP3    H145271   0.354   2.715  15.583 -0.1538  1.5010  0.6954
 7952TIP3    H245272   0.290   2.657  15.459  1.8826 -0.1073  0.3548
 7953TIP3   OH245273   3.227   4.875  14.179 -0.3484 -0.7841 -0.5131
 7953TIP3    H145274   3.256   4.944  14.119  0.9130  1.7813  2.7267
 7953TIP3    H245275   3.309   4.835  14.210 -0.8819 -1.3178  0.2344
 7954TIP3   OH245276   5.449   4.102  12.248 -0.3623 -0.1720 -0.2445
 7954TIP3    H145277   5.518   4.147  12.297 -0.1853  0.6043 -1.1625
 7954TIP3    H245278   5.476   4.112  12.156 -0.5094 -1.8577 -0.4897
 7955TIP3   OH245279   1.887   6.338  12.322  0.1196  0.2196  0.1299
 7955TIP3    H145280   1.804   6.338  12.274 -0.0370 -4.0255  0.0419
 7955TIP3    H245281   1.868   6.291  12.403  1.8043  1.8305  1.5362
 7956TIP3   OH245282   1.483   4.424   0.483  0.1244  0.2166  0.1307
 7956TIP3    H145283   1.565   4.470   0.466  0.8194 -1.4308 -1.3806
 7956TIP3    H245284   1.415   4.485   0.456  0.9739  0.6689 -1.0879
 7957TIP3   OH245285   5.927   5.414  17.009  0.1311 -0.1202 -0.1240
 7957TIP3    H145286   5.997   5.440  17.069  0.5929  0.0730 -0.7423
 7957TIP3    H245287   5.867   5.363  17.064  1.7968 -2.0978 -0.0145
 7958TIP3   OH245288   3.255   2.591  15.027 -0.5788 -0.2439 -0.7473
 7958TIP3    H145289   3.169   2.620  14.995  0.7017  1.3943 -2.9826
 7958TIP3    H245290   3.261   2.500  14.997 -1.7786 -0.6063  0.0320
 7959TIP3   OH245291   3.740   3.198  10.736 -0.3300 -0.1759  0.0237
 7959TIP3    H145292   3.714   3.227  10.648 -1.8088 -2.2081 -0.2827
 7959TIP3    H245293   3.823   3.153  10.723 -1.3481 -1.9635 -0.7062
 7960TIP3   OH245294   0.662   6.709   6.483  0.3834 -0.4297 -0.0760
 7960TIP3    H145295   0.705   6.662   6.411  0.7404 -0.2955  0.0489
 7960TIP3    H245296   0.680   6.655   6.560  3.5287  1.4574  0.6709
 7961TIP3   OH245297   5.066   6.312   2.240  0.0909 -0.5592 -0.0539
 7961TIP3    H145298   5.054   6.368   2.164 -1.0835 -1.4640 -0.5661
 7961TIP3    H245299   4.998   6.244   2.231 -2.5088  1.2127  3.5367
 7962TIP3   OH245300   2.057   6.813  13.360 -0.5738  0.1239 -0.2843
 7962TIP3    H145301   2.031   6.826  13.451 -1.0042  0.0570 -0.3977
 7962TIP3    H245302   2.141   6.857  13.353 -1.2379  1.4288 -0.2490
 7963TIP3   OH245303   5.592   0.735   4.889  0.0363  0.0144 -0.3500
 7963TIP3    H145304   5.526   0.775   4.945  1.0436  0.8439  0.2652
 7963TIP3    H245305   5.579   0.775   4.803  1.2289  1.9714  0.3200
 7964TIP3   OH245306   2.152   4.709  16.374 -0.3441  0.3209 -0.0304
 7964TIP3    H145307   2.076   4.656  16.346 -0.8478  2.2120 -2.6728
 7964TIP3    H245308   2.228   4.662  16.340 -0.4410 -0.7130  1.1415
 7965TIP3   OH245309   3.615   6.096   4.052  0.2445 -0.2938  0.3560
 7965TIP3    H145310   3.603   6.148   4.132 -0.2461  0.6713 -0.3143
 7965TIP3    H245311   3.529   6.056   4.037  0.7238 -1.6718  1.0856
 7966TIP3   OH245312   1.786   5.648   0.780  0.2892 -0.1058 -0.2180
 7966TIP3    H145313   1.779   5.727   0.833  1.1194 -0.1306 -0.0579
 7966TIP3    H245314   1.879   5.624   0.784  0.2722 -0.4035 -1.2585
 7967TIP3   OH245315   6.510   1.187   2.446  0.3871  0.3682  0.0137
 7967TIP3    H145316   6.504   1.244   2.522 -0.0853  1.4158 -0.7766
 7967TIP3    H245317   6.535   1.245   2.374 -1.5640 -0.1031 -1.1396
 7968TIP3   OH245318   5.664   2.476   4.669 -0.0881  0.3343  0.3801
 7968TIP3    H145319   5.722   2.444   4.738  0.0613 -0.1108  0.0555
 7968TIP3    H245320   5.603   2.403   4.653  0.3733  0.1153 -0.5000
 7969TIP3   OH245321   5.391   4.116   0.338 -0.0722 -0.5220  0.3884
 7969TIP3    H145322   5.357   4.130   0.426 -2.1210 -1.1366 -0.2520
 7969TIP3    H245323   5.480   4.084   0.352  0.3550  1.2212  2.1571
 7970TIP3   OH245324   5.107   4.815  15.663 -0.1197 -0.3578  0.7050
 7970TIP3    H145325   5.030   4.872  15.654  1.3367  1.4495 -1.6870
 7970TIP3    H245326   5.162   4.858  15.728  0.8485  0.9420 -0.8932
 7971TIP3   OH245327   4.188   4.834   2.770 -0.0338 -0.1130 -0.0348
 7971TIP3    H145328   4.148   4.858   2.853  0.4948  0.0669  0.1696
 7971TIP3    H245329   4.149   4.894   2.706  0.6610  0.7659  0.3338
 7972TIP3   OH245330   1.699   5.748   4.163 -0.4579 -0.7126 -0.3196
 7972TIP3    H145331   1.792   5.734   4.148 -0.3832 -0.1737 -0.3577
 7972TIP3    H245332   1.695   5.801   4.243 -0.7352 -0.7935 -0.2785
 7973TIP3   OH245333   0.520   0.803  16.403  0.1980  0.0627 -0.4024
 7973TIP3    H145334   0.502   0.897  16.408 -0.0762 -0.0280  0.6972
 7973TIP3    H245335   0.560   0.790  16.317 -0.8980  0.9923 -1.0826
 7974TIP3   OH245336   2.056   3.821   1.313  0.1276 -0.3020 -0.0906
 7974TIP3    H145337   2.130   3.854   1.363  0.3336 -0.5498 -0.2301
 7974TIP3    H245338   2.074   3.848   1.223 -0.8099  1.1639  0.1173
 7975TIP3   OH245339   3.569   4.740  14.664  0.9397  0.3393 -0.5933
 7975TIP3    H145340   3.539   4.826  14.636  0.8735 -0.4076 -3.0187
 7975TIP3    H245341   3.620   4.707  14.591  0.0702 -2.1190 -0.1837
 7976TIP3   OH245342   3.482   6.426  13.423 -0.1632  0.2345  0.0397
 7976TIP3    H145343   3.452   6.342  13.456 -0.8644  0.7473  0.7404
 7976TIP3    H245344   3.509   6.474  13.501  0.4287  0.5862 -0.3752
 7977TIP3   OH245345   2.093   4.502  14.251  0.1928 -0.4468 -0.4666
 7977TIP3    H145346   2.171   4.474  14.299 -0.0325 -1.4974 -0.6966
 7977TIP3    H245347   2.024   4.506  14.317  0.7209  1.9099  0.0358
 7978TIP3   OH245348   1.288   4.429  12.495 -1.0378 -0.3194 -0.4066
 7978TIP3    H145349   1.329   4.344  12.484 -1.3822 -0.6510  0.7817
 7978TIP3    H245350   1.307   4.454  12.586 -0.0912  1.3330 -0.9981
 7979TIP3   OH245351   3.051   3.844   1.111 -0.3590 -1.0035 -0.1220
 7979TIP3    H145352   3.112   3.917   1.098 -0.1093 -0.7044  2.2796
 7979TIP3    H245353   2.976   3.866   1.055 -1.5754  2.7159  2.5817
 7980TIP3   OH245354   2.457   4.892  11.693 -0.3173 -0.5458  0.5241
 7980TIP3    H145355   2.412   4.926  11.616  1.6467  1.4059  0.1475
 7980TIP3    H245356   2.446   4.797  11.687  0.6663 -0.5805 -2.7626
 7981TIP3   OH245357   4.600   6.692  10.866  0.2804  0.5197  0.5907
 7981TIP3    H145358   4.515   6.736  10.862  0.4670  0.9500  1.2696
 7981TIP3    H245359   4.663   6.758  10.837  0.2231 -0.3274 -1.6533
 7982TIP3   OH245360   2.707   2.843   6.182  0.2067  0.4142 -0.2794
 7982TIP3    H145361   2.756   2.762   6.170 -0.0506  0.0292  1.0745
 7982TIP3    H245362   2.763   2.898   6.237 -0.7301  0.0631  1.0823
 7983TIP3   OH245363   6.211   4.037   2.133 -0.0247 -0.3879  0.2199
 7983TIP3    H145364   6.271   4.030   2.059  1.0082  2.2408  0.6945
 7983TIP3    H245365   6.166   4.120   2.120  0.0004  0.0279  2.3807
 7984TIP3   OH245366   2.802   4.630  10.690 -0.2368 -0.2212 -0.2859
 7984TIP3    H145367   2.810   4.685  10.612 -0.1023  0.4560  0.1900
 7984TIP3    H245368   2.712   4.646  10.720 -0.0725  0.0580  0.0740
 7985TIP3   OH245369   3.721   4.002   0.739  0.1729 -0.9363 -0.1987
 7985TIP3    H145370   3.718   3.917   0.783  2.0063 -1.4365 -0.9505
 7985TIP3    H245371   3.676   3.987   0.656  0.0666 -1.0252 -0.1272
 7986TIP3   OH245372   2.984   6.196  12.575 -1.0254  0.2365 -0.1080
 7986TIP3    H145373   2.925   6.272  12.572 -1.9970 -0.3623  2.1351
 7986TIP3    H245374   2.972   6.160  12.662  2.8339  0.1850  0.5766
 7987TIP3   OH245375   0.897   6.638   1.384 -0.0368  0.0054 -0.2234
 7987TIP3    H145376   0.820   6.689   1.359  0.8491  1.6272  0.2677
 7987TIP3    H245377   0.928   6.601   1.301 -2.2303 -2.0783 -0.2425
 7988TIP3   OH245378   1.258   1.903  14.598  0.6337  0.2965  0.2209
 7988TIP3    H145379   1.278   1.900  14.692  0.2706  1.0871  0.3326
 7988TIP3    H245380   1.167   1.876  14.593  0.2632  1.4980  0.2397
 7989TIP3   OH245381   4.924   5.948   6.544 -0.5327  0.0113  0.6670
 7989TIP3    H145382   4.939   6.010   6.616 -2.3614  0.0786  1.0367
 7989TIP3    H245383   4.959   5.993   6.467 -0.8557  1.0453  1.1013
 7990TIP3   OH245384   6.701   1.277   0.651 -0.3101  0.7220 -0.4896
 7990TIP3    H145385   6.757   1.326   0.711  0.3082  0.0006 -0.4681
 7990TIP3    H245386   6.614   1.279   0.692  0.2171 -0.2279  0.7215
 7991TIP3   OH245387   2.377   0.679   4.634  0.2156 -0.7466  0.4923
 7991TIP3    H145388   2.441   0.749   4.632 -1.7652  1.1547  0.4969
 7991TIP3    H245389   2.374   0.651   4.725  1.3236 -1.1669  0.4099
 7992TIP3   OH245390   5.651   3.717   2.003 -0.3611 -0.2641 -0.0379
 7992TIP3    H145391   5.727   3.755   2.046 -0.1643 -1.2485  0.5232
 7992TIP3    H245392   5.685   3.681   1.921 -0.0191 -1.4303  0.5804
 7993TIP3   OH245393   2.789   0.755   1.290  1.0085 -0.4764  0.1828
 7993TIP3    H145394   2.762   0.739   1.200  2.4025  0.9905 -0.5338
 7993TIP3    H245395   2.706   0.759   1.339  0.0762  0.7579 -1.3852
 7994TIP3   OH245396   4.670   1.436  13.318  0.7453 -0.2208  0.0437
 7994TIP3    H145397   4.617   1.357  13.325  0.9201 -0.3994 -0.6064
 7994TIP3    H245398   4.653   1.469  13.230  3.4002 -1.5230 -1.0491
 7995TIP3   OH245399   4.598   5.592  14.048 -0.5471  0.3481 -0.1255
 7995TIP3    H145400   4.633   5.586  14.137 -0.1807  0.9626 -0.2201
 7995TIP3    H245401   4.504   5.604  14.060 -0.4278  1.0285  0.2138
 7996TIP3   OH245402   3.518   4.537   1.612 -0.6555  0.1971  0.1235
 7996TIP3    H145403   3.583   4.582   1.666 -1.6115  0.9596  0.6626
 7996TIP3    H245404   3.527   4.445   1.637 -0.7240  0.4670  1.2117
 7997TIP3   OH245405   5.321   5.611   3.600  0.2174  0.3375  0.7703
 7997TIP3    H145406   5.296   5.680   3.540  2.4535  0.9754  0.4684
 7997TIP3    H245407   5.333   5.655   3.684 -0.9639 -0.1953  1.2373
 7998TIP3   OH245408   6.081   4.713   3.215 -0.4129 -0.0306 -0.0543
 7998TIP3    H145409   6.124   4.797   3.232  2.0858 -0.7698 -2.0487
 7998TIP3    H245410   6.048   4.720   3.126 -0.9705 -0.8782  0.0695
 7999TIP3   OH245411   1.495   5.486  10.586  0.7508  0.2078 -0.1704
 7999TIP3    H145412   1.561   5.554  10.574 -1.6688  2.9760  0.9788
 7999TIP3    H245413   1.503   5.461  10.678  0.4656  0.2680 -0.1280
 8000TIP3   OH245414   4.490   5.222   0.984  0.3879 -0.4668  0.4219
 8000TIP3    H145415   4.575   5.221   0.939 -0.5298 -2.2705 -1.4184
 8000TIP3    H245416   4.448   5.303   0.954  0.2450 -1.0971 -1.1898
 8001TIP3   OH245417   3.715   4.318   2.227 -0.6500  0.0579 -0.2755
 8001TIP3    H145418   3.641   4.304   2.168 -0.8690  0.5959 -0.1334
 8001TIP3    H245419   3.675   4.349   2.308 -0.3138 -0.2231  0.0000
 8002TIP3   OH245420   5.111   5.683   4.749 -0.3086  0.4427  0.2914
 8002TIP3    H145421   5.202   5.696   4.724 -0.2062 -2.3310 -1.0730
 8002TIP3    H245422   5.070   5.643   4.673 -1.5367 -2.6086  2.3655
 8003TIP3   OH245423   0.227   5.570   4.224  0.1157 -0.1721 -0.0714
 8003TIP3    H145424   0.259   5.646   4.272  0.4520 -0.1663 -0.3030
 8003TIP3    H245425   0.294   5.503   4.236 -1.1296 -1.1511  1.8658
 8004TIP3   OH245426   3.690   2.297  13.750  0.6666 -0.2727 -0.5519
 8004TIP3    H145427   3.665   2.383  13.784  1.9991  0.0775 -0.3950
 8004TIP3    H245428   3.785   2.303  13.738  0.5810 -1.2451 -1.9157
 8005TIP3   OH245429   0.138   4.502  11.434  0.2746 -0.2456 -0.2453
 8005TIP3    H145430   0.093   4.438  11.379  0.9202 -0.7686 -0.1745
 8005TIP3    H245431   0.211   4.454  11.472  1.2473  0.7270 -0.8055
 8006TIP3   OH245432   3.304   2.972   5.284 -0.1850 -0.7424 -0.1956
 8006TIP3    H145433   3.300   3.022   5.202  1.2335 -1.0576 -0.4853
 8006TIP3    H245434   3.230   3.004   5.335  0.8090  1.8678 -0.2325
 8007TIP3   OH245435   3.037   3.396  15.197 -0.3598 -0.1918 -0.4831
 8007TIP3    H145436   2.984   3.469  15.227  1.4990  0.4200  1.5696
 8007TIP3    H245437   3.120   3.405  15.244  1.2573 -1.6141 -2.8121
 8008TIP3   OH245438   1.616   3.876   1.751 -0.2946  0.2177  0.3232
 8008TIP3    H145439   1.525   3.887   1.780 -0.0816  0.0311  1.0702
 8008TIP3    H245440   1.608   3.861   1.656 -1.1536 -1.0499  0.5542
 8009TIP3   OH245441   3.728   4.178   4.621 -0.3627 -0.0456 -0.4805
 8009TIP3    H145442   3.821   4.193   4.603 -0.1986 -0.1118  0.2754
 8009TIP3    H245443   3.685   4.191   4.536  0.5297 -1.7092 -1.2398
 8010TIP3   OH245444   0.691   6.768  10.617 -0.4544 -0.2795 -0.2578
 8010TIP3    H145445   0.600   6.743  10.601 -0.9363 -0.2209  1.9557
 8010TIP3    H245446   0.691   6.863  10.617 -0.2382 -0.2722 -0.8868
 8011TIP3   OH245447   2.552   4.067  16.133 -0.2841 -0.3232  0.1927
 8011TIP3    H145448   2.530   4.159  16.117 -1.6134 -0.6576 -0.0354
 8011TIP3    H245449   2.601   4.040  16.056 -0.0260  0.1491  0.1866
 8012TIP3   OH245450   5.698   0.522   1.085  0.1662  0.4535 -0.2384
 8012TIP3    H145451   5.654   0.584   1.142 -0.5807 -1.0012  0.8248
 8012TIP3    H245452   5.788   0.519   1.118 -0.4855 -1.0964  1.5724
 8013TIP3   OH245453   1.727   1.253  13.023  0.6131  0.7215 -0.3340
 8013TIP3    H145454   1.788   1.315  13.064 -0.0449  1.5751 -0.6019
 8013TIP3    H245455   1.652   1.251  13.083  1.0662 -0.6814  0.2353
 8014TIP3   OH245456   2.573   2.525  10.707 -0.0277 -0.3044  0.2301
 8014TIP3    H145457   2.618   2.456  10.755 -0.7291 -0.2766  0.9448
 8014TIP3    H245458   2.481   2.498  10.707 -0.0312 -0.4213 -1.3015
 8015TIP3   OH245459   1.127   4.396  11.975 -0.0478 -0.2873  0.4102
 8015TIP3    H145460   1.051   4.344  11.951  0.1340  0.1700 -1.2741
 8015TIP3    H245461   1.097   4.451  12.047 -0.7376 -1.4444  1.0394
 8016TIP3   OH245462   4.945   6.333   3.797  0.7554  0.6045  0.0168
 8016TIP3    H145463   4.990   6.297   3.720 -0.3584  1.6184 -1.1477
 8016TIP3    H245464   5.001   6.406   3.824  1.5167 -0.1815  0.6303
 8017TIP3   OH245465   4.934   0.826  12.659 -0.3775  0.3254 -0.1699
 8017TIP3    H145466   4.992   0.881  12.711  1.1040  0.5857 -1.9988
 8017TIP3    H245467   4.988   0.752  12.632 -1.8064 -1.1049  0.6421
 8018TIP3   OH245468   3.101   0.541   4.357 -0.0718  0.2596  0.3525
 8018TIP3    H145469   3.139   0.622   4.322  0.8448  0.3121  1.4231
 8018TIP3    H245470   3.123   0.542   4.450 -1.4841 -0.4301  0.7126
 8019TIP3   OH245471   1.171   2.592  15.850  0.2503  0.4058  0.3717
 8019TIP3    H145472   1.170   2.536  15.773  1.4106  0.9960 -0.1009
 8019TIP3    H245473   1.149   2.534  15.922 -2.8770  0.2279 -0.5888
 8020TIP3   OH245474   4.674   2.179  16.583  0.3909  0.4262 -0.1998
 8020TIP3    H145475   4.665   2.101  16.529 -0.7274  0.2290  0.2446
 8020TIP3    H245476   4.658   2.252  16.523  1.1742  0.3149 -0.5583
 8021TIP3   OH245477   1.969   5.948  11.907 -0.0047  0.1820 -0.0210
 8021TIP3    H145478   1.875   5.964  11.916 -0.3053 -0.7208 -1.2845
 8021TIP3    H245479   1.991   5.979  11.820  0.1622 -2.4636 -1.0286
 8022TIP3   OH245480   6.488   3.070   4.207  0.1832  0.7479  0.1888
 8022TIP3    H145481   6.511   3.070   4.300  2.4274 -0.5735 -0.3169
 8022TIP3    H245482   6.557   3.121   4.165  0.8351 -1.0862 -1.0778
 8023TIP3   OH245483   5.619   3.370  11.282  0.5449 -0.7183  0.3261
 8023TIP3    H145484   5.576   3.387  11.198 -0.2862 -0.5235  0.7728
 8023TIP3    H245485   5.634   3.276  11.283  1.8854 -0.5453 -0.6393
 8024TIP3   OH245486   2.415   4.255  14.508  0.1182 -0.4293  0.3784
 8024TIP3    H145487   2.510   4.250  14.496 -0.0416 -0.5942 -0.9256
 8024TIP3    H245488   2.383   4.167  14.489 -0.3797 -0.1512 -0.1246
 8025TIP3   OH245489   5.168   1.460   1.606  0.1001  0.2093  0.1681
 8025TIP3    H145490   5.185   1.385   1.550  0.2092  0.3405  0.0248
 8025TIP3    H245491   5.249   1.512   1.603 -0.7518  1.5441 -1.6017
 8026TIP3   OH245492   0.452   3.682   5.258 -0.3757 -0.3620  0.6137
 8026TIP3    H145493   0.471   3.718   5.344  0.3561  0.3829  0.1598
 8026TIP3    H245494   0.433   3.589   5.274 -0.0887 -0.2694  1.5494
 8027TIP3   OH245495   6.237   6.219  11.113  0.0791 -0.2951 -0.1527
 8027TIP3    H145496   6.142   6.216  11.125 -0.0877  0.7956 -1.0909
 8027TIP3    H245497   6.250   6.253  11.025  1.3594  0.2267  0.2088
 8028TIP3   OH245498   5.083   0.487   6.432  0.0897  0.2500 -0.5146
 8028TIP3    H145499   5.174   0.461   6.445 -0.4957 -1.0264  1.5213
 8028TIP3    H245500   5.088   0.575   6.395  2.1371  0.0311 -0.8599
 8029TIP3   OH245501   0.945   3.227  15.233  0.3494 -0.0592  0.5267
 8029TIP3    H145502   0.893   3.220  15.313 -0.0065  1.0822  0.4152
 8029TIP3    H245503   0.932   3.318  15.204  3.3959  0.6877  1.1906
 8030TIP3   OH245504   3.125   5.872   4.641 -0.0810 -0.3869  0.4757
 8030TIP3    H145505   3.040   5.849   4.605 -0.2160 -0.0612  0.5821
 8030TIP3    H245506   3.109   5.887   4.734  0.1321 -0.5394  0.5367
 8031TIP3   OH245507   1.028   3.901  16.480 -0.0450  0.3807  0.0951
 8031TIP3    H145508   1.120   3.896  16.452  0.1960  0.0809  0.9051
 8031TIP3    H245509   1.031   3.948  16.563  0.1045 -4.1030  3.0213
 8032TIP3   OH245510   2.384   5.540   2.529  0.0501  0.3686 -0.0988
 8032TIP3    H145511   2.356   5.449   2.516  0.3044 -0.1302  2.3404
 8032TIP3    H245512   2.438   5.537   2.608  0.6850  2.5427 -0.3982
 8033TIP3   OH245513   1.067   6.726   4.548 -0.8493  0.2378 -0.3791
 8033TIP3    H145514   1.063   6.816   4.580 -2.2276  0.3805 -0.8890
 8033TIP3    H245515   0.992   6.717   4.490 -1.0388 -1.3881  0.0479
 8034TIP3   OH245516   5.458   4.556   2.089  0.0959 -0.4027 -0.5554
 8034TIP3    H145517   5.539   4.504   2.084  0.7057  0.5642 -1.1249
 8034TIP3    H245518   5.454   4.601   2.005  0.0177  1.0783  0.2044
 8035TIP3   OH245519   1.452   3.653   1.108  0.2170  0.3849 -0.2248
 8035TIP3    H145520   1.367   3.641   1.151  1.4921  0.4663  2.5063
 8035TIP3    H245521   1.441   3.730   1.053 -1.4367  0.4375  0.1309
 8036TIP3   OH245522   5.214   2.262   3.501 -0.0128  0.5584  0.2100
 8036TIP3    H145523   5.167   2.200   3.556  1.9544  0.5701  2.0557
 8036TIP3    H245524   5.216   2.343   3.552 -1.3909  1.7866 -1.5843
 8037TIP3   OH245525   5.798   6.542   2.156  0.3129  0.3290  0.6636
 8037TIP3    H145526   5.780   6.580   2.070  0.0811 -1.9057 -0.3465
 8037TIP3    H245527   5.894   6.538   2.162  0.3641  1.8567  1.1869
 8038TIP3   OH245528   6.380   6.294  12.944 -0.6816 -0.1591  0.3020
 8038TIP3    H145529   6.319   6.362  12.972  0.5256  0.2485  2.1351
 8038TIP3    H245530   6.350   6.269  12.857 -1.9917  1.7263  0.1508
 8039TIP3   OH245531   4.315   4.385  15.031 -0.2980 -0.2645 -0.2175
 8039TIP3    H145532   4.252   4.452  15.004 -0.6036  0.4317  2.0405
 8039TIP3    H245533   4.292   4.366  15.122  2.1149 -0.7456  0.3497
 8040TIP3   OH245534   6.782   6.273  13.259 -1.2056 -0.3482 -0.4881
 8040TIP3    H145535   6.854   6.280  13.196  0.0756 -2.4477  0.6135
 8040TIP3    H245536   6.775   6.360  13.298  0.7116 -0.0690 -0.6845
 8041TIP3   OH245537   2.179   3.041  12.340 -0.2049  0.2177 -0.0671
 8041TIP3    H145538   2.206   3.091  12.263 -1.4020  0.3927 -0.3919
 8041TIP3    H245539   2.114   2.979  12.307  0.9302 -1.2951  0.4041
 8042TIP3   OH245540   0.636   5.318  15.072  0.2477 -0.1681  0.4406
 8042TIP3    H145541   0.677   5.307  15.158  2.0727 -0.5665 -0.4175
 8042TIP3    H245542   0.708   5.306  15.010 -0.7816  1.2418 -1.1212
 8043TIP3   OH245543   0.318   5.280  12.083 -0.0524 -0.2312  0.2713
 8043TIP3    H145544   0.361   5.335  12.018  0.0527 -0.6350  0.0001
 8043TIP3    H245545   0.288   5.342  12.150 -0.3146  0.2078 -0.2428
 8044TIP3   OH245546   5.623   1.258   4.849  0.5354  0.5228  0.1906
 8044TIP3    H145547   5.618   1.346   4.811  2.2023  0.8862  0.7244
 8044TIP3    H245548   5.716   1.243   4.863  0.3487 -1.5946 -0.4397
 8045TIP3   OH245549   1.589   2.461  16.940  0.5227  0.4644 -0.5057
 8045TIP3    H145550   1.522   2.430  16.880 -0.0507  0.6904  0.0070
 8045TIP3    H245551   1.623   2.541  16.900 -0.0321  0.7514 -0.4111
 8046TIP3   OH245552   3.710   0.412  14.707 -0.3196 -0.4266 -0.0789
 8046TIP3    H145553   3.625   0.423  14.750  1.3423  0.3000  3.3060
 8046TIP3    H245554   3.714   0.319  14.685 -1.2338 -0.8664  1.4798
 8047TIP3   OH245555   0.726   2.351  14.914 -0.3228  1.0029  0.3697
 8047TIP3    H145556   0.720   2.417  14.982 -1.5423  4.2640 -2.6262
 8047TIP3    H245557   0.819   2.344  14.895 -0.2099  2.4195  0.2977
 8048TIP3   OH245558   6.387   2.032   4.356 -0.2859 -0.0213  0.4527
 8048TIP3    H145559   6.334   2.108   4.334 -1.3378 -0.3384  1.7098
 8048TIP3    H245560   6.405   2.042   4.450  2.2690  0.2780  0.0046
 8049TIP3   OH245561   2.121   4.430  10.981  0.5446  0.3763 -0.7283
 8049TIP3    H145562   2.156   4.498  11.039 -2.0321  0.0725  1.3672
 8049TIP3    H245563   2.083   4.478  10.907  0.2208  1.1062 -0.0976
 8050TIP3   OH245564   0.025   3.527  12.125 -0.8919  0.0669 -0.3863
 8050TIP3    H145565  -0.006   3.597  12.067 -2.3091 -0.2469 -0.0475
 8050TIP3    H245566  -0.021   3.542  12.207 -1.6361 -1.5580 -0.4718
 8051TIP3   OH245567   5.623   3.824   5.675 -0.1439 -0.0160 -0.1415
 8051TIP3    H145568   5.569   3.803   5.751  0.0439  0.4782  0.1313
 8051TIP3    H245569   5.573   3.793   5.600 -1.4032  1.5802 -0.0063
 8052TIP3   OH245570   4.312   0.083   4.086  0.7177 -0.0737 -0.0803
 8052TIP3    H145571   4.270   0.163   4.052  1.5714  0.3205 -0.2353
 8052TIP3    H245572   4.239   0.029   4.116 -0.0402 -0.1699 -1.9585
 8053TIP3   OH245573   3.370   0.584  13.800  0.3581 -0.4919 -0.1492
 8053TIP3    H145574   3.353   0.636  13.722 -1.0097 -0.8351 -0.1079
 8053TIP3    H245575   3.441   0.631  13.845  2.1188 -1.0016 -2.2077
 8054TIP3   OH245576   5.988   0.836  14.927  0.2074 -0.4629 -0.0055
 8054TIP3    H145577   5.918   0.894  14.957  1.0571  0.8543 -0.4752
 8054TIP3    H245578   5.952   0.748  14.935 -0.9897  0.0979  1.0864
 8055TIP3   OH245579   0.197   0.871   4.536  0.2644 -0.2013  0.7859
 8055TIP3    H145580   0.282   0.859   4.579  0.2475 -1.4450  0.5013
 8055TIP3    H245581   0.173   0.784   4.504 -0.4524  0.4010 -0.3910
 8056TIP3   OH245582   3.472   5.609   3.810 -0.2908  0.4065  0.0808
 8056TIP3    H145583   3.496   5.585   3.899 -0.1231  1.1845  0.2549
 8056TIP3    H245584   3.551   5.653   3.776 -0.3920  0.2103 -0.4086
 8057TIP3   OH245585   4.710   1.079  12.262  0.4474  0.3761  0.0241
 8057TIP3    H145586   4.678   1.155  12.310 -0.9192  0.4526 -0.9520
 8057TIP3    H245587   4.634   1.021  12.253  0.7044  0.2481 -1.7834
 8058TIP3   OH245588   4.386   3.242   0.511 -0.1509  0.0721 -0.4079
 8058TIP3    H145589   4.457   3.201   0.559 -0.8136 -0.2584  0.2934
 8058TIP3    H245590   4.423   3.260   0.424  1.2560  1.2585  0.3991
 8059TIP3   OH245591   4.057   4.866  11.206 -0.6703 -0.6286 -0.1047
 8059TIP3    H145592   4.046   4.824  11.120  0.2614 -1.5292  0.1888
 8059TIP3    H245593   3.971   4.902  11.226 -0.4328  1.5127 -2.3756
 8060TIP3   OH245594   4.997   6.221  13.657  0.6066  0.0291 -0.0380
 8060TIP3    H145595   5.032   6.309  13.670 -0.9823  0.5597  1.0584
 8060TIP3    H245596   5.050   6.166  13.715  0.6941  0.5264  0.3656
 8061TIP3   OH245597   3.085   4.257  11.346 -0.2063  0.6028 -0.0442
 8061TIP3    H145598   3.168   4.211  11.333  0.5525  1.0650  2.4640
 8061TIP3    H245599   3.018   4.192  11.324  0.8156 -0.3350 -0.5082
 8062TIP3   OH245600   5.578   3.969   2.563 -0.0824 -0.0066 -0.1147
 8062TIP3    H145601   5.599   3.876   2.553 -3.1312 -0.6535 -1.5521
 8062TIP3    H245602   5.661   4.014   2.547  1.1113 -2.3952 -1.0963
 8063TIP3   OH245603   0.407   0.637  11.039  0.2753  0.0378  0.0836
 8063TIP3    H145604   0.459   0.712  11.011  6.5196 -2.2026  3.5791
 8063TIP3    H245605   0.414   0.574  10.967  0.3738  0.6278 -0.4237
 8064TIP3   OH245606   6.269   1.563  15.673 -0.6037 -0.6071  0.1423
 8064TIP3    H145607   6.281   1.656  15.695  0.2569 -0.3833 -1.1825
 8064TIP3    H245608   6.348   1.520  15.707 -1.3598 -1.0182  1.4654
 8065TIP3   OH245609   3.292   6.182   4.999  0.5179  0.1658  0.3299
 8065TIP3    H145610   3.308   6.103   5.050  1.0738  0.9428  1.4123
 8065TIP3    H245611   3.369   6.237   5.016 -0.7269  1.7477  1.2176
 8066TIP3   OH245612   5.139   1.849   5.800 -0.0723 -0.2518  0.2751
 8066TIP3    H145613   5.049   1.874   5.778 -0.5144 -1.3819  0.7120
 8066TIP3    H245614   5.161   1.780   5.737  1.0174  0.9939 -0.7390
 8067TIP3   OH245615   3.584   0.813   4.988  0.7129 -0.1221  0.0585
 8067TIP3    H145616   3.605   0.858   5.070 -2.5783 -1.6056  1.8930
 8067TIP3    H245617   3.510   0.862   4.952  2.0417  0.4430 -2.0919
 8068TIP3   OH245618   3.195   1.279   2.700  0.9795  0.1201  0.1722
 8068TIP3    H145619   3.228   1.305   2.786  0.3176  0.1690  0.4164
 8068TIP3    H245620   3.266   1.301   2.640  0.8041  1.6965  0.4839
 8069TIP3   OH245621   4.854   6.411   2.482  0.4940 -0.4802  0.4056
 8069TIP3    H145622   4.787   6.442   2.543  0.7272  0.8341  0.0141
 8069TIP3    H245623   4.847   6.469   2.406  3.2944  0.9229  1.1065
 8070TIP3   OH245624   0.750   4.706  11.707 -0.1623  0.0462 -0.5727
 8070TIP3    H145625   0.687   4.770  11.738 -0.9381 -1.7807  2.0004
 8070TIP3    H245626   0.835   4.736  11.740 -0.3776  0.2006 -0.1691
 8071TIP3   OH245627   5.388   2.113   3.292 -0.3660 -0.3679 -0.3936
 8071TIP3    H145628   5.318   2.157   3.341 -0.4138 -1.8874  0.9629
 8071TIP3    H245629   5.413   2.177   3.225 -0.4522  1.7397  1.4501
 8072TIP3   OH245630   6.629   0.857   4.773 -0.6008 -0.4214 -0.5630
 8072TIP3    H145631   6.673   0.778   4.803 -2.0648 -1.4741 -1.0943
 8072TIP3    H245632   6.694   0.902   4.719  0.8779 -0.2641  1.2240
 8073TIP3   OH245633   0.464   5.416   5.264 -0.1101  0.3590 -0.7188
 8073TIP3    H145634   0.476   5.425   5.169  0.7503 -1.7816 -0.8651
 8073TIP3    H245635   0.527   5.477   5.302  1.0605 -0.3093 -1.5424
 8074TIP3   OH245636   4.925   1.767  15.857 -0.2415  0.2669  0.0080
 8074TIP3    H145637   4.898   1.843  15.805 -3.6400 -0.3891  0.5250
 8074TIP3    H245638   4.914   1.796  15.948 -0.5550 -0.4963  0.2210
 8075TIP3   OH245639   0.653   3.922  15.646 -0.7155 -0.8940 -0.8491
 8075TIP3    H145640   0.691   4.009  15.662 -0.8446 -0.9481 -0.2333
 8075TIP3    H245641   0.585   3.913  15.713  0.2096 -2.0231 -0.0184
 8076TIP3   OH245642   5.033   0.454  11.822 -0.0578  0.2347  0.1579
 8076TIP3    H145643   5.042   0.504  11.740  1.9226 -0.8817 -0.3720
 8076TIP3    H245644   4.990   0.373  11.796  0.0300  0.1309  0.3363
 8077TIP3   OH245645   5.595   6.425  16.581 -0.2081 -0.3241 -0.0106
 8077TIP3    H145646   5.603   6.462  16.669 -0.8611 -0.8491  0.2801
 8077TIP3    H245647   5.503   6.400  16.574 -0.0372 -0.7945 -0.6426
 8078TIP3   OH245648   1.573   6.182  15.796 -0.0567 -0.5246 -0.1114
 8078TIP3    H145649   1.665   6.162  15.780  0.2893 -0.0659  1.1787
 8078TIP3    H245650   1.554   6.144  15.881 -0.9729 -0.3192 -0.2085
 8079TIP3   OH245651   2.927   5.845  11.674  0.3061 -0.5404 -0.0585
 8079TIP3    H145652   2.866   5.778  11.644 -1.1561  0.9720 -0.5818
 8079TIP3    H245653   2.958   5.887  11.594  1.7603 -0.9950  0.2243
 8080TIP3   OH245654   6.001   5.518   2.430  0.0261 -0.0333 -0.4519
 8080TIP3    H145655   5.979   5.559   2.346  0.7298 -0.1544 -0.7051
 8080TIP3    H245656   6.029   5.592   2.484  2.3447 -0.2458 -1.2530
 8081TIP3   OH245657   5.036   6.374  14.631 -0.4219 -0.5729 -0.5062
 8081TIP3    H145658   4.942   6.386  14.637 -0.1624  1.1927  1.4518
 8081TIP3    H245659   5.067   6.449  14.579 -0.1016 -1.2886 -1.3692
 8082TIP3   OH245660   3.642   4.448  14.534  0.5469  1.0333 -0.2123
 8082TIP3    H145661   3.562   4.418  14.491 -0.2665  1.4928  0.9273
 8082TIP3    H245662   3.692   4.489  14.464 -1.2250  2.7388 -0.5862
 8083TIP3   OH245663   3.429   5.579  14.378 -0.0934 -0.1618 -0.3174
 8083TIP3    H145664   3.385   5.656  14.413  2.1537  0.3032  1.7580
 8083TIP3    H245665   3.370   5.506  14.398 -0.5086  0.5735  1.2849
 8084TIP3   OH245666   0.259   0.782   3.410 -0.3931  0.1595  0.0912
 8084TIP3    H145667   0.351   0.799   3.395  0.0942 -1.5217  0.8880
 8084TIP3    H245668   0.224   0.757   3.324 -0.1400  0.8845 -0.2270
 8085TIP3   OH245669   1.484   2.785   0.583 -0.2834  0.2275 -0.5297
 8085TIP3    H145670   1.485   2.790   0.678 -2.5115  0.5136 -0.4732
 8085TIP3    H245671   1.437   2.704   0.563  1.5061 -0.6461 -1.4338
 8086TIP3   OH245672   1.700   4.641   3.589 -0.1176 -0.8082  0.4426
 8086TIP3    H145673   1.694   4.610   3.680  1.8702  1.0215  1.2939
 8086TIP3    H245674   1.793   4.656   3.575 -0.6231  1.6906 -0.8841
 8087TIP3   OH245675   4.698   1.600   2.141  0.0998 -0.5733 -0.4256
 8087TIP3    H145676   4.763   1.566   2.080 -0.7298 -1.6731 -0.7409
 8087TIP3    H245677   4.746   1.618   2.221  1.1419  0.5398 -1.2815
 8088TIP3   OH245678   1.144   1.284   6.596 -0.2988 -0.2011 -0.3660
 8088TIP3    H145679   1.146   1.288   6.691  0.5058 -0.1134 -0.3778
 8088TIP3    H245680   1.138   1.375   6.568  1.4874 -0.0572 -0.4093
 8089TIP3   OH245681   1.566   0.275  13.703  0.6665  0.2516  0.2112
 8089TIP3    H145682   1.650   0.229  13.704  0.2175 -0.7147 -1.6424
 8089TIP3    H245683   1.530   0.258  13.616 -1.7846  0.0422  1.1769
 8090TIP3   OH245684   6.727   4.257   2.428 -0.5126  0.9007 -0.0535
 8090TIP3    H145685   6.796   4.194   2.408 -0.5677  0.8078  0.0448
 8090TIP3    H245686   6.670   4.211   2.489 -0.7041  0.9510 -0.1969
 8091TIP3   OH245687   4.853   4.323  16.077  0.6772 -0.1028  0.1831
 8091TIP3    H145688   4.833   4.405  16.122 -2.0415 -1.2120  1.2187
 8091TIP3    H245689   4.806   4.330  15.994  2.9655  0.5476 -1.1723
 8092TIP3   OH245690   6.676   5.441  16.996 -0.3635  0.2630 -0.1508
 8092TIP3    H145691   6.591   5.479  17.016  0.0071  0.7731  0.4913
 8092TIP3    H245692   6.691   5.377  17.066  0.7428  1.7369  1.0090
 8093TIP3   OH245693   0.382   3.589   6.500 -0.0419  0.5833  0.2845
 8093TIP3    H145694   0.341   3.524   6.443 -0.9815  1.9315 -0.6348
 8093TIP3    H245695   0.476   3.573   6.489 -0.2362 -0.2853 -0.3142
 8094TIP3   OH245696   0.319   3.549   1.726 -0.6779  0.2987 -0.7576
 8094TIP3    H145697   0.228   3.521   1.733 -0.9926  1.3373 -0.4660
 8094TIP3    H245698   0.314   3.641   1.700  0.2632  0.6547  0.2057
 8095TIP3   OH245699   6.793   4.031   5.536  0.2121 -0.2059 -0.3078
 8095TIP3    H145700   6.871   4.010   5.484 -0.8642 -2.8610 -1.0063
 8095TIP3    H245701   6.719   4.009   5.479 -1.0370 -0.0165  1.1746
 8096TIP3   OH245702   6.427   5.817   2.051  0.4992  0.0452 -0.6080
 8096TIP3    H145703   6.515   5.816   2.089  0.2246 -1.3388  0.0591
 8096TIP3    H245704   6.413   5.908   2.025  1.0572  0.8962  1.7855
 8097TIP3   OH245705   0.892   2.221   5.783  0.4344  0.2588  0.2092
 8097TIP3    H145706   0.872   2.218   5.876  0.4723 -0.4858  0.2017
 8097TIP3    H245707   0.807   2.235   5.740  0.6007  2.1677  0.4117
 8098TIP3   OH245708   2.860   6.547   2.793  0.2285  0.3921  0.1279
 8098TIP3    H145709   2.768   6.572   2.784 -0.0005 -0.9316 -1.7214
 8098TIP3    H245710   2.861   6.452   2.781  1.8924  0.4569 -0.5601
 8099TIP3   OH245711   0.656   4.620   0.245 -0.3562  0.4704 -0.1799
 8099TIP3    H145712   0.646   4.682   0.173 -2.9721  0.4003  0.0418
 8099TIP3    H245713   0.616   4.539   0.213 -1.5533  0.4328  1.3112
 8100TIP3   OH245714   4.484   6.550  11.679 -0.4957 -0.2060  0.3377
 8100TIP3    H145715   4.450   6.623  11.731 -2.2605 -0.9959  0.3638
 8100TIP3    H245716   4.477   6.474  11.737 -0.8680 -0.8001 -0.4730
 8101TIP3   OH245717   4.355   3.676  12.456  0.0802  0.6313 -0.1088
 8101TIP3    H145718   4.321   3.587  12.464  0.7046  0.4205  0.2367
 8101TIP3    H245719   4.308   3.726  12.523 -0.5438  0.6502 -0.5543
 8102TIP3   OH245720   1.031   6.775   0.943 -0.4234 -0.4908  0.0563
 8102TIP3    H145721   1.040   6.846   0.879  0.6870 -0.9617 -0.3453
 8102TIP3    H245722   1.116   6.773   0.987 -0.9590 -0.5961  1.1156
 8103TIP3   OH245723   3.745   0.753   1.591 -0.8802 -0.2507 -0.0319
 8103TIP3    H145724   3.706   0.832   1.630  2.7383  2.0310 -0.6019
 8103TIP3    H245725   3.739   0.767   1.497  1.1364  0.1473 -0.1326
 8104TIP3   OH245726   2.346   1.480   0.631 -0.3208  0.1195  0.0507
 8104TIP3    H145727   2.426   1.438   0.600 -0.5187 -0.3257  0.1220
 8104TIP3    H245728   2.355   1.572   0.607 -0.4626 -0.2055 -1.3305
 8105TIP3   OH245729   1.944   5.000   3.678 -0.0907 -0.3639  0.2412
 8105TIP3    H145730   1.885   4.998   3.754  0.8338  0.1005  1.0016
 8105TIP3    H245731   1.990   5.084   3.687 -2.2551  1.2865 -2.6416
 8106TIP3   OH245732   1.402   3.465   0.156  0.4345 -0.6447  0.3454
 8106TIP3    H145733   1.313   3.499   0.161 -0.1153 -1.4598 -2.3705
 8106TIP3    H245734   1.398   3.378   0.195 -0.2456 -1.1092 -0.7229
 8107TIP3   OH245735   0.229   6.303  15.931 -0.4015 -0.3046 -0.9779
 8107TIP3    H145736   0.206   6.220  15.973 -0.2741 -0.0225 -0.3396
 8107TIP3    H245737   0.153   6.359  15.946  0.1081  0.1763 -0.0879
 8108TIP3   OH245738   0.654   3.180   4.080 -0.5316  0.6895 -0.5441
 8108TIP3    H145739   0.672   3.111   4.016  0.0418  0.8783 -0.5868
 8108TIP3    H245740   0.690   3.147   4.162 -0.9089  0.6234 -0.4013
 8109TIP3   OH245741   3.315   1.962  16.072 -0.0349  0.6667 -0.2274
 8109TIP3    H145742   3.242   1.982  16.130  0.2905 -2.3153  1.4329
 8109TIP3    H245743   3.393   1.970  16.127  0.3791 -1.0904 -0.4757
 8110TIP3   OH245744   6.707   4.969   4.829  0.0636  0.0585 -0.6265
 8110TIP3    H145745   6.624   4.955   4.784  0.0626 -0.7929 -0.3797
 8110TIP3    H245746   6.697   4.924   4.913  0.4583  0.7007 -0.2238
 8111TIP3   OH245747   6.062   2.720   0.872 -0.2235  0.3746 -0.6221
 8111TIP3    H145748   6.036   2.665   0.946 -0.7963  0.3264 -0.8537
 8111TIP3    H245749   5.981   2.736   0.824 -0.4989  3.1847  0.5685
 8112TIP3   OH245750   3.855   4.592   3.425  0.9009 -0.6383 -0.2645
 8112TIP3    H145751   3.770   4.579   3.468  1.7587 -0.1326  1.7386
 8112TIP3    H245752   3.836   4.590   3.332 -1.5364  0.9660  0.1203
 8113TIP3   OH245753   1.797   1.995  11.226 -0.2670  0.9208 -0.0976
 8113TIP3    H145754   1.745   1.965  11.152  0.7836  2.3409 -1.4541
 8113TIP3    H245755   1.737   2.048  11.278 -0.8590  0.3533 -0.1845
 8114TIP3   OH245756   5.357   1.164   2.603 -0.2371  0.3366  0.6050
 8114TIP3    H145757   5.343   1.131   2.514  0.7133 -0.1015  0.5977
 8114TIP3    H245758   5.293   1.117   2.657  0.7217 -1.1600  0.5020
 8115TIP3   OH245759   6.786   1.643  16.875  0.3080 -1.0605 -0.0310
 8115TIP3    H145760   6.740   1.727  16.881  1.7011 -0.2782  0.0644
 8115TIP3    H245761   6.844   1.642  16.951  0.4686 -2.0195 -0.1590
 8116TIP3   OH245762   2.401   3.956   1.120 -0.1007 -0.1852 -0.6727
 8116TIP3    H145763   2.407   3.998   1.206  1.9852 -0.0803 -0.8330
 8116TIP3    H245764   2.431   4.022   1.058 -0.6770 -0.5751 -1.3834
 8117TIP3   OH245765   3.263   2.576  14.371 -0.0266 -0.7310 -0.0058
 8117TIP3    H145766   3.204   2.641  14.332  0.5807 -0.1107  0.1157
 8117TIP3    H245767   3.219   2.492  14.353 -0.1061 -0.4178 -1.4381
 8118TIP3   OH245768   3.708   6.137   2.645 -0.3399 -0.2641 -0.0149
 8118TIP3    H145769   3.741   6.046   2.643 -1.7347 -0.7793 -1.5053
 8118TIP3    H245770   3.782   6.189   2.614  0.5261 -0.8447  0.9722
 8119TIP3   OH245771   1.880   0.449   2.983 -0.2122  0.2544 -0.3670
 8119TIP3    H145772   1.821   0.488   3.048 -2.6576 -0.3898 -2.0398
 8119TIP3    H245773   1.968   0.473   3.012 -1.3699  4.0912  0.5395
 8120TIP3   OH245774   1.579   2.737  13.007 -0.3608  0.3803 -0.6678
 8120TIP3    H145775   1.621   2.651  13.002  0.2548  0.6465 -0.1415
 8120TIP3    H245776   1.563   2.761  12.915 -1.8602 -0.9160 -0.7924
 8121TIP3   OH245777   2.930   0.918   4.085 -0.1146 -0.3599  0.2086
 8121TIP3    H145778   2.975   0.837   4.061 -1.8502 -1.4407  0.4825
 8121TIP3    H245779   2.998   0.985   4.079  1.5854 -1.9402  0.8010
 8122TIP3   OH245780   1.126   0.488  13.731  0.1952  0.2286 -0.4751
 8122TIP3    H145781   1.041   0.464  13.692 -0.2917 -0.3076  0.8699
 8122TIP3    H245782   1.186   0.487  13.656 -0.2222 -3.1416 -0.9608
 8123TIP3   OH245783   4.790   4.135  14.637 -0.0726 -0.0493 -0.4213
 8123TIP3    H145784   4.842   4.194  14.691  1.4976 -1.5401 -0.2320
 8123TIP3    H245785   4.700   4.149  14.666  0.6184 -0.1024  1.9291
 8124TIP3   OH245786   5.294   5.178  16.507  0.2913 -0.2800  0.3051
 8124TIP3    H145787   5.246   5.259  16.486  0.8863 -0.1752 -0.7051
 8124TIP3    H245788   5.258   5.113  16.447  0.4847 -0.5238  0.4540
 8125TIP3   OH245789   5.174   3.487   3.325 -0.0877  1.1039  0.1320
 8125TIP3    H145790   5.202   3.551   3.260 -1.0080  0.6435 -0.7601
 8125TIP3    H245791   5.254   3.441   3.350  0.2918  1.3142 -0.6634
 8126TIP3   OH245792   1.604   5.587  10.177  0.2756 -0.3321  0.2725
 8126TIP3    H145793   1.693   5.591  10.142  0.5194  1.6656  0.9810
 8126TIP3    H245794   1.589   5.674  10.213 -1.4879 -1.0535  1.3918
 8127TIP3   OH245795   4.557   0.479   0.074 -0.4679 -0.4864 -0.0916
 8127TIP3    H145796   4.633   0.536   0.090 -1.6744  1.3175 -0.4442
 8127TIP3    H245797   4.518   0.514  -0.007 -1.4120 -1.6714 -0.1701
 8128TIP3   OH245798   1.034   0.375  16.220  0.6313 -0.1220  0.1097
 8128TIP3    H145799   1.018   0.288  16.257  0.3173  0.2006  0.7449
 8128TIP3    H245800   1.124   0.371  16.186 -0.1873 -1.4852 -2.1582
 8129TIP3   OH245801   3.319   6.391   4.182  0.4211  0.2812 -0.3130
 8129TIP3    H145802   3.404   6.359   4.213 -0.0219  0.0734  0.7039
 8129TIP3    H245803   3.341   6.451   4.111  1.2767 -3.0343 -3.1262
 8130TIP3   OH245804   0.100   0.867  11.844  0.1577  0.6126  0.0819
 8130TIP3    H145805   0.132   0.957  11.833  0.8571  0.2640 -0.9129
 8130TIP3    H245806   0.058   0.846  11.761  0.2418 -0.0660  0.2056
 8131TIP3   OH245807   6.792   0.333  12.583 -0.1422 -0.3580 -0.1335
 8131TIP3    H145808   6.887   0.342  12.570 -0.0855 -0.4116  0.2375
 8131TIP3    H245809   6.780   0.242  12.609  0.0787  0.4085  2.9610
 8132TIP3   OH245810   1.132   5.761   4.112 -0.2243  0.3861  0.2880
 8132TIP3    H145811   1.139   5.806   4.027 -0.4416  0.0967  0.1164
 8132TIP3    H245812   1.046   5.785   4.145  0.0778  0.9380  0.6808
 8133TIP3   OH245813   4.669   0.812  13.828 -0.5835 -0.4768  0.1802
 8133TIP3    H145814   4.589   0.828  13.879 -0.5087 -1.4614  0.6231
 8133TIP3    H245815   4.639   0.764  13.751 -0.9277  2.2784 -1.5728
 8134TIP3   OH245816   1.047   5.836  11.558  0.5423  0.1646  0.3959
 8134TIP3    H145817   1.005   5.911  11.600  0.0659 -1.3274  2.8012
 8134TIP3    H245818   1.141   5.853  11.567  0.4502 -0.0232  2.0021
 8135TIP3   OH245819   2.471   1.979   0.683  0.7099  0.1789  0.1224
 8135TIP3    H145820   2.425   1.952   0.763 -0.0262  1.4084  0.1387
 8135TIP3    H245821   2.430   2.062   0.659  1.0244 -0.0960 -1.4538
 8136TIP3   OH245822   5.441   2.949  13.733 -0.1141 -0.0831 -0.6880
 8136TIP3    H145823   5.470   3.005  13.661  1.7396 -1.8400 -1.4209
 8136TIP3    H245824   5.375   2.892  13.695  1.3400 -1.4581 -1.2455
 8137TIP3   OH245825   5.596   4.623  16.419 -0.0118  0.0132  0.5582
 8137TIP3    H145826   5.672   4.635  16.476 -0.1037  1.2968  0.4397
 8137TIP3    H245827   5.592   4.529  16.403  1.1735 -0.1357  1.0751
 8138TIP3   OH245828   6.203   2.279   1.709  0.6030 -0.2495 -0.0497
 8138TIP3    H145829   6.207   2.195   1.664 -0.1994  0.5587 -1.6936
 8138TIP3    H245830   6.274   2.331   1.672  1.4228 -0.3260  1.3193
 8139TIP3   OH245831   0.988   3.338  10.951 -0.4927 -0.0452  0.1609
 8139TIP3    H145832   1.074   3.358  10.914 -0.2232  1.2059  1.3809
 8139TIP3    H245833   0.932   3.326  10.875  0.2589  1.4765 -0.6875
 8140TIP3   OH245834   6.077   1.994   2.057 -0.0219  0.0138  0.4344
 8140TIP3    H145835   6.035   2.072   2.022 -0.2372 -0.8991 -1.4592
 8140TIP3    H245836   6.125   1.957   1.983  2.6347 -0.0247  2.0278
 8141TIP3   OH245837   1.056   1.118  12.681 -0.5253 -0.0403 -0.1694
 8141TIP3    H145838   1.044   1.099  12.774 -0.2809  0.6909  0.0150
 8141TIP3    H245839   0.974   1.159  12.654 -0.2081  0.7223 -0.0125
 8142TIP3   OH245840   1.933   6.797   5.820  0.7453  0.3990 -0.0395
 8142TIP3    H145841   2.027   6.810   5.834  0.3646  0.5811  3.0116
 8142TIP3    H245842   1.892   6.872   5.862 -0.8182  0.2184 -1.1532
 8143TIP3   OH245843   4.020   2.723  14.876 -0.1314  0.1947  0.8072
 8143TIP3    H145844   3.937   2.709  14.832  0.6028  0.0768 -0.6055
 8143TIP3    H245845   4.037   2.640  14.922 -0.4881 -0.0069  0.5777
 8144TIP3   OH245846   3.008   1.692   6.370 -0.1663  0.0721  0.5225
 8144TIP3    H145847   2.915   1.700   6.348  0.2231  2.1330 -0.5874
 8144TIP3    H245848   3.018   1.600   6.394 -2.2377 -0.5273 -0.5853
 8145TIP3   OH245849   2.575   6.783   1.377  0.0806  0.2008 -0.1651
 8145TIP3    H145850   2.653   6.737   1.345  1.0614  1.4230  0.3916
 8145TIP3    H245851   2.608   6.839   1.448 -1.5931 -0.5251  1.2556
 8146TIP3   OH245852   1.171   1.133   2.707  0.4256  0.0226 -0.7144
 8146TIP3    H145853   1.123   1.118   2.788 -0.0679 -2.1317 -1.3427
 8146TIP3    H245854   1.104   1.136   2.640  0.9732 -0.6058 -1.3133
 8147TIP3   OH245855   5.576   5.864   1.138 -0.5125 -0.0457  0.3536
 8147TIP3    H145856   5.484   5.881   1.120 -0.3392  0.4009 -0.1387
 8147TIP3    H245857   5.586   5.769   1.129 -0.4276  0.1294 -2.0511
 8148TIP3   OH245858   1.414   2.327  11.288  0.6991  0.0736 -0.1370
 8148TIP3    H145859   1.434   2.249  11.339 -0.8361  0.3260  0.9032
 8148TIP3    H245860   1.476   2.324  11.215  0.8787 -1.9447  0.0429
 8149TIP3   OH245861   6.574   4.278  15.542 -0.4957 -0.0330 -0.3988
 8149TIP3    H145862   6.618   4.344  15.594 -0.0464 -0.6115 -0.0329
 8149TIP3    H245863   6.539   4.216  15.607 -0.7624 -0.2477 -0.7432
 8150TIP3   OH245864   4.532   0.321  16.123  0.2030 -0.2711 -0.3042
 8150TIP3    H145865   4.527   0.417  16.124  0.8923 -0.1965  1.6835
 8150TIP3    H245866   4.525   0.298  16.031 -1.0998  1.6122 -0.7527
 8151TIP3   OH245867   6.057   2.926   4.046 -0.0489 -0.5194  0.7479
 8151TIP3    H145868   6.100   3.011   4.058 -0.2622 -0.4046  0.6897
 8151TIP3    H245869   6.086   2.897   3.959 -1.0061  0.0899  0.2065
 8152TIP3   OH245870   3.974   2.448  15.014 -0.0548 -0.1327  0.0885
 8152TIP3    H145871   3.896   2.477  15.061 -0.8002 -2.4136  0.3721
 8152TIP3    H245872   3.942   2.381  14.953  1.1486  1.4397 -2.4590
 8153TIP3   OH245873   5.082   4.775  12.714  0.7464  0.0636 -0.0333
 8153TIP3    H145874   5.085   4.680  12.699  0.8560  0.2505 -1.3045
 8153TIP3    H245875   5.094   4.785  12.809  1.5593 -1.1491  0.0122
 8154TIP3   OH245876   1.979   5.567  13.511 -0.2554  0.2392  0.0335
 8154TIP3    H145877   1.908   5.560  13.574  1.1709  1.0451  1.8164
 8154TIP3    H245878   2.017   5.479  13.507 -1.3261 -0.2058 -0.9657
 8155TIP3   OH245879   0.279   3.536  11.479  0.6395  0.2665  0.0626
 8155TIP3    H145880   0.338   3.571  11.412  0.7710 -0.8996 -0.4380
 8155TIP3    H245881   0.250   3.614  11.527  2.9092  0.8594  0.6048
 8156TIP3   OH245882   6.230   5.184  12.574  0.1774 -0.3899 -0.0525
 8156TIP3    H145883   6.178   5.103  12.581 -0.6651 -0.1664 -2.7158
 8156TIP3    H245884   6.321   5.154  12.570  0.0664 -1.0033  1.5212
 8157TIP3   OH245885   4.585   1.939   4.846  0.4856 -0.1366 -0.2397
 8157TIP3    H145886   4.531   1.861   4.853 -1.4813  1.2436  1.0771
 8157TIP3    H245887   4.649   1.918   4.779 -0.6198 -2.4903 -0.6549
 8158TIP3   OH245888   5.964   3.073  14.679 -0.2848 -0.5226  0.0615
 8158TIP3    H145889   5.905   3.126  14.732 -1.0974 -1.1070 -0.2434
 8158TIP3    H245890   5.952   3.104  14.589  1.8581  1.1840  0.2978
 8159TIP3   OH245891   0.041   0.330  15.501 -0.4468 -0.5007 -0.2205
 8159TIP3    H145892   0.119   0.373  15.465 -1.5837  0.5087 -1.6244
 8159TIP3    H245893   0.067   0.302  15.589  1.3864  0.0843 -0.5336
 8160TIP3   OH245894   0.094   2.067  13.588  0.1254 -0.1109 -0.4498
 8160TIP3    H145895   0.060   1.981  13.563 -2.2680  0.4459  0.5469
 8160TIP3    H245896   0.105   2.113  13.505  0.5864 -1.0841 -0.9427
 8161TIP3   OH245897   1.578   5.078  16.710  0.3209 -0.1887 -0.4636
 8161TIP3    H145898   1.539   5.125  16.784  0.9995 -0.7870  0.2812
 8161TIP3    H245899   1.516   5.009  16.690  0.2883 -0.2253 -0.2396
 8162TIP3   OH245900   2.360   2.396  12.446  0.0319 -0.2714  0.0397
 8162TIP3    H145901   2.318   2.342  12.380 -1.3109 -1.7395  1.9928
 8162TIP3    H245902   2.413   2.335  12.498  0.1070  0.6100  1.0455
 8163TIP3   OH245903   1.804   3.333   0.403 -0.2029 -0.1852 -0.5060
 8163TIP3    H145904   1.803   3.388   0.325 -1.4784  0.6272  0.0464
 8163TIP3    H245905   1.767   3.250   0.374 -2.4286  0.7034 -0.4271
 8164TIP3   OH245906   3.811   0.570  12.325 -0.4728  0.2493  0.3377
 8164TIP3    H145907   3.854   0.537  12.404 -0.9570 -0.2977  0.3865
 8164TIP3    H245908   3.882   0.588  12.264 -0.1261  0.1579  0.7109
 8165TIP3   OH245909   2.680   1.810  12.352 -0.1471 -0.1795 -0.4843
 8165TIP3    H145910   2.761   1.861  12.361 -0.1735 -0.1163 -0.6126
 8165TIP3    H245911   2.706   1.731  12.306 -0.3769  0.3588 -1.5514
 8166TIP3   OH245912   6.212   6.414   3.252  0.3539 -0.3001 -0.1094
 8166TIP3    H145913   6.130   6.380   3.217 -0.0352 -0.8243  1.2680
 8166TIP3    H245914   6.206   6.400   3.346  1.8058  0.1321  0.0732
 8167TIP3   OH245915   1.663   0.582   2.332 -0.2426  0.2049 -0.1691
 8167TIP3    H145916   1.583   0.610   2.287  0.1103 -0.1667 -1.0691
 8167TIP3    H245917   1.661   0.486   2.327  0.4372  0.2012 -0.5490
 8168TIP3   OH245918   0.704   3.456   1.863 -0.1707 -0.0254 -0.3862
 8168TIP3    H145919   0.659   3.372   1.875  0.9895 -0.7091 -0.6438
 8168TIP3    H245920   0.703   3.496   1.950 -0.7685 -0.2837 -0.2686
 8169TIP3   OH245921   6.065   3.704  13.068  0.0449 -0.2428 -0.3045
 8169TIP3    H145922   6.070   3.656  13.150  1.2511 -1.2111 -0.9168
 8169TIP3    H245923   6.056   3.636  13.001 -0.4305  0.5025 -1.0186
 8170TIP3   OH245924   5.325   6.288   3.086 -0.2372 -0.1374 -0.6300
 8170TIP3    H145925   5.260   6.345   3.127  0.8826  2.8125 -2.6728
 8170TIP3    H245926   5.304   6.291   2.993 -0.5180 -3.7626 -0.8488
 8171TIP3   OH245927   1.984   5.557  14.745 -0.2530  0.2184 -0.2521
 8171TIP3    H145928   2.037   5.614  14.801  0.1414  0.7684 -1.1779
 8171TIP3    H245929   2.013   5.576  14.656  1.2438 -2.7917 -0.5137
 8172TIP3   OH245930   0.304   0.979  15.646 -0.1822 -0.1210 -0.3083
 8172TIP3    H145931   0.312   0.960  15.553  0.3890  0.4336 -0.3843
 8172TIP3    H245932   0.307   1.075  15.651 -2.6775  0.0171  0.0674
 8173TIP3   OH245933   5.067   6.143  14.470 -0.3246  0.5314  0.0133
 8173TIP3    H145934   5.067   6.223  14.523  0.4449 -0.5215  1.7078
 8173TIP3    H245935   4.979   6.139  14.432 -0.1151  2.5842 -0.8026
 8174TIP3   OH245936   2.137   2.385  16.567  0.4478  0.4680 -0.1813
 8174TIP3    H145937   2.117   2.444  16.494 -1.3277  0.6621  0.4147
 8174TIP3    H245938   2.052   2.351  16.594  1.1569 -0.1666  1.3304
 8175TIP3   OH245939   0.211   4.486   6.277  0.2213 -0.6181 -0.2916
 8175TIP3    H145940   0.270   4.556   6.248 -0.6767 -0.4783 -1.9465
 8175TIP3    H245941   0.250   4.454   6.358  2.5652 -0.5404 -1.3020
 8176TIP3   OH245942   3.742   0.142  13.785 -0.3968 -0.1634  0.0117
 8176TIP3    H145943   3.769   0.233  13.799 -1.4994  0.0277  1.0913
 8176TIP3    H245944   3.824   0.095  13.770  0.2429  0.9052  0.0381
 8177TIP3   OH245945   6.657   3.813  15.290  0.5655 -0.1123  0.0747
 8177TIP3    H145946   6.658   3.820  15.195  2.0303 -2.6727 -0.1938
 8177TIP3    H245947   6.573   3.851  15.317 -2.7307 -4.4985 -2.7725
 8178TIP3   OH245948   1.490   0.112   4.530  0.0435  0.0646  0.0472
 8178TIP3    H145949   1.526   0.160   4.604 -2.0373 -0.7691  1.6923
 8178TIP3    H245950   1.544   0.034   4.523  1.3707  0.9955 -0.5220
 8179TIP3   OH245951   4.190   0.987   0.825 -0.4266 -0.3082  0.2772
 8179TIP3    H145952   4.215   0.896   0.807  1.2890 -0.0819  1.2861
 8179TIP3    H245953   4.113   0.979   0.881  1.3807 -1.3142  2.8539
 8180TIP3   OH245954   6.552   3.093  11.796  0.1563 -0.2768 -0.0118
 8180TIP3    H145955   6.526   3.171  11.845  0.8690  0.1886 -0.3545
 8180TIP3    H245956   6.507   3.021  11.839 -1.5772  0.4674 -0.4876
 8181TIP3   OH245957   5.301   0.195   1.426 -0.2200  0.3638 -0.5431
 8181TIP3    H145958   5.366   0.125   1.435  1.6933  1.8760 -1.9715
 8181TIP3    H245959   5.305   0.219   1.334 -3.8494 -0.3755 -1.0313
 8182TIP3   OH245960   5.003   2.482   4.763 -0.0750  0.0260  0.4200
 8182TIP3    H145961   4.973   2.463   4.852  0.3888 -1.3511  0.3115
 8182TIP3    H245962   5.098   2.491   4.771 -0.1850  1.5300  0.3077
 8183TIP3   OH245963   5.497   0.567  16.298  0.0608 -0.3510  0.1799
 8183TIP3    H145964   5.425   0.523  16.253  2.0398 -2.1870 -1.3927
 8183TIP3    H245965   5.538   0.622  16.231 -0.0535  0.9709  1.1536
 8184TIP3   OH245966   1.270   3.187  13.614  0.1258  0.2558 -0.4854
 8184TIP3    H145967   1.189   3.210  13.568 -0.1430  1.4683  0.5224
 8184TIP3    H245968   1.269   3.091  13.617 -0.4226  0.1938 -1.9395
 8185TIP3   OH245969   3.419   5.649   0.331 -0.0336 -0.8514  0.1157
 8185TIP3    H145970   3.341   5.593   0.324 -1.0040  0.6634 -2.5844
 8185TIP3    H245971   3.403   5.702   0.409 -2.4562  0.3553 -1.0804
 8186TIP3   OH245972   4.709   5.542  16.630 -0.1303  0.2544  0.3428
 8186TIP3    H145973   4.802   5.537  16.651 -0.1538  0.0191  0.3922
 8186TIP3    H245974   4.706   5.584  16.544  0.0360  0.0102  0.2160
 8187TIP3   OH245975   5.031   2.155  11.661 -0.1062  0.1760 -0.0093
 8187TIP3    H145976   5.001   2.126  11.747  0.4111  2.6900  1.1126
 8187TIP3    H245977   5.063   2.243  11.676 -0.7014  0.9917 -2.9523
 8188TIP3   OH245978   1.669   2.903   1.068  0.1208  0.6076  0.3114
 8188TIP3    H145979   1.725   2.871   0.997  1.1390 -0.7377  1.6469
 8188TIP3    H245980   1.581   2.908   1.030  0.5969 -0.3172 -0.9576
 8189TIP3   OH245981   4.029   3.136   2.260 -0.4700  0.8221  0.1662
 8189TIP3    H145982   4.062   3.119   2.171 -0.1905 -0.1698  0.4453
 8189TIP3    H245983   4.093   3.194   2.299  0.5528 -0.4602  0.4366
 8190TIP3   OH245984   1.691   0.378   2.770  0.1735 -0.2118 -0.0619
 8190TIP3    H145985   1.694   0.448   2.705  0.3358 -0.4935 -0.3627
 8190TIP3    H245986   1.712   0.421   2.853 -2.2876  0.6070  0.2102
 8191TIP3   OH245987   2.346   1.405  11.310 -0.3715  0.1476 -0.5295
 8191TIP3    H145988   2.432   1.373  11.335 -1.5276 -0.4368  3.2387
 8191TIP3    H245989   2.294   1.326  11.298 -0.6614  0.5162 -1.9493
 8192TIP3   OH245990   5.887   3.233  13.959  0.2125  0.1336 -0.5132
 8192TIP3    H145991   5.808   3.285  13.947 -0.5460 -1.2143 -1.6571
 8192TIP3    H245992   5.936   3.243  13.878  0.4781 -0.2375 -0.4065
 8193TIP3   OH245993   6.316   5.565   2.154 -0.5533 -0.1799 -0.4716
 8193TIP3    H145994   6.248   5.552   2.088  1.0257 -1.3744 -1.9638
 8193TIP3    H245995   6.359   5.647   2.128 -1.4474  0.6416  0.5429
 8194TIP3   OH245996   1.462   6.509   2.998  0.0774  0.3245 -0.1221
 8194TIP3    H145997   1.433   6.436   2.943 -2.2617 -0.6534  2.1332
 8194TIP3    H245998   1.431   6.587   2.953 -3.0422 -0.5147  0.2563
 8195TIP3   OH245999   4.057   3.842  16.085 -0.3248 -0.4917 -0.4546
 8195TIP3    H146000   4.129   3.903  16.102 -0.8232 -0.2602  0.9437
 8195TIP3    H246001   4.088   3.757  16.117  0.0563 -0.8320 -1.6584
 8196TIP3   OH246002   4.070   5.503   5.579 -0.1604 -0.3713 -0.2931
 8196TIP3    H146003   4.083   5.449   5.657 -0.0356 -1.3663 -0.9873
 8196TIP3    H246004   4.084   5.443   5.506 -1.7926  0.1700 -1.0847
 8197TIP3   OH246005   0.939   3.232   4.377 -0.2140  0.3053  0.1545
 8197TIP3    H146006   0.960   3.238   4.283  0.2310 -1.9656  0.0456
 8197TIP3    H246007   0.844   3.233   4.380 -0.2496 -0.2513 -0.4066
 8198TIP3   OH246008   0.459   1.434  14.932 -0.1797 -0.0378 -0.1457
 8198TIP3    H146009   0.547   1.463  14.954  0.3919 -2.5880  1.2266
 8198TIP3    H246010   0.466   1.404  14.841  0.2223  0.2913 -0.2276
 8199TIP3   OH246011   0.367   4.252   0.962  0.3950 -0.0040 -0.2713
 8199TIP3    H146012   0.436   4.263   1.028  1.7945  1.3453 -1.8490
 8199TIP3    H246013   0.294   4.213   1.010  2.0318 -0.9430  1.6139
 8200TIP3   OH246014   4.906   5.680   6.334 -0.5820  0.4655  0.4176
 8200TIP3    H146015   4.948   5.755   6.377  1.4040 -0.4511  0.2064
 8200TIP3    H246016   4.907   5.701   6.241  4.8061 -1.7385 -0.4054
 8201TIP3   OH246017   1.008   1.162   4.749  0.8944  0.1094  0.0389
 8201TIP3    H146018   1.087   1.109   4.758  0.4555 -0.6459 -0.4653
 8201TIP3    H246019   1.016   1.201   4.662  1.8027  1.8873  0.8499
 8202TIP3   OH246020   1.111   4.710   2.288 -0.3337 -0.2152  0.4938
 8202TIP3    H146021   1.050   4.784   2.283  0.7481  0.6313 -1.3751
 8202TIP3    H246022   1.081   4.651   2.219  0.5175 -0.1140  0.0235
 8203TIP3   OH246023   6.153   2.924  12.437  0.3775  0.3123  0.3545
 8203TIP3    H146024   6.177   2.834  12.461  1.0350  0.3296 -0.2025
 8203TIP3    H246025   6.114   2.916  12.350 -0.5633  0.4408  0.7569
 8204TIP3   OH246026   3.789   1.387   1.660  0.3426 -0.5594 -0.2630
 8204TIP3    H146027   3.751   1.305   1.628 -1.5437  0.4194 -0.6904
 8204TIP3    H246028   3.782   1.381   1.755 -1.5383 -0.1743 -0.3331
 8205TIP3   OH246029   4.267   4.321  15.864 -0.4505  0.1812  0.1258
 8205TIP3    H146030   4.197   4.264  15.894 -1.2606  1.8080  1.4654
 8205TIP3    H246031   4.301   4.362  15.944  0.7653  0.8493 -0.6989
 8206TIP3   OH246032   6.665   1.134  15.409 -0.4873 -0.3321 -0.6212
 8206TIP3    H146033   6.657   1.062  15.348  0.0033 -1.2722  0.3870
 8206TIP3    H246034   6.579   1.141  15.451  0.3054 -2.4890  1.5726
 8207TIP3   OH246035   0.243   4.097  17.033 -0.1486  0.2129 -0.2664
 8207TIP3    H146036   0.271   4.094  17.125  3.0618 -1.1003 -1.1321
 8207TIP3    H246037   0.208   4.009  17.016 -0.9985  0.5418 -0.2467
 8208TIP3   OH246038   5.151   2.123  16.619 -1.1940  0.4794 -0.4323
 8208TIP3    H146039   5.147   2.027  16.612 -0.0669  0.4227 -0.4238
 8208TIP3    H246040   5.232   2.140  16.666 -0.8513  1.4756 -1.3370
 8209TIP3   OH246041   3.255   1.014   0.992  0.0985 -0.7930 -0.6209
 8209TIP3    H146042   3.230   1.103   1.017  0.5709 -0.2006 -2.1478
 8209TIP3    H246043   3.328   0.991   1.050  0.6186  0.2066 -0.8690
 8210TIP3   OH246044   1.211   6.682  15.887  0.3132  0.5136  0.4461
 8210TIP3    H146045   1.256   6.631  15.955 -0.2234 -1.3452 -0.5216
 8210TIP3    H246046   1.118   6.664  15.901  0.0920  1.4220  0.2074
 8211TIP3   OH246047   1.930   5.708  12.388 -0.4980  0.1172 -0.0761
 8211TIP3    H146048   1.977   5.791  12.394  0.0879 -0.1558 -0.7412
 8211TIP3    H246049   1.999   5.642  12.383 -0.9584 -0.3930  0.2081
 8212TIP3   OH246050   0.216   5.018  14.097  0.1650 -0.4153  0.5206
 8212TIP3    H146051   0.176   5.072  14.028  0.5084 -0.6862  0.1017
 8212TIP3    H246052   0.309   5.016  14.074  0.0790 -1.6058  0.2334
 8213TIP3   OH246053   0.911   4.306   3.025 -0.1927  0.1474 -0.0520
 8213TIP3    H146054   0.998   4.324   3.059  0.4118  0.4246 -1.6878
 8213TIP3    H246055   0.855   4.303   3.103  1.3646 -0.6802  1.0832
 8214TIP3   OH246056   1.157   6.332  12.949  0.0485 -0.6651  0.2079
 8214TIP3    H146057   1.128   6.242  12.959  0.8850 -0.7983  2.0566
 8214TIP3    H246058   1.134   6.374  13.033 -1.2720  1.1427 -0.9893
 8215TIP3   OH246059   0.503   3.192   5.157 -0.0159  0.3384 -0.2437
 8215TIP3    H146060   0.539   3.169   5.071 -0.6223  1.6550 -0.8893
 8215TIP3    H246061   0.488   3.286   5.151 -0.6251  0.3433  1.1119
 8216TIP3   OH246062   1.144   4.167   2.781 -0.3397  0.0526 -0.2053
 8216TIP3    H146063   1.212   4.201   2.839  0.3940 -2.0087  0.2231
 8216TIP3    H246064   1.102   4.245   2.745  1.4982  1.3813  0.3900
 8217TIP3   OH246065   4.765   4.326  16.547  0.4871  0.3494 -0.5960
 8217TIP3    H146066   4.813   4.280  16.616 -0.9203 -1.1221 -0.5276
 8217TIP3    H246067   4.809   4.410  16.539  1.0480  0.3391  1.6999
 8218TIP3   OH246068   4.232   5.307   4.412  0.5264  0.2309  0.1904
 8218TIP3    H146069   4.321   5.340   4.422  0.6093  0.2957 -0.6622
 8218TIP3    H246070   4.232   5.222   4.458  0.8001  0.5845  0.8555
 8219TIP3   OH246071   6.057   5.793   5.955  0.3163 -0.7016  0.2992
 8219TIP3    H146072   6.147   5.785   5.988  0.3263 -3.1074 -0.1747
 8219TIP3    H246073   6.005   5.738   6.014 -0.9994  1.0965  0.9118
 8220TIP3   OH246074   3.927   5.853  14.361 -0.0879 -0.0797 -0.0320
 8220TIP3    H146075   3.886   5.784  14.309 -2.5126  0.6482  0.7570
 8220TIP3    H246076   3.874   5.857  14.442  0.0122  2.5673  0.0095
 8221TIP3   OH246077   0.553   3.861   4.649 -0.5660  0.7631  0.0540
 8221TIP3    H146078   0.640   3.876   4.685  0.2464  0.5779 -1.7299
 8221TIP3    H246079   0.510   3.804   4.713  0.8226  0.4167  0.7056
 8222TIP3   OH246080   6.008   5.901   6.254 -0.0543 -0.3207  0.0271
 8222TIP3    H146081   5.994   5.859   6.340 -1.5104 -2.0423 -0.9526
 8222TIP3    H246082   6.088   5.861   6.221 -0.9644 -1.8158 -0.5222
 8223TIP3   OH246083   5.215   3.660  14.659 -0.7368 -0.4943 -0.1985
 8223TIP3    H146084   5.302   3.688  14.632 -0.3582 -0.7979  0.6892
 8223TIP3    H246085   5.179   3.619  14.580 -0.8600  1.3604 -1.1664
 8224TIP3   OH246086   5.183   2.934  10.620  0.0796 -0.2578 -0.1536
 8224TIP3    H146087   5.135   3.017  10.620 -0.9946 -0.8538 -0.9776
 8224TIP3    H246088   5.275   2.960  10.618 -0.1508  0.9057  1.8080
 8225TIP3   OH246089   6.018   4.224  15.276 -0.2867  0.6205  0.8354
 8225TIP3    H146090   6.068   4.160  15.224 -2.4831  1.1533 -2.2449
 8225TIP3    H246091   6.065   4.307  15.263 -1.6304  1.0879 -1.9186
 8226TIP3   OH246092   5.770   1.622   3.539  0.0245  0.1688 -0.2103
 8226TIP3    H146093   5.775   1.703   3.488 -1.3070 -0.4404 -1.3795
 8226TIP3    H246094   5.676   1.610   3.555  0.2608 -0.8038  0.5166
 8227TIP3   OH246095   3.400   0.624  11.738 -0.3466  0.4242  0.0757
 8227TIP3    H146096   3.365   0.710  11.761 -1.9267  0.6901 -2.8154
 8227TIP3    H246097   3.325   0.577  11.702  1.0954 -1.0862 -1.0730
 8228TIP3   OH246098   6.139   6.752   0.480  0.2812 -0.0793 -0.5331
 8228TIP3    H146099   6.224   6.716   0.506  0.9923  1.0966 -1.1623
 8228TIP3    H246100   6.080   6.676   0.479  1.0069 -0.7150  1.1398
 8229TIP3   OH246101   4.218   0.629   2.866 -0.0630  0.2449 -0.3363
 8229TIP3    H146102   4.195   0.656   2.777 -0.9504  0.4450 -0.0550
 8229TIP3    H246103   4.254   0.541   2.855  1.0260  0.7456 -1.0326
 8230TIP3   OH246104   2.935   0.460  12.477 -1.1580  0.0680  0.3257
 8230TIP3    H146105   3.027   0.462  12.450 -1.2210 -2.7821 -0.4366
 8230TIP3    H246106   2.937   0.486  12.569  0.1837  1.5215 -0.0632
 8231TIP3   OH246107   0.560   4.495   4.146  0.4544 -0.0827  0.0235
 8231TIP3    H146108   0.578   4.471   4.055 -0.9593  0.0509 -0.3063
 8231TIP3    H246109   0.532   4.413   4.187 -0.3527  0.1558 -0.0465
 8232TIP3   OH246110   0.543   0.841  13.399 -0.3548  0.4106  0.2168
 8232TIP3    H146111   0.531   0.928  13.359 -2.2290 -0.5111 -1.4075
 8232TIP3    H246112   0.484   0.784  13.350  0.3033 -1.6700  1.7095
 8233TIP3   OH246113   1.070   6.298  15.408 -0.1269 -0.3791 -0.4934
 8233TIP3    H146114   1.053   6.223  15.465  0.6768 -1.1257 -1.2178
 8233TIP3    H246115   1.004   6.363  15.434  0.3755 -0.5916  1.4543
 8234TIP3   OH246116   2.982   5.610  16.381 -0.2162 -0.4249 -0.2163
 8234TIP3    H146117   3.065   5.644  16.414 -0.0031 -0.9161 -0.2361
 8234TIP3    H246118   2.984   5.629  16.287 -0.9406  1.2135  0.0732
 8235TIP3   OH246119   1.664   1.958  16.397  0.0734 -0.2075  0.9071
 8235TIP3    H146120   1.678   1.940  16.490  1.8677  1.0322  0.9406
 8235TIP3    H246121   1.746   1.930  16.356 -1.0694 -1.6577 -0.4777
 8236TIP3   OH246122   3.838   1.927   0.174 -0.4148  0.1745  0.1942
 8236TIP3    H146123   3.885   1.984   0.236 -1.2818  2.3430 -1.0155
 8236TIP3    H246124   3.894   1.926   0.096 -1.6837  1.7379 -0.7935
 8237TIP3   OH246125   3.114   2.760   5.502 -0.0655 -0.1475  0.3761
 8237TIP3    H146126   3.185   2.761   5.566  1.3223  0.2478 -1.1143
 8237TIP3    H246127   3.038   2.727   5.551  0.7504  0.8181  2.3804
 8238TIP3   OH246128   4.569   0.304   3.072  0.3302  0.4385 -0.2334
 8238TIP3    H146129   4.655   0.346   3.073 -0.3893  2.0168 -0.5721
 8238TIP3    H246130   4.566   0.254   3.154  1.0662  1.4841  0.4694
 8239TIP3   OH246131   4.372   2.537  13.627 -0.1465  0.5064 -0.1546
 8239TIP3    H146132   4.355   2.622  13.666  0.1747  0.5523 -0.1092
 8239TIP3    H246133   4.437   2.497  13.685  0.4329  0.6256 -0.7116
 8240TIP3   OH246134   1.992   2.904   5.384  0.1736 -0.5696  0.1160
 8240TIP3    H146135   1.931   2.968   5.422 -0.5195 -1.9953  1.4873
 8240TIP3    H246136   1.937   2.849   5.328  0.6923 -0.2737 -0.7101
 8241TIP3   OH246137   2.436   4.489   3.296 -0.1150  0.6519  0.4017
 8241TIP3    H146138   2.465   4.465   3.208  1.1681  0.2235  0.9128
 8241TIP3    H246139   2.368   4.555   3.282  0.1635  0.6888 -0.8969
 8242TIP3   OH246140   1.062   0.065   6.710  0.3345  0.4606  0.5796
 8242TIP3    H146141   1.142   0.114   6.729  0.3622  0.7011 -0.1243
 8242TIP3    H246142   0.992   0.123   6.740  0.3390  1.2340 -0.8172
 8243TIP3   OH246143   1.959   3.415  16.486 -0.7702 -0.2877 -0.2018
 8243TIP3    H146144   2.049   3.448  16.484 -0.5793 -0.7628  0.4128
 8243TIP3    H246145   1.913   3.469  16.421 -0.1288  0.2029 -0.2639
 8244TIP3   OH246146   1.378   4.948  16.068  0.0345  0.9409  0.5929
 8244TIP3    H146147   1.435   4.918  16.139 -0.9192 -1.4592  0.4445
 8244TIP3    H246148   1.320   5.011  16.109 -0.4254 -0.3140  1.9822
 8245TIP3   OH246149   1.114   6.402  14.430 -0.6515 -0.0778  0.2039
 8245TIP3    H146150   1.202   6.387  14.465 -0.5784 -2.8851 -0.8625
 8245TIP3    H246151   1.065   6.441  14.502  1.4377  1.6731  0.7881
 8246TIP3   OH246152   5.277   2.125   2.184 -0.1738 -0.7193  0.6753
 8246TIP3    H146153   5.355   2.104   2.236  1.6332  1.0436 -1.1407
 8246TIP3    H246154   5.236   2.198   2.231  0.9990  0.3329  0.1203
 8247TIP3   OH246155   5.136   3.086  16.513 -0.4912  0.4192  0.1165
 8247TIP3    H146156   5.138   3.178  16.539 -0.0347  0.2157  0.8343
 8247TIP3    H246157   5.111   3.087  16.421 -2.0410  1.1800  0.5018
 8248TIP3   OH246158   1.763   2.274   6.062  0.5719  0.3931 -0.0243
 8248TIP3    H146159   1.819   2.197   6.049 -0.9698 -0.7364 -0.2095
 8248TIP3    H246160   1.697   2.268   5.994 -0.5313  0.9941  0.9594
 8249TIP3   OH246161   4.000   2.624   1.147 -0.4819  0.0245  0.6926
 8249TIP3    H146162   3.953   2.687   1.201  0.0703  1.3572 -0.3042
 8249TIP3    H246163   4.078   2.671   1.119 -0.4155 -0.8528 -0.6847
 8250TIP3   OH246164   3.909   1.338   4.457 -0.1802  0.0797  0.5515
 8250TIP3    H146165   3.965   1.315   4.382 -1.0680 -0.2700 -0.0173
 8250TIP3    H246166   3.826   1.364   4.417 -0.9670 -0.9656  1.4572
 8251TIP3   OH246167   0.705   5.021  13.109 -0.3217 -0.0719 -0.0820
 8251TIP3    H146168   0.732   5.006  13.200 -0.9727 -1.5708 -0.1016
 8251TIP3    H246169   0.742   5.106  13.087 -1.5627  1.1436  2.1348
 8252TIP3   OH246170   5.165   4.506   3.336 -0.2461 -0.0042  0.1144
 8252TIP3    H146171   5.111   4.466   3.267 -1.3954 -0.0940  1.0199
 8252TIP3    H246172   5.164   4.599   3.316 -0.6984 -0.0126  0.0729
 8253TIP3   OH246173   5.477   2.762  12.667  0.1174  0.2849 -0.2652
 8253TIP3    H146174   5.540   2.745  12.738  0.1943 -1.7380 -0.7592
 8253TIP3    H246175   5.531   2.769  12.588 -0.2060 -1.2362 -0.6559
 8254TIP3   OH246176   3.836   1.386   2.148 -0.5187  0.4199 -0.3099
 8254TIP3    H146177   3.848   1.372   2.241 -2.3530 -0.2061 -0.1129
 8254TIP3    H246178   3.787   1.468   2.142  0.5821  1.0611 -0.8104
 8255TIP3   OH246179   3.416   1.849  17.069  0.0302  0.0691  0.2499
 8255TIP3    H146180   3.453   1.936  17.084  1.8323 -0.4464 -0.9684
 8255TIP3    H246181   3.483   1.802  17.020 -0.6559 -2.2232  1.3710
 8256TIP3   OH246182   6.716   0.747   5.988 -0.0330 -0.8282 -0.2221
 8256TIP3    H146183   6.741   0.700   5.908 -0.7701 -0.3580 -0.7401
 8256TIP3    H246184   6.653   0.812   5.959  2.4924  1.9808  0.1000
 8257TIP3   OH246185   1.531   3.959  16.858 -0.0153 -0.2713 -0.0489
 8257TIP3    H146186   1.595   3.903  16.901 -0.8328  0.3387  2.1071
 8257TIP3    H246187   1.487   3.901  16.795  0.8843 -1.3478  0.2840
 8258TIP3   OH246188   1.941   1.964   1.813  0.5225  0.0183  0.2661
 8258TIP3    H146189   1.905   2.000   1.893  0.3469  0.2520  0.0821
 8258TIP3    H246190   1.872   1.974   1.748  0.7699  0.1014  0.0112
 8259TIP3   OH246191   1.241   5.177   4.544 -0.3648  0.3093 -0.3806
 8259TIP3    H146192   1.215   5.198   4.454 -2.1113  0.8733  0.2103
 8259TIP3    H246193   1.169   5.209   4.598  0.5666 -0.1720  1.2232
 8260TIP3   OH246194   2.463   0.191   5.926 -0.4899 -0.7670  0.4205
 8260TIP3    H146195   2.509   0.265   5.886 -2.1723 -0.4853 -1.1440
 8260TIP3    H246196   2.426   0.227   6.007 -0.1299 -0.2705  0.3695
 8261TIP3   OH246197   6.613   1.723  13.247  0.7792 -0.0831  0.8011
 8261TIP3    H146198   6.520   1.745  13.243  0.7800 -0.2008 -2.0335
 8261TIP3    H246199   6.615   1.631  13.272 -0.0401 -0.6912 -1.1925
 8262TIP3   OH246200   2.174   5.134   3.316 -0.5198 -0.0434 -0.3198
 8262TIP3    H146201   2.237   5.064   3.333 -0.8321 -0.2791 -0.1229
 8262TIP3    H246202   2.097   5.089   3.281 -0.7299  0.2004 -0.1728
 8263TIP3   OH246203   2.072   3.298   2.340  0.6054  0.1123 -0.4213
 8263TIP3    H146204   2.054   3.282   2.432  1.6650  0.0516 -0.2155
 8263TIP3    H246205   2.158   3.340   2.339  0.0698  1.2408 -1.2990
 8264TIP3   OH246206   3.414   1.373   2.534  0.2227  0.4215  0.3549
 8264TIP3    H146207   3.499   1.343   2.566 -0.5393  0.1965  2.3544
 8264TIP3    H246208   3.389   1.308   2.468  0.4194 -1.0606  1.6740
 8265TIP3   OH246209   0.782   3.742  11.502  0.2257 -0.0461  0.1209
 8265TIP3    H146210   0.762   3.685  11.428  2.1913  1.0492 -1.3798
 8265TIP3    H246211   0.697   3.759  11.544 -0.8592 -1.2169 -1.4950
 8266TIP3   OH246212   6.471   0.540  13.172  0.1765 -0.2271  0.3544
 8266TIP3    H146213   6.455   0.458  13.124  0.1506  0.2451 -0.4536
 8266TIP3    H246214   6.554   0.525  13.218  0.6317 -0.3886 -0.5061
 8267TIP3   OH246215   1.538   0.555  14.740 -0.2829  0.2609 -0.3348
 8267TIP3    H146216   1.551   0.595  14.826  1.1830  1.7114 -1.1636
 8267TIP3    H246217   1.600   0.482  14.738 -0.3317  0.2143 -0.1432
 8268TIP3   OH246218   0.013   4.830  12.070 -0.1127 -0.2373 -0.3536
 8268TIP3    H146219   0.095   4.802  12.028 -1.2299 -0.5907 -2.4045
 8268TIP3    H246220   0.026   4.923  12.088  0.1518  0.1241 -2.2320
 8269TIP3   OH246221   6.337   3.763   5.839  0.0870 -0.0586 -0.0632
 8269TIP3    H146222   6.421   3.801   5.812  1.2669 -1.8150  0.9445
 8269TIP3    H246223   6.272   3.829   5.815  1.6568  1.0050 -1.6340
 8270TIP3   OH246224   2.592   2.415   4.486  0.2920  0.1296 -0.2310
 8270TIP3    H146225   2.671   2.441   4.438  0.4993 -1.6296 -0.9279
 8270TIP3    H246226   2.623   2.398   4.575  0.7337 -0.6048 -0.5135
 8271TIP3   OH246227   0.093   0.847  14.983 -0.0446  0.0826  0.1657
 8271TIP3    H146228   0.156   0.919  14.989  0.8550 -0.6992  0.3206
 8271TIP3    H246229   0.034   0.860  15.058  0.8098  0.0233  0.8628
 8272TIP3   OH246230   5.910   5.503   1.353  0.7102 -0.1479  0.7185
 8272TIP3    H146231   5.880   5.420   1.390 -0.8637  0.6145  1.2408
 8272TIP3    H246232   5.856   5.515   1.274  0.0713  0.9096  1.2869
 8273TIP3   OH246233   5.806   2.992   4.915  0.4588 -0.0946  0.1364
 8273TIP3    H146234   5.807   3.078   4.874  3.2708  0.4603  1.0961
 8273TIP3    H246235   5.836   2.932   4.846 -1.1587 -0.2873 -0.4297
 8274TIP3   OH246236   5.237   6.284  15.574  0.1379  0.0720 -0.1193
 8274TIP3    H146237   5.216   6.358  15.517  0.4669  0.1328 -0.1604
 8274TIP3    H246238   5.332   6.286  15.582  0.0434  0.6562  1.2161
 8275TIP3   OH246239   0.261   4.377  14.586  0.0143 -0.4619 -0.2327
 8275TIP3    H146240   0.201   4.391  14.513  0.8923 -0.9492 -1.0585
 8275TIP3    H246241   0.271   4.282  14.591  0.6088 -0.3882 -0.0001
 8276TIP3   OH246242   1.734   2.898   3.269  0.4156 -0.4891  0.0732
 8276TIP3    H146243   1.751   2.912   3.362 -0.4582  1.8381 -0.0506
 8276TIP3    H246244   1.808   2.846   3.239 -0.7831 -4.0793  2.6400
 8277TIP3   OH246245   4.511   5.672   5.257 -0.0985  0.2550  0.3786
 8277TIP3    H146246   4.447   5.638   5.319 -1.0251 -0.5824 -0.9845
 8277TIP3    H246247   4.589   5.619   5.271 -0.2665  0.1332  0.8840
 8278TIP3   OH246248   1.029   5.720  13.467  0.2615 -0.3365  0.0337
 8278TIP3    H146249   1.082   5.721  13.546  0.5910 -0.9386 -0.1716
 8278TIP3    H246250   0.982   5.803  13.468  0.9504  0.0539  0.3974
 8279TIP3   OH246251   0.608   5.001  10.869 -0.1900  0.0008 -0.1989
 8279TIP3    H146252   0.612   5.072  10.805  0.6759  0.2087  0.0647
 8279TIP3    H246253   0.516   4.975  10.871 -0.4046  0.6906 -0.7606
 8280TIP3   OH246254   4.091   4.240  12.413  0.0034 -0.3559 -0.0540
 8280TIP3    H146255   4.055   4.304  12.351  2.3364 -0.6239 -1.8345
 8280TIP3    H246256   4.059   4.269  12.499  0.2540  2.7134 -0.8635
 8281TIP3   OH246257   4.326   3.688   2.525 -0.6363  0.1888 -0.1321
 8281TIP3    H146258   4.291   3.738   2.599 -0.7684 -0.4877  0.2748
 8281TIP3    H246259   4.249   3.671   2.470 -1.0478 -1.5528  0.9118
 8282TIP3   OH246260   6.183   5.034   6.306  0.5338 -0.4827 -0.5290
 8282TIP3    H146261   6.114   4.969   6.323  1.2690 -1.0199  0.4710
 8282TIP3    H246262   6.157   5.110   6.358 -0.2216 -0.0001 -1.5473
 8283TIP3   OH246263   4.382   3.082   2.165 -0.1724  0.1682 -0.1916
 8283TIP3    H146264   4.383   3.169   2.206 -2.3163 -0.4159  1.3039
 8283TIP3    H246265   4.308   3.084   2.105  0.9279 -0.0733 -1.6181
 8284TIP3   OH246266   3.655   0.970  11.522 -0.1946  0.0504  0.5210
 8284TIP3    H146267   3.647   0.877  11.503 -0.9133  0.5886 -2.3147
 8284TIP3    H246268   3.748   0.983  11.543  0.2843 -1.0674 -0.7850
 8285TIP3   OH246269   5.532   1.870  15.587 -0.6071 -0.3051  0.2058
 8285TIP3    H146270   5.475   1.947  15.592 -2.7477 -1.6788 -1.1152
 8285TIP3    H246271   5.475   1.797  15.614  0.4118 -1.7987 -1.4428
 8286TIP3   OH246272   4.913   1.170   0.494  0.0005  0.2316  0.2771
 8286TIP3    H146273   4.925   1.180   0.399  1.8344  1.6208  0.6043
 8286TIP3    H246274   4.837   1.224   0.515 -0.2289  0.1625 -0.3587
 8287TIP3   OH246275   2.128   6.413  12.873 -0.9530 -0.1771 -0.2558
 8287TIP3    H146276   2.151   6.436  12.963  1.0083 -0.8978 -0.5158
 8287TIP3    H246277   2.107   6.497  12.831 -0.5878  0.3290  0.5468
 8288TIP3   OH246278   0.765   5.046   4.783  0.5061 -0.2836  0.1726
 8288TIP3    H146279   0.685   5.035   4.732  1.0774  0.6049 -0.9681
 8288TIP3    H246280   0.815   5.113   4.735  0.3254  1.9149  2.7904
 8289TIP3   OH246281   0.695   2.330   4.021  0.4860 -0.6395 -0.9472
 8289TIP3    H146282   0.627   2.283   4.069  1.7221 -0.7103  0.8295
 8289TIP3    H246283   0.752   2.262   3.986  1.3754 -0.5544  0.2634
 8290TIP3   OH246284   5.869   4.836   2.859  0.2032  0.5387 -0.7386
 8290TIP3    H146285   5.804   4.843   2.928 -2.2637 -1.3564 -2.6885
 8290TIP3    H246286   5.906   4.924   2.851 -1.3420  1.4214  1.1376
 8291TIP3   OH246287   2.091   3.992  15.714  0.1200  0.4092 -0.6188
 8291TIP3    H146288   2.158   4.038  15.764  0.3887 -0.7710  0.1672
 8291TIP3    H246289   2.108   3.899  15.731 -2.6839  0.0635  0.9753
 8292TIP3   OH246290   3.602   4.949  13.198 -0.2114 -0.0450 -0.1463
 8292TIP3    H146291   3.531   4.906  13.150  0.8064 -0.4213 -1.3730
 8292TIP3    H246292   3.620   4.890  13.271 -0.5503 -0.4086 -0.3501
 8293TIP3   OH246293   0.364   4.323  14.184 -0.2591 -0.2927 -0.4514
 8293TIP3    H146294   0.377   4.398  14.126  0.3558  0.4428  0.6050
 8293TIP3    H246295   0.316   4.358  14.259  2.4413 -0.2349  1.3994
 8294TIP3   OH246296   5.645   3.501  13.311 -0.3506 -0.9031  0.1046
 8294TIP3    H146297   5.607   3.574  13.360 -1.7417 -1.7666  0.3403
 8294TIP3    H246298   5.585   3.487  13.238  0.0416 -1.6490 -0.0881
 8295TIP3   OH246299   1.200   0.126   2.971 -0.7045 -0.2657 -0.3580
 8295TIP3    H146300   1.110   0.136   2.941 -0.6775 -2.0160 -1.1613
 8295TIP3    H246301   1.193   0.116   3.066 -1.2700  0.3601 -0.3262
 8296TIP3   OH246302   2.777   4.693  16.175  0.6937 -0.3165 -0.3106
 8296TIP3    H146303   2.689   4.671  16.206 -0.0019  1.0777 -1.2188
 8296TIP3    H246304   2.811   4.753  16.242  0.5986 -0.1469 -0.4127
 8297TIP3   OH246305   3.914   0.096  14.393 -0.1871  0.2604 -0.3232
 8297TIP3    H146306   3.956   0.012  14.412 -0.6265  0.2209  0.5223
 8297TIP3    H246307   3.928   0.109  14.300  2.0826  0.4669 -0.0065
 8298TIP3   OH246308   5.177   3.948   0.186 -0.2978  0.6944 -0.4223
 8298TIP3    H146309   5.203   4.006   0.115  1.6667 -1.7450 -1.8692
 8298TIP3    H246310   5.118   3.885   0.145 -0.1045 -0.0259  0.3781
 8299TIP3   OH246311   5.459   3.693   4.010  0.4576 -0.3536  0.4995
 8299TIP3    H146312   5.518   3.624   3.979  0.0555  0.0761 -1.3371
 8299TIP3    H246313   5.485   3.771   3.959 -0.2672  0.3890  1.2449
 8300TIP3   OH246314   2.628   0.513  10.858  0.0273  0.2952 -0.0293
 8300TIP3    H146315   2.648   0.527  10.765 -1.6616 -3.3584 -1.1438
 8300TIP3    H246316   2.661   0.425  10.876 -0.5410  0.5491  2.5788
 8301TIP3   OH246317   5.232   4.018  13.238 -0.7450 -0.0930  0.3178
 8301TIP3    H146318   5.207   4.076  13.310  1.7489  0.1659  1.0510
 8301TIP3    H246319   5.314   4.054  13.205 -0.6870 -1.5042 -1.2119
 8302TIP3   OH246320   4.426   1.984  10.944  0.6928 -0.4974 -0.0522
 8302TIP3    H146321   4.476   1.910  10.910 -1.0237 -1.7084 -0.0755
 8302TIP3    H246322   4.442   1.981  11.039  0.3454 -1.1227 -0.0101
 8303TIP3   OH246323   1.825   2.362   1.237 -0.1787 -0.2713 -0.2745
 8303TIP3    H146324   1.877   2.346   1.315 -2.8254 -2.3338  1.2302
 8303TIP3    H246325   1.866   2.309   1.169  0.4548 -0.8120  0.5160
 8304TIP3   OH246326   0.821   0.300   4.916  0.7488 -0.7004 -0.0064
 8304TIP3    H146327   0.740   0.350   4.925  0.1311 -1.1252 -2.4600
 8304TIP3    H246328   0.816   0.234   4.985  0.5743  1.1920  1.9138
 8305TIP3   OH246329   0.895   6.611  12.187 -0.7390 -0.6367 -0.5164
 8305TIP3    H146330   0.969   6.661  12.221 -1.6738  0.6253 -0.2264
 8305TIP3    H246331   0.857   6.568  12.263 -0.4324 -1.1049 -0.6291
 8306TIP3   OH246332   1.420   3.122   5.796  0.1069  0.4708  0.2708
 8306TIP3    H146333   1.456   3.144   5.882 -2.3684  1.5205  1.1494
 8306TIP3    H246334   1.360   3.194   5.776 -1.9963 -1.4119 -0.6878
 8307TIP3   OH246335   1.794   4.621  11.916  0.2258 -0.2890  0.7005
 8307TIP3    H146336   1.779   4.541  11.864 -0.8135 -0.6845  1.5691
 8307TIP3    H246337   1.875   4.657  11.881  0.6411 -1.6474  0.1794
 8308TIP3   OH246338   2.424   4.839   4.764  0.1233  0.3613 -0.5391
 8308TIP3    H146339   2.337   4.834   4.803  0.8522  1.7655  1.4087
 8308TIP3    H246340   2.485   4.820   4.835  1.4548  0.1770 -1.6650
 8309TIP3   OH246341   5.941   3.784   1.975 -0.4565 -0.1922 -0.3986
 8309TIP3    H146342   5.968   3.692   1.977 -1.0342 -0.3706 -0.7134
 8309TIP3    H246343   5.983   3.820   1.897  0.5956  0.0830  0.2620
 8310TIP3   OH246344   6.491   1.065  15.059  0.0164 -0.5791 -0.7754
 8310TIP3    H146345   6.441   1.020  14.991 -0.8341  0.1270 -0.6401
 8310TIP3    H246346   6.440   1.051  15.139  0.3684 -0.3801 -0.5164
 8311TIP3   OH246347   6.673   2.584  10.921  0.5196  0.0510 -0.8011
 8311TIP3    H146348   6.627   2.527  10.859  1.8082 -1.3315 -0.5630
 8311TIP3    H246349   6.666   2.671  10.884  0.9960 -0.6912 -2.7411
 8312TIP3   OH246350   5.345   5.001  10.630  0.0220  0.1810 -0.2178
 8312TIP3    H146351   5.326   4.978  10.721  0.5298  2.0740  0.4085
 8312TIP3    H246352   5.283   5.070  10.608  1.3284  1.3093 -0.5459
 8313TIP3   OH246353   2.407   5.574   3.111  0.0059  0.0907  0.1977
 8313TIP3    H146354   2.333   5.515   3.103  1.3074 -1.3991 -1.6969
 8313TIP3    H246355   2.420   5.585   3.206 -1.0290 -1.6670  0.5713
 8314TIP3   OH246356   0.620   5.857  12.503  0.0326 -0.0768  0.7876
 8314TIP3    H146357   0.544   5.813  12.465  1.5432 -1.2430 -1.0486
 8314TIP3    H246358   0.671   5.886  12.428  0.4677  2.4548  1.9831
 8315TIP3   OH246359   5.039   0.756   6.329  0.0827  0.1188  0.8944
 8315TIP3    H146360   5.057   0.810   6.252 -0.7856  0.5932  1.0081
 8315TIP3    H246361   4.947   0.775   6.351  0.4863  0.5019  2.4162
 8316TIP3   OH246362   5.885   0.448   3.455 -0.0487 -0.5266 -0.0814
 8316TIP3    H146363   5.974   0.419   3.432 -0.1249 -0.2122 -0.7821
 8316TIP3    H246364   5.839   0.366   3.476  0.0022 -0.8313 -1.1241
 8317TIP3   OH246365   4.497   0.563  14.952 -0.4264 -0.0111  0.5361
 8317TIP3    H146366   4.410   0.525  14.945 -1.0201  1.5126 -2.9903
 8317TIP3    H246367   4.482   0.657  14.957  1.0287  0.2080  1.4325
 8318TIP3   OH246368   2.333   4.760   5.090  0.3440 -0.4333  0.1480
 8318TIP3    H146369   2.329   4.847   5.050 -0.1893  0.4893  2.0729
 8318TIP3    H246370   2.422   4.729   5.073  0.4607  0.3732 -0.7726
 8319TIP3   OH246371   5.130   1.702   3.716  0.2604 -0.0819  0.3084
 8319TIP3    H146372   5.093   1.696   3.805  0.8442 -2.4631  0.4425
 8319TIP3    H246373   5.198   1.770   3.723 -2.6016  3.0136  0.5115
 8320TIP3   OH246374   6.345   2.406   4.092 -0.4924  0.2530 -0.0006
 8320TIP3    H146375   6.373   2.325   4.048 -0.6727  0.0118  0.3231
 8320TIP3    H246376   6.317   2.463   4.021 -0.2254  0.0827 -0.2442
 8321TIP3   OH246377   0.870   1.229   1.340  0.4851  0.2775 -0.4457
 8321TIP3    H146378   0.844   1.157   1.282  1.2119  0.6933 -1.3264
 8321TIP3    H246379   0.958   1.205   1.370  0.5709  0.6110 -0.4253
 8322TIP3   OH246380   0.346   4.244  12.433 -0.7032  0.3257  0.3645
 8322TIP3    H146381   0.300   4.240  12.517 -0.6694  0.0778  0.3700
 8322TIP3    H246382   0.312   4.170  12.383 -0.4937  0.2908  0.2742
 8323TIP3   OH246383   6.687   4.637  13.896 -0.5529 -0.0114  0.6294
 8323TIP3    H146384   6.650   4.611  13.980  2.6225 -0.3596  2.0770
 8323TIP3    H246385   6.773   4.674  13.918  0.3667 -0.0128 -2.4682
 8324TIP3   OH246386   6.630   6.056   5.681 -0.4076 -0.2618 -0.0787
 8324TIP3    H146387   6.659   6.053   5.590  1.1886 -0.8653  0.4133
 8324TIP3    H246388   6.551   6.003   5.683 -0.2247 -0.5809 -1.0472
 8325TIP3   OH246389   5.719   2.162  15.727 -0.1359 -0.5843 -0.5422
 8325TIP3    H146390   5.751   2.218  15.656  2.2828 -1.8221 -0.5124
 8325TIP3    H246391   5.643   2.117  15.690  0.0140  0.1065 -1.7374
 8326TIP3   OH246392   0.944   2.623   2.985  0.6347  0.7916  0.4774
 8326TIP3    H146393   0.927   2.646   3.076  1.8551  1.7038  0.4920
 8326TIP3    H246394   1.030   2.660   2.966  2.0703 -2.3805  0.0260
 8327TIP3   OH246395   2.945   6.251  15.671 -0.0811 -0.1110 -0.1802
 8327TIP3    H146396   2.883   6.322  15.684 -1.1271 -0.9166 -0.5977
 8327TIP3    H246397   3.006   6.283  15.604 -1.7832 -0.3394 -1.9271
 8328TIP3   OH246398   2.353   5.475   5.281  0.8042 -0.5420 -0.3203
 8328TIP3    H146399   2.333   5.428   5.362  0.5386 -1.1217 -0.7220
 8328TIP3    H246400   2.446   5.496   5.289  0.2152  1.8607  1.3899
 8329TIP3   OH246401   0.213   2.177   5.442 -0.2123 -0.5714 -0.2076
 8329TIP3    H146402   0.156   2.230   5.386 -1.9281 -0.7565  1.2588
 8329TIP3    H246403   0.185   2.087   5.427 -0.1284 -0.6910  0.3073
 8330TIP3   OH246404   3.242   3.463  14.534 -0.4899 -0.4530 -0.1402
 8330TIP3    H146405   3.215   3.374  14.515 -1.2129 -0.1247 -0.7230
 8330TIP3    H246406   3.268   3.499  14.449 -2.1583  0.5102 -0.3048
 8331TIP3   OH246407   0.849   5.253  14.184  0.2334 -0.4576 -0.8387
 8331TIP3    H146408   0.785   5.199  14.231 -1.0463 -0.1948 -2.1838
 8331TIP3    H246409   0.925   5.196  14.174  0.1278 -0.8883  0.5544
 8332TIP3   OH246410   5.416   2.883   0.586  0.2966 -0.3462 -0.1674
 8332TIP3    H146411   5.331   2.925   0.575  0.0421 -0.6842  0.4373
 8332TIP3    H246412   5.419   2.816   0.517 -0.3710 -1.0226  0.4418
 8333TIP3   OH246413   3.831   6.326   6.083  0.6138  0.9189  0.3831
 8333TIP3    H146414   3.823   6.339   5.989 -1.2601  1.2821  0.5606
 8333TIP3    H246415   3.912   6.275   6.093  0.6973  0.6249 -1.4304
 8334TIP3   OH246416   0.941   5.401  12.184 -0.2019  0.5799  0.0387
 8334TIP3    H146417   0.862   5.349  12.201 -0.3818  0.3347 -1.4089
 8334TIP3    H246418   0.971   5.429  12.271 -0.8694 -0.8127  0.7482
 8335TIP3   OH246419   6.198   3.474  14.307  0.0609 -0.1197 -0.0825
 8335TIP3    H146420   6.281   3.458  14.262  1.0743  2.2200  0.7704
 8335TIP3    H246421   6.139   3.505  14.239  0.3142 -0.4761 -0.4674
 8336TIP3   OH246422   1.205   1.018   5.736  0.2412 -0.2654  0.2310
 8336TIP3    H146423   1.113   1.039   5.753  0.1173 -1.0659  0.5850
 8336TIP3    H246424   1.254   1.070   5.800  0.0001 -0.2792  0.4261
 8337TIP3   OH246425   3.381   1.104   6.248  0.4416 -0.1184  0.4010
 8337TIP3    H146426   3.377   1.127   6.340  1.1281  1.1282  0.1536
 8337TIP3    H246427   3.384   1.189   6.202  0.6542 -0.7091 -0.7253
 8338TIP3   OH246428   5.446   4.045  12.580  0.0556  0.3252 -0.5390
 8338TIP3    H146429   5.534   4.080  12.590  0.6157 -1.4209  1.1661
 8338TIP3    H246430   5.455   3.977  12.513  0.3053 -0.6580  0.4573
 8339TIP3   OH246431   4.662   0.754   3.400 -0.4369  0.2816 -0.6855
 8339TIP3    H146432   4.741   0.714   3.434 -0.9496 -0.3790 -0.2388
 8339TIP3    H246433   4.652   0.835   3.450 -0.4099  0.0291 -0.2686
 8340TIP3   OH246434   3.095   6.047  14.818  0.3478  0.1714  0.1420
 8340TIP3    H146435   3.175   6.075  14.861  0.2382 -0.0585  0.5039
 8340TIP3    H246436   3.030   6.114  14.842 -0.5886 -1.5901  3.1301
 8341TIP3   OH246437   1.515   0.669  13.911 -0.4846 -0.3888 -0.2911
 8341TIP3    H146438   1.556   0.595  13.955  0.6919  0.1216 -0.4803
 8341TIP3    H246439   1.524   0.650  13.818 -0.4560 -0.1573 -0.3363
 8342TIP3   OH246440   1.441   3.571  15.999  0.1258 -0.0987 -0.0313
 8342TIP3    H146441   1.373   3.541  16.059 -0.2165 -1.0615 -0.8764
 8342TIP3    H246442   1.500   3.496  15.990  0.7158  0.3711 -0.1319
 8343TIP3   OH246443   0.253   6.461  13.836 -0.3244 -0.5230 -0.0211
 8343TIP3    H146444   0.301   6.537  13.802  1.3028 -1.4390  0.1151
 8343TIP3    H246445   0.206   6.426  13.760 -0.5293  0.2134 -0.2376
 8344TIP3   OH246446   2.769   6.612  16.075  0.0743  0.2759 -0.0868
 8344TIP3    H146447   2.756   6.531  16.125 -0.7577  0.3935 -0.1059
 8344TIP3    H246448   2.837   6.659  16.124 -0.9360  0.5227  1.1332
 8345TIP3   OH246449   6.136   6.575   5.981  0.4883 -0.1251 -0.2647
 8345TIP3    H146450   6.147   6.532   6.066 -1.2178 -1.1081 -0.4944
 8345TIP3    H246451   6.063   6.529   5.940  0.4742  1.1401 -1.7610
 8346TIP3   OH246452   3.003   5.814   3.223 -0.1514 -0.0708 -0.0797
 8346TIP3    H146453   3.000   5.719   3.234  0.7445  0.0249  1.1808
 8346TIP3    H246454   3.052   5.827   3.142  1.3641 -0.6635  0.7165
 8347TIP3   OH246455   1.242   5.539   4.593  0.1387  0.5690  0.0260
 8347TIP3    H146456   1.247   5.634   4.578  0.8570  0.3715 -1.1721
 8347TIP3    H246457   1.237   5.530   4.688 -1.6791  1.8628  0.0995
 8348TIP3   OH246458   3.225   1.189   2.417  0.0617 -0.5674  0.4243
 8348TIP3    H146459   3.158   1.188   2.485  0.2275  1.9733  0.7340
 8348TIP3    H246460   3.294   1.132   2.450 -1.1279 -1.7407  0.9637
 8349TIP3   OH246461   2.935   5.066  16.756 -0.3002 -0.0046  0.7729
 8349TIP3    H146462   2.962   5.154  16.782 -0.5921 -0.3275  2.2717
 8349TIP3    H246463   2.935   5.068  16.661  1.9504  0.9195  0.7472
 8350TIP3   OH246464   5.860   2.600  15.090 -0.8999  0.1306  0.2206
 8350TIP3    H146465   5.802   2.663  15.047 -2.2499 -0.4329  1.1297
 8350TIP3    H246466   5.880   2.640  15.175 -0.7123 -0.0909  0.2809
 8351TIP3   OH246467   6.399   2.735   2.469 -0.0803 -0.0982 -0.0809
 8351TIP3    H146468   6.487   2.709   2.441  0.0434 -0.8614  0.9758
 8351TIP3    H246469   6.408   2.828   2.491  0.4332 -0.1397 -0.0972
 8352TIP3   OH246470   5.010   4.284  15.699  0.5180  0.8347 -0.2098
 8352TIP3    H146471   5.009   4.202  15.747 -0.1524  0.5504 -0.6812
 8352TIP3    H246472   4.930   4.329  15.728  1.3111  1.7147  0.6890
 8353TIP3   OH246473   1.832   4.661   1.068 -0.0682 -0.3512 -0.0716
 8353TIP3    H146474   1.829   4.571   1.035 -0.3683 -0.5291  0.4353
 8353TIP3    H246475   1.792   4.656   1.154  0.6330  0.1292  0.2924
 8354TIP3   OH246476   2.731   4.116   0.236 -0.3840  0.8305 -0.1603
 8354TIP3    H146477   2.664   4.123   0.305 -1.8073 -0.2420 -1.3556
 8354TIP3    H246478   2.681   4.122   0.154  1.0149  0.1912 -1.0915
 8355TIP3   OH246479   2.537   5.327  15.562 -0.5112  0.2923 -0.4468
 8355TIP3    H146480   2.618   5.329  15.614 -0.6940 -1.1927 -0.0699
 8355TIP3    H246481   2.483   5.397  15.599 -0.1968 -0.0269  0.6405
 8356TIP3   OH246482   1.781   0.652   5.164  0.6125 -0.2220  0.0161
 8356TIP3    H146483   1.751   0.562   5.175 -1.9406  0.2610 -2.0436
 8356TIP3    H246484   1.753   0.696   5.244  0.6934 -0.9714  0.4672
 8357TIP3   OH246485   3.258   1.772   4.753 -0.0072  0.0248 -0.3589
 8357TIP3    H146486   3.277   1.855   4.795  0.8840  0.1935 -1.0763
 8357TIP3    H246487   3.189   1.793   4.689 -0.1985  0.0867 -0.1355
 8358TIP3   OH246488   4.488   2.387  12.623 -0.3553  0.1962 -0.2057
 8358TIP3    H146489   4.513   2.300  12.593  0.9057  1.0805 -1.8396
 8358TIP3    H246490   4.554   2.410  12.688 -0.8806 -0.1804  0.4727
 8359TIP3   OH246491   0.847   4.422  12.225  0.2458  0.2186 -0.3356
 8359TIP3    H146492   0.895   4.496  12.187 -0.9254  1.6682  0.9028
 8359TIP3    H246493   0.881   4.414  12.314  0.9563 -1.3264 -0.7014
 8360TIP3   OH246494   3.524   3.805  15.585 -0.7892  0.0063  0.0184
 8360TIP3    H146495   3.607   3.811  15.631 -0.9405  1.9952  0.1156
 8360TIP3    H246496   3.544   3.760  15.503  0.5561  1.1530 -0.3116
 8361TIP3   OH246497   1.511   5.219  16.208  1.0961 -0.0146 -0.4958
 8361TIP3    H146498   1.438   5.277  16.187  1.0947  0.6777  1.2616
 8361TIP3    H246499   1.485   5.134  16.172 -0.1363  0.4378 -0.7388
 8362TIP3   OH246500   1.936   1.579   4.497  0.1273  0.4840 -0.2419
 8362TIP3    H146501   1.964   1.668   4.476  0.4767  0.2422 -0.8186
 8362TIP3    H246502   1.957   1.528   4.419  1.0279 -0.3426  0.5141
 8363TIP3   OH246503   2.176   4.303  15.457 -0.0732  0.6385 -0.0419
 8363TIP3    H146504   2.191   4.210  15.468  0.6529  0.8836  1.3550
 8363TIP3    H246505   2.262   4.339  15.434 -0.6415  0.7939 -2.0368
 8364TIP3   OH246506   4.908   3.594   2.396 -0.3540  0.0781 -0.8867
 8364TIP3    H146507   4.896   3.613   2.303  1.1521  1.4784 -0.8512
 8364TIP3    H246508   4.938   3.677   2.433  0.5845 -0.8637  0.5391
 8365TIP3   OH246509   6.483   4.439   3.772  0.0687  0.6214 -0.6224
 8365TIP3    H146510   6.399   4.392   3.767 -0.1293  1.0410 -1.3567
 8365TIP3    H246511   6.541   4.378   3.818 -0.0016 -0.6212 -2.0999
 8366TIP3   OH246512   0.729   0.161  16.471 -0.7319 -0.1223  0.1033
 8366TIP3    H146513   0.727   0.172  16.376 -0.8647 -0.9649  0.0054
 8366TIP3    H246514   0.742   0.250  16.504 -0.2721  0.1279 -0.7098
 8367TIP3   OH246515   3.299   0.141   5.852  0.0561 -0.9002  0.3594
 8367TIP3    H146516   3.389   0.161   5.878  0.1944 -0.4271 -0.4334
 8367TIP3    H246517   3.250   0.139   5.934  1.0274 -2.5634  0.9492
 8368TIP3   OH246518   4.380   3.543  12.083 -0.5447  1.0748 -0.3208
 8368TIP3    H146519   4.419   3.467  12.126  1.3278  1.7557 -0.7581
 8368TIP3    H246520   4.299   3.558  12.132 -0.1576 -0.2174  0.7926
 8369TIP3   OH246521   5.923   6.622   5.293  0.2502 -0.5112  0.0870
 8369TIP3    H146522   5.866   6.632   5.369  0.0042 -0.6057 -0.0828
 8369TIP3    H246523   5.864   6.629   5.218  0.5546  0.0395 -0.1091
 8370TIP3   OH246524   2.186   6.632   0.068 -0.1940  0.2589 -0.0490
 8370TIP3    H146525   2.265   6.623   0.015  1.3896  0.0927  2.1907
 8370TIP3    H246526   2.157   6.542   0.083 -0.4231  0.2885 -0.3000
 8371TIP3   OH246527   3.432   6.131   1.301  0.4605 -0.4166  0.4921
 8371TIP3    H146528   3.496   6.087   1.358  0.7718 -2.0415 -1.0155
 8371TIP3    H246529   3.485   6.189   1.246  0.5441 -1.0720 -0.1303
 8372TIP3   OH246530   1.482   2.098  11.405 -0.0947 -0.0056  0.5450
 8372TIP3    H146531   1.529   2.039  11.464  0.6551 -1.0133 -0.9859
 8372TIP3    H246532   1.443   2.041  11.339  0.2371  1.1518 -0.7141
 8373TIP3   OH246533   6.619   5.604   0.158 -0.4174 -0.1118  0.5189
 8373TIP3    H146534   6.662   5.587   0.242  0.5645 -0.4349 -0.0261
 8373TIP3    H246535   6.541   5.653   0.180 -2.0656 -3.1285  1.9855
 8374TIP3   OH246536   2.453   3.260   2.967  0.0768 -0.2133 -0.0163
 8374TIP3    H146537   2.458   3.338   3.023 -1.1234  0.0174 -0.2044
 8374TIP3    H246538   2.512   3.197   3.008  1.8920  1.1377 -0.4351
 8375TIP3   OH246539   1.328   0.600  16.716  0.1576  0.4711 -0.5348
 8375TIP3    H146540   1.414   0.581  16.754  0.3519  0.7899 -0.8048
 8375TIP3    H246541   1.266   0.555  16.772  0.2806  2.3135  1.2095
 8376TIP3   OH246542   0.078   6.794   1.220 -1.0210  0.0716 -0.2172
 8376TIP3    H146543   0.079   6.709   1.264 -2.5987  0.2006  0.1230
 8376TIP3    H246544   0.005   6.841   1.261  1.4115  2.6381  1.5211
 8377TIP3   OH246545   3.585   0.393  13.483 -0.6499 -0.2915 -0.2852
 8377TIP3    H146546   3.650   0.407  13.552 -2.4453  0.6686  1.2809
 8377TIP3    H246547   3.603   0.461  13.419  0.7505 -0.9141 -0.6000
 8378TIP3   OH246548   5.670   4.155  12.420 -0.2475 -0.0908 -0.1352
 8378TIP3    H146549   5.718   4.116  12.493  0.2101 -0.2678 -0.5253
 8378TIP3    H246550   5.643   4.241  12.452 -0.3477 -0.2995  0.3588
 8379TIP3   OH246551   1.931   3.623   2.801  0.1734  0.5573  0.2614
 8379TIP3    H146552   1.906   3.713   2.780  1.0474  0.4582 -1.3553
 8379TIP3    H246553   1.868   3.569   2.754  1.7356  0.3320 -1.6951
 8380TIP3   OH246554   1.686   3.614   0.283  0.4945 -0.1211 -0.2155
 8380TIP3    H146555   1.639   3.570   0.354  1.5162  0.7653  1.0560
 8380TIP3    H246556   1.702   3.545   0.219 -0.4965 -0.9404  0.3747
 8381TIP3   OH246557   4.711   3.786  17.028  0.0830  0.3663  0.0892
 8381TIP3    H146558   4.771   3.721  17.064 -0.9618 -0.5987  0.1552
 8381TIP3    H246559   4.629   3.771  17.075 -0.5732  0.8118 -0.8864
 8382TIP3   OH246560   3.235   1.363   4.506 -0.1901 -0.4494  0.0348
 8382TIP3    H146561   3.157   1.325   4.465 -0.8553 -1.3899  2.0400
 8382TIP3    H246562   3.215   1.362   4.600  1.3724  1.3297  0.4403
 8383TIP3   OH246563   0.621   0.776   1.366 -0.3355  0.8798 -0.3958
 8383TIP3    H146564   0.620   0.757   1.272  1.6535  0.2264 -0.3332
 8383TIP3    H246565   0.621   0.871   1.372  1.1128  0.9472 -1.1410
 8384TIP3   OH246566   4.535   4.211   3.089 -0.4295 -0.4095 -0.1966
 8384TIP3    H146567   4.561   4.129   3.133 -1.3713 -0.7705 -0.3001
 8384TIP3    H246568   4.469   4.184   3.026 -1.2589  0.5361  0.2587
 8385TIP3   OH246569   4.576   0.935   2.071  0.2493 -0.2318  0.1502
 8385TIP3    H146570   4.579   1.017   2.121  1.5594 -0.7687  0.9842
 8385TIP3    H246571   4.499   0.945   2.014 -0.8603  0.7086  1.7338
 8386TIP3   OH246572   4.553   1.865  16.180 -0.0373 -0.0789  0.4501
 8386TIP3    H146573   4.620   1.864  16.112 -2.4822 -0.5604 -2.1563
 8386TIP3    H246574   4.503   1.945  16.163 -0.7096 -0.2082  1.7264
 8387TIP3   OH246575   1.034   3.123   0.121  0.1653  0.2199  0.1600
 8387TIP3    H146576   1.086   3.112   0.201  0.9709 -1.5442 -0.5583
 8387TIP3    H246577   0.949   3.084   0.143  0.9871 -2.0118 -0.3715
 8388TIP3   OH246578   0.917   2.436   5.025 -0.1255 -0.2468  0.0073
 8388TIP3    H146579   0.955   2.454   5.111 -0.8205  0.4591  0.1744
 8388TIP3    H246580   0.939   2.513   4.973  0.9901 -1.0144 -0.7089
 8389TIP3   OH246581   0.765   4.890  11.493  0.3752 -0.5255  0.3639
 8389TIP3    H146582   0.806   4.878  11.407  1.3838  1.4462  0.5111
 8389TIP3    H246583   0.784   4.809  11.540  0.9817 -1.0927 -0.8036
 8390TIP3   OH246584   1.367   4.038   3.454  0.4783  0.3384  0.1325
 8390TIP3    H146585   1.312   4.076   3.386  0.4116  2.2771  1.1859
 8390TIP3    H246586   1.434   3.990   3.407 -0.4376  0.3628 -1.2528
 8391TIP3   OH246587   3.042   1.632  15.279  0.6276  0.1566 -0.2402
 8391TIP3    H146588   3.012   1.571  15.211 -0.4556 -0.2653  0.5705
 8391TIP3    H246589   2.965   1.645  15.335  1.5038  0.4125  0.9617
 8392TIP3   OH246590   6.731   0.760  16.881 -0.0300  0.2477 -1.0087
 8392TIP3    H146591   6.805   0.713  16.921  0.8196  1.4508 -1.1188
 8392TIP3    H246592   6.770   0.812  16.811 -0.9438  1.0829 -0.9220
 8393TIP3   OH246593   0.040   1.583   0.634 -0.4440  0.7735 -0.5880
 8393TIP3    H146594   0.025   1.660   0.688  2.1724  0.0223  1.4445
 8393TIP3    H246595   0.082   1.616   0.555  0.6852  1.4883  0.2798
 8394TIP3   OH246596   4.215   5.591   3.825  0.3457 -0.1248  0.4473
 8394TIP3    H146597   4.187   5.500   3.826  0.4401 -0.1541  0.4353
 8394TIP3    H246598   4.207   5.621   3.915 -0.0271 -0.0414  0.3851
 8395TIP3   OH246599   2.866   5.855  13.785  0.0818  0.7410  0.1281
 8395TIP3    H146600   2.868   5.866  13.690  0.7424  0.8389  0.1524
 8395TIP3    H246601   2.776   5.826  13.804  0.3873 -0.8745 -0.7026
 8396TIP3   OH246602   0.070   0.351   2.125 -0.2600  0.2920 -0.4085
 8396TIP3    H146603   0.001   0.296   2.162  2.0177 -0.4057  3.2839
 8396TIP3    H246604   0.048   0.440   2.153 -0.4589  0.2875 -0.5538
 8397TIP3   OH246605   3.723   3.735  14.305 -0.1077  0.1703  0.0193
 8397TIP3    H146606   3.662   3.802  14.335 -2.6234 -1.4611 -1.1171
 8397TIP3    H246607   3.716   3.665  14.369 -0.3098 -0.5074 -0.7252
 8398TIP3   OH246608   3.264   5.337   1.049  0.3505 -0.1128 -0.0073
 8398TIP3    H146609   3.279   5.251   1.089  0.0164 -0.0944  0.1544
 8398TIP3    H246610   3.178   5.364   1.081 -0.2415 -0.4181 -1.2854
 8399TIP3   OH246611   5.367   4.406   0.780  0.3323 -0.3622  0.2765
 8399TIP3    H146612   5.307   4.391   0.853 -0.3896  1.5496  0.1466
 8399TIP3    H246613   5.358   4.500   0.761  3.0311 -0.1026 -0.0684
 8400TIP3   OH246614   3.887   6.050   4.461  0.3635 -0.2480 -0.6329
 8400TIP3    H146615   3.952   5.991   4.499  0.9757  1.0479  0.3803
 8400TIP3    H246616   3.922   6.138   4.474 -0.5169  0.3834 -2.1215
 8401TIP3   OH246617   4.012   4.975  15.955  0.3730  0.1928 -0.4612
 8401TIP3    H146618   4.093   4.926  15.941  0.7793  0.2632  1.4270
 8401TIP3    H246619   4.026   5.058  15.909  1.4964  0.3090  0.0636
 8402TIP3   OH246620   5.051   6.681  13.896 -0.0394  0.4865  0.0169
 8402TIP3    H146621   5.026   6.719  13.812  1.2990  0.7027 -0.3027
 8402TIP3    H246622   5.144   6.702  13.906  0.9534 -3.0781 -0.4045
 8403TIP3   OH246623   6.175   0.446   3.385  0.3846  0.2983  0.0807
 8403TIP3    H146624   6.260   0.419   3.351  0.7052  0.2245  0.9019
 8403TIP3    H246625   6.137   0.500   3.316  2.2193  2.5110  0.6806
 8404TIP3   OH246626   6.128   0.467   0.484  0.2343 -0.7301 -0.0425
 8404TIP3    H146627   6.100   0.554   0.513 -0.8904 -2.0512  3.4047
 8404TIP3    H246628   6.218   0.460   0.515 -0.4955 -1.5968  2.1444
 8405TIP3   OH246629   0.928   1.256  16.684  0.4938  0.0585 -0.1903
 8405TIP3    H146630   0.987   1.316  16.638  0.4582 -0.1080 -0.4532
 8405TIP3    H246631   0.962   1.169  16.663 -0.5176 -0.0949 -1.2655
 8406TIP3   OH246632   1.850   6.200   2.091  0.2420  0.3996  0.4665
 8406TIP3    H146633   1.877   6.192   2.182  2.0488 -1.3193 -0.1558
 8406TIP3    H246634   1.918   6.254   2.050 -0.0157  0.3184 -0.0813
 8407TIP3   OH246635   1.717   5.540  14.015  0.3724 -0.8142 -0.4262
 8407TIP3    H146636   1.730   5.463  14.071  1.1989 -0.6458 -0.3760
 8407TIP3    H246637   1.798   5.546  13.963 -0.1771 -0.6748 -1.2880
 8408TIP3   OH246638   0.792   6.131  15.960  1.0668 -0.5513  0.6625
 8408TIP3    H146639   0.789   6.153  15.867  2.6819 -0.0442  0.6952
 8408TIP3    H246640   0.771   6.213  16.005 -1.2451 -1.1408  0.7913
 8409TIP3   OH246641   3.118   0.520   3.198  0.1508 -0.1203 -0.3675
 8409TIP3    H146642   3.051   0.457   3.224  1.3509 -1.7527 -1.0166
 8409TIP3    H246643   3.131   0.504   3.104  1.3960  0.1718 -0.2718
 8410TIP3   OH246644   1.817   0.967  15.325  0.0273  0.1250  0.7719
 8410TIP3    H146645   1.803   0.873  15.312  0.1651  0.4316 -2.1522
 8410TIP3    H246646   1.912   0.976  15.332  0.0148  0.0563  1.0443
 8411TIP3   OH246647   0.929   2.363  12.270  0.0556  0.6250 -0.9399
 8411TIP3    H146648   0.975   2.400  12.346  1.1846 -0.3697 -1.1066
 8411TIP3    H246649   0.990   2.375  12.197 -0.3321  0.1059 -1.3580
 8412TIP3   OH246650   0.076   5.692   1.993  0.2733 -0.1496  0.1588
 8412TIP3    H146651   0.001   5.632   1.997 -0.5538  0.8818  0.5370
 8412TIP3    H246652   0.153   5.636   2.006 -0.2691 -1.5060 -1.9504
 8413TIP3   OH246653   6.688   5.299  14.141  0.2227 -0.3732  0.5062
 8413TIP3    H146654   6.733   5.375  14.104  0.3569 -1.3222 -1.3751
 8413TIP3    H246655   6.759   5.246  14.178  0.5243 -1.0879 -1.0251
 8414TIP3   OH246656   2.403   5.094   0.005  0.3381 -0.2707  0.1304
 8414TIP3    H146657   2.330   5.041  -0.025  1.1622 -1.4357  0.1357
 8414TIP3    H246658   2.418   5.066   0.095  0.9775 -0.2407  0.0371
 8415TIP3   OH246659   3.314   5.807   3.937  0.0329  0.2025 -0.0944
 8415TIP3    H146660   3.391   5.754   3.919 -0.5492 -0.6578 -0.0824
 8415TIP3    H246661   3.313   5.818   4.033  1.4814  2.2939 -0.2479
 8416TIP3   OH246662   3.134   5.471  11.007  0.0901  0.2603 -0.1959
 8416TIP3    H146663   3.093   5.532  11.068  2.0478 -0.1284  1.6486
 8416TIP3    H246664   3.164   5.526  10.935 -3.1781  0.5950 -1.4618
 8417TIP3   OH246665   6.059   2.494  14.950 -0.2131  0.1222  0.4353
 8417TIP3    H146666   5.992   2.462  14.889  0.9108  2.4783 -2.2451
 8417TIP3    H246667   6.011   2.551  15.010 -1.1324 -1.1081  0.9093
 8418TIP3   OH246668   1.626   6.714  16.126  0.1209  0.4637  0.1526
 8418TIP3    H146669   1.585   6.690  16.209 -0.1700  0.4217 -0.0026
 8418TIP3    H246670   1.553   6.733  16.068  0.3063 -0.0545 -0.2573
 8419TIP3   OH246671   6.189   1.817  14.826 -0.0220  0.0847  0.1063
 8419TIP3    H146672   6.161   1.849  14.912 -1.6936 -2.0885  0.4513
 8419TIP3    H246673   6.267   1.765  14.844 -0.9741 -1.2445  0.5079
 8420TIP3   OH246674   6.355   3.891  16.319 -0.0323  0.2353  0.1271
 8420TIP3    H146675   6.378   3.963  16.379 -0.3483  1.9822 -1.7503
 8420TIP3    H246676   6.435   3.876  16.268  0.5287 -1.8664  1.4837
 8421TIP3   OH246677   5.274   3.168  14.891  0.1297 -0.0810 -0.3400
 8421TIP3    H146678   5.306   3.153  14.980 -1.5141 -1.0254  0.1360
 8421TIP3    H246679   5.234   3.255  14.895  0.7734  0.2238 -0.3877
 8422TIP3   OH246680   6.027   2.770   2.161 -0.5591 -0.1128 -0.2984
 8422TIP3    H146681   6.112   2.754   2.120 -0.0578  0.1116  0.6129
 8422TIP3    H246682   6.037   2.735   2.250 -1.3745  0.0447 -0.1391
 8423TIP3   OH246683   1.528   4.337   5.357  0.0438 -0.0612  0.2601
 8423TIP3    H146684   1.552   4.254   5.398 -0.5870 -0.6979 -0.6238
 8423TIP3    H246685   1.600   4.357   5.297 -0.1510 -0.3559 -0.0736
 8424TIP3   OH246686   2.475   1.723  13.020 -0.4991  0.0846  0.1008
 8424TIP3    H146687   2.439   1.636  13.033 -1.4907  0.3305 -0.9148
 8424TIP3    H246688   2.515   1.745  13.105  1.4979 -2.0973 -0.1540
 8425TIP3   OH246689   5.133   1.151   5.931 -0.1388  0.0548 -0.8230
 8425TIP3    H146690   5.162   1.156   6.022  0.4773 -1.2367 -0.9257
 8425TIP3    H246691   5.179   1.075   5.895 -1.0432  0.0212 -1.9748
 8426TIP3   OH246692   5.050   6.091   0.183  0.7479 -0.5654 -0.2910
 8426TIP3    H146693   5.062   6.157   0.252 -2.0700 -0.4464  0.2100
 8426TIP3    H246694   5.077   6.136   0.103 -0.1106  0.8699  0.1726
 8427TIP3   OH246695   0.689   1.319   0.111 -0.1777  0.1728 -0.4520
 8427TIP3    H146696   0.690   1.270   0.193 -0.2593  0.3060 -0.3716
 8427TIP3    H246697   0.618   1.382   0.121  0.8273  1.2852  0.0184
 8428TIP3   OH246698   3.663   2.167  16.049 -0.9151  0.2650  0.1622
 8428TIP3    H146699   3.678   2.075  16.026 -3.0271 -0.5515  1.7052
 8428TIP3    H246700   3.588   2.193  15.997  0.0310  1.3633 -0.7123
 8429TIP3   OH246701   3.453   5.626   1.677 -0.1164  0.6395 -0.0988
 8429TIP3    H146702   3.474   5.593   1.590  0.2414 -1.2390  0.6504
 8429TIP3    H246703   3.530   5.605   1.729 -0.9096  0.3881  1.0073
 8430TIP3   OH246704   5.669   0.744  16.140 -0.1941  0.0049 -0.0376
 8430TIP3    H146705   5.632   0.798  16.071 -1.4022 -0.6860  0.0474
 8430TIP3    H246706   5.721   0.804  16.193 -0.7867  0.9005 -0.4549
 8431TIP3   OH246707   4.251   4.480   4.638 -0.8105  0.1541  0.4660
 8431TIP3    H146708   4.236   4.499   4.546 -3.1286 -0.1999  0.7215
 8431TIP3    H246709   4.284   4.390   4.640 -0.8251  0.1385 -0.0004
 8432TIP3   OH246710   2.696   0.023  12.515 -0.5591 -0.1331 -0.1536
 8432TIP3    H146711   2.641   0.023  12.437 -0.2344  0.4427 -0.3902
 8432TIP3    H246712   2.698   0.115  12.543 -1.9200 -0.5346  1.4274
 8433TIP3   OH246713   2.000   5.516   1.123  0.1386  0.3020 -0.4756
 8433TIP3    H146714   2.077   5.542   1.073  0.5679  0.5748  0.3088
 8433TIP3    H246715   1.984   5.426   1.097  0.5017  0.3601 -0.9159
 8434TIP3   OH246716   1.132   2.106  11.743  0.3406 -0.3923  0.6608
 8434TIP3    H146717   1.193   2.162  11.695  0.2285 -1.0619 -0.3084
 8434TIP3    H246718   1.168   2.100  11.831  0.6818  0.6973  0.6047
 8435TIP3   OH246719   2.758   2.357  13.239 -0.0629  0.0713  0.0565
 8435TIP3    H146720   2.785   2.271  13.273 -2.4127 -1.7902 -2.3801
 8435TIP3    H246721   2.671   2.342  13.201 -1.0191  3.8092  0.3622
 8436TIP3   OH246722   3.433   0.986   5.927 -0.5393  0.4040  0.3160
 8436TIP3    H146723   3.475   0.914   5.976 -1.4573  1.2241  2.4059
 8436TIP3    H246724   3.489   1.062   5.944 -0.2342  0.4815 -0.9136
 8437TIP3   OH246725   1.947   6.731  12.158 -0.2202 -0.2137  0.0273
 8437TIP3    H146726   1.870   6.783  12.183 -0.0109  0.3344 -0.4466
 8437TIP3    H246727   1.912   6.664  12.099 -0.3899 -0.2028  0.1141
 8438TIP3   OH246728   3.969   6.087   4.933  0.4169 -0.0433  0.5587
 8438TIP3    H146729   4.041   6.142   4.900  1.3849 -2.0046 -0.8489
 8438TIP3    H246730   3.968   6.013   4.873 -2.2495 -0.5161  1.1068
 8439TIP3   OH246731   2.838   5.892   3.547  0.1560 -0.1818 -0.3557
 8439TIP3    H146732   2.810   5.811   3.504 -0.6055  0.4628 -1.1125
 8439TIP3    H246733   2.933   5.892   3.536  0.0593 -0.4529 -1.3038
 8440TIP3   OH246734   0.808   3.110  14.544 -0.8059  0.2387  0.0097
 8440TIP3    H146735   0.839   3.186  14.494 -0.8339  0.9823  1.0788
 8440TIP3    H246736   0.777   3.048  14.478 -1.3342  1.4068 -0.8775
 8441TIP3   OH246737   5.959   0.210   5.665 -0.0068  0.1451  0.2973
 8441TIP3    H146738   5.925   0.198   5.576  0.2396 -1.0039  0.3372
 8441TIP3    H246739   5.919   0.139   5.716  1.1616 -0.2396  0.7130
 8442TIP3   OH246740   6.807   2.054   0.550 -0.2228 -0.1307 -0.0340
 8442TIP3    H146741   6.740   2.120   0.568 -0.9831 -0.4230 -1.5822
 8442TIP3    H246742   6.875   2.070   0.615 -1.5841  0.4747  1.2952
 8443TIP3   OH246743   2.198   2.010  16.419 -0.3839  0.2876  0.3062
 8443TIP3    H146744   2.216   2.103  16.431 -2.4132  0.6722  0.7303
 8443TIP3    H246745   2.258   1.966  16.480  0.2386  1.3180  0.4697
 8444TIP3   OH246746   2.378   4.598  16.255  0.1108 -0.1468 -0.0303
 8444TIP3    H146747   2.452   4.611  16.314  0.6025  1.3817 -0.9618
 8444TIP3    H246748   2.380   4.504  16.236 -0.5139 -0.8829  2.9258
 8445TIP3   OH246749   2.427   2.157  15.278 -0.3423 -0.3000  0.2004
 8445TIP3    H146750   2.365   2.221  15.243 -0.5484 -0.0958  0.9223
 8445TIP3    H246751   2.468   2.202  15.352  1.5905  0.0364 -1.0101
 8446TIP3   OH246752   2.736   1.918   0.884 -0.2278 -0.2020  0.3005
 8446TIP3    H146753   2.801   1.956   0.943 -1.2107 -1.4910  2.3124
 8446TIP3    H246754   2.681   1.992   0.857 -0.3033  0.3015  1.7654
 8447TIP3   OH246755   3.261   6.683   0.386  0.0857  0.9265  0.2717
 8447TIP3    H146756   3.194   6.724   0.441 -0.0203  1.3456 -0.1581
 8447TIP3    H246757   3.344   6.709   0.426 -0.0000  0.9300  0.4451
 8448TIP3   OH246758   2.716   5.716   4.317 -0.6231  0.1168  0.7682
 8448TIP3    H146759   2.621   5.718   4.330 -1.4351 -1.2967 -3.3958
 8448TIP3    H246760   2.730   5.647   4.252  3.3722 -0.0340  1.5200
 8449TIP3   OH246761   1.044   6.395   2.035  0.1087  0.5900 -0.0104
 8449TIP3    H146762   1.051   6.474   1.981  0.2842  0.1782 -0.6042
 8449TIP3    H246763   1.131   6.384   2.072 -0.2900  1.4827  1.2526
 8450TIP3   OH246764   0.185   3.709   4.465  0.3683 -0.0463  0.6015
 8450TIP3    H146765   0.165   3.786   4.412  0.0133  0.0199  0.8297
 8450TIP3    H246766   0.110   3.651   4.451  1.6453 -1.3379 -1.3716
 8451TIP3   OH246767   2.684   4.880   0.129 -0.1871 -0.0977 -0.0099
 8451TIP3    H146768   2.721   4.929   0.056  0.3031 -1.7590 -0.9343
 8451TIP3    H246769   2.757   4.871   0.191 -0.1232 -0.0916 -0.0838
 8452TIP3   OH246770   4.958   0.726   5.114 -0.3768  0.1714  0.2890
 8452TIP3    H146771   4.924   0.637   5.106  0.2036  0.1045 -2.1082
 8452TIP3    H246772   4.931   0.753   5.202  0.5292 -2.7944  1.6249
 8453TIP3   OH246773   3.801   4.197  14.716  0.0439  0.2216  0.3583
 8453TIP3    H146774   3.790   4.272  14.773  0.1405 -1.3651  2.5924
 8453TIP3    H246775   3.713   4.180  14.681  0.0231  1.3157 -0.1624
 8454TIP3   OH246776   5.507   4.109  11.991 -0.8594  0.0669 -0.9182
 8454TIP3    H146777   5.514   4.181  11.929  0.9013  1.8476  1.1910
 8454TIP3    H246778   5.594   4.070  11.994 -0.6951  0.4608  0.8470
 8455TIP3   OH246779   6.655   5.739  15.137  0.4133  0.6116  0.5267
 8455TIP3    H146780   6.602   5.721  15.059  0.8131  0.1426  0.3550
 8455TIP3    H246781   6.693   5.825  15.121  1.7802 -0.1488 -0.5522
 8456TIP3   OH246782   4.318   2.844   0.145 -0.3642  0.1263 -0.8595
 8456TIP3    H146783   4.400   2.798   0.164 -1.7511 -1.2337  2.8786
 8456TIP3    H246784   4.277   2.793   0.075  0.4791 -1.2599 -0.3937
 8457TIP3   OH246785   3.484   1.084   1.169  0.0841 -0.3057 -0.1385
 8457TIP3    H146786   3.447   1.132   1.242  0.1665  0.3806 -0.5377
 8457TIP3    H246787   3.543   1.146   1.127 -0.2628 -0.5587 -1.0255
 8458TIP3   OH246788   0.947   0.162  15.898  0.4472  0.2144 -0.4130
 8458TIP3    H146789   0.983   0.248  15.920 -0.1540  0.9158 -1.9822
 8458TIP3    H246790   0.857   0.179  15.872 -0.0108 -1.0509  0.2653
 8459TIP3   OH246791   3.007   5.174  14.097  0.1991 -0.5354  0.3898
 8459TIP3    H146792   2.994   5.269  14.102 -1.2066 -0.5195 -2.1150
 8459TIP3    H246793   2.955   5.139  14.170 -0.8133  0.5473  0.2237
 8460TIP3   OH246794   2.832   2.151   5.359  0.5230  0.1249  0.1915
 8460TIP3    H146795   2.771   2.201   5.305 -1.7168 -1.6608  0.9324
 8460TIP3    H246796   2.839   2.200   5.441 -0.0792  0.2410  0.1728
 8461TIP3   OH246797   5.750   0.269   3.907 -0.5480 -0.1208  0.0717
 8461TIP3    H146798   5.832   0.272   3.859 -0.6865 -1.0772 -0.2347
 8461TIP3    H246799   5.745   0.181   3.943 -1.4425 -0.0858  0.0737
 8462TIP3   OH246800   4.056   4.155  15.939  0.0462  0.6991  0.3320
 8462TIP3    H146801   4.005   4.235  15.948 -0.9727 -0.0639  2.0485
 8462TIP3    H246802   4.051   4.115  16.026  1.1283 -0.8632 -0.2898
 8463TIP3   OH246803   1.488   2.832   5.502 -0.6243  0.1975  0.2526
 8463TIP3    H146804   1.461   2.857   5.590 -1.7775 -1.0135  0.2738
 8463TIP3    H246805   1.551   2.761   5.515  0.8251  1.4125  0.1292
 8464TIP3   OH246806   2.033   1.740  11.738  0.0986 -0.0715  0.1011
 8464TIP3    H146807   1.985   1.663  11.707  1.1122  0.2126 -2.3567
 8464TIP3    H246808   1.991   1.814  11.693  0.1721  0.6560  1.1933
 8465TIP3   OH246809   6.784   6.049  13.549 -0.0365  0.5248  0.2690
 8465TIP3    H146810   6.796   6.096  13.632  1.0229 -0.5073  0.7343
 8465TIP3    H246811   6.731   5.972  13.572 -0.5916  0.7506 -0.2176
 8466TIP3   OH246812   3.870   1.122  15.106 -0.1576  0.0753  0.5588
 8466TIP3    H146813   3.853   1.208  15.068 -2.4799 -0.9501 -0.9395
 8466TIP3    H246814   3.784   1.089  15.131  0.8648 -1.1250  2.7669
 8467TIP3   OH246815   0.004   3.599   3.538 -0.2074  0.2928 -0.0386
 8467TIP3    H146816  -0.017   3.655   3.613  0.6229 -0.8926  1.1141
 8467TIP3    H246817  -0.057   3.526   3.545  1.0495 -0.7327  0.5546
 8468TIP3   OH246818   4.886   3.110  12.609 -0.1125 -0.0735 -0.5208
 8468TIP3    H146819   4.879   3.187  12.665  0.2196  0.6169 -1.4013
 8468TIP3    H246820   4.974   3.116  12.572 -0.3289 -0.5133 -1.1084
 8469TIP3   OH246821   4.181   4.859   1.864 -1.5498  0.1412  0.7132
 8469TIP3    H146822   4.214   4.800   1.932 -1.1099  1.0091  1.2709
 8469TIP3    H246823   4.175   4.944   1.907  0.1769  1.0484 -0.7157
 8470TIP3   OH246824   1.062   1.508  11.006  0.3193 -0.6643  0.0363
 8470TIP3    H146825   1.054   1.546  10.918 -0.4863 -0.2115  0.3009
 8470TIP3    H246826   1.108   1.425  10.991  2.0654  0.3524 -0.5496
 8471TIP3   OH246827   2.485   0.920   0.580  0.3582 -0.6051  0.0922
 8471TIP3    H146828   2.548   0.869   0.529  1.2547  0.8602 -0.3342
 8471TIP3    H246829   2.537   0.990   0.619 -0.9510  0.4554  0.0060
 8472TIP3   OH246830   3.942   3.237  16.879  0.3179  0.3654  0.1355
 8472TIP3    H146831   3.921   3.229  16.972  0.2622 -1.4924  0.0108
 8472TIP3    H246832   4.024   3.189  16.868  1.1985  1.9553 -0.5233
 8473TIP3   OH246833   2.822   4.447  14.367  0.1231  0.7570  0.1643
 8473TIP3    H146834   2.799   4.514  14.432  2.9540  2.9349 -0.8600
 8473TIP3    H246835   2.839   4.496  14.287  0.3051 -1.4707 -1.2479
 8474TIP3   OH246836   3.944   5.211   5.709 -0.6967 -0.1569 -0.1887
 8474TIP3    H146837   3.997   5.266   5.767  1.5831 -0.4916 -1.8214
 8474TIP3    H246838   3.985   5.125   5.713 -1.0605 -0.4197 -1.5520
 8475TIP3   OH246839   0.133   6.657  11.176 -0.0225 -0.6728 -0.1745
 8475TIP3    H146840   0.164   6.573  11.142  0.0139 -1.3122  1.3811
 8475TIP3    H246841   0.093   6.636  11.260  0.3018  0.9149  0.4110
 8476TIP3   OH246842   4.190   6.290  15.730  0.2387 -0.1537 -0.0007
 8476TIP3    H146843   4.168   6.303  15.822 -0.2890 -0.7343 -0.0367
 8476TIP3    H246844   4.180   6.196  15.716  3.0449 -0.5320  0.0443
 8477TIP3   OH246845   4.810   2.710  11.234  0.1601  0.0523 -0.0204
 8477TIP3    H146846   4.734   2.652  11.222 -0.2070  0.7026 -0.9773
 8477TIP3    H246847   4.798   2.746  11.322 -0.7230  0.2478 -0.2089
 8478TIP3   OH246848   2.660   2.162  14.648  0.0321  0.3934  0.6297
 8478TIP3    H146849   2.743   2.115  14.640  0.5205  1.0686  1.4525
 8478TIP3    H246850   2.663   2.227  14.579  0.8962  1.4050  1.5728
 8479TIP3   OH246851   4.042   1.668   5.481 -0.3065 -0.4270  0.5020
 8479TIP3    H146852   4.049   1.630   5.393 -0.5538 -0.0182  0.3035
 8479TIP3    H246853   4.093   1.609   5.536 -0.1348 -0.6799  0.0801
 8480TIP3   OH246854   6.096   2.416   3.512 -0.3579  0.3113 -0.2814
 8480TIP3    H146855   6.141   2.493   3.477 -1.2977  0.8024 -0.4361
 8480TIP3    H246856   6.092   2.356   3.437  0.3330  0.1347 -0.1750
 8481TIP3   OH246857   3.880   4.111   2.344  0.1601 -0.5938 -0.5039
 8481TIP3    H146858   3.958   4.152   2.306 -0.0232  0.8001  0.5197
 8481TIP3    H246859   3.807   4.150   2.296 -0.0574  0.9734  1.0139
 8482TIP3   OH246860   3.705   0.533   3.116  0.3190  0.2198 -0.0240
 8482TIP3    H146861   3.675   0.555   3.205  1.2113 -1.1196  0.6407
 8482TIP3    H246862   3.772   0.466   3.130  2.0590  1.5526 -1.5805
 8483TIP3   OH246863   4.544   4.162  11.085 -0.1142  0.0613  0.0940
 8483TIP3    H146864   4.629   4.123  11.065  0.6028  1.2364  0.7949
 8483TIP3    H246865   4.526   4.220  11.011  1.0553  1.9783  1.2397
 8484TIP3   OH246866   0.193   5.773   4.014  0.1621 -0.0169 -0.1158
 8484TIP3    H146867   0.205   5.696   4.069  0.4761  0.2775  0.2350
 8484TIP3    H246868   0.167   5.738   3.929  0.5070 -0.5220 -0.0206
 8485TIP3   OH246869   0.260   0.668  16.701 -0.5812  0.0534  0.1543
 8485TIP3    H146870   0.214   0.609  16.761 -0.3512  0.7420  1.0365
 8485TIP3    H246871   0.350   0.636  16.699 -0.9066 -0.8426 -0.9837
 8486TIP3   OH246872   4.039   2.861   6.057  0.2123  0.3583  0.6312
 8486TIP3    H146873   3.963   2.803   6.046 -0.4198  1.4212 -1.0627
 8486TIP3    H246874   4.034   2.891   6.148 -1.0624 -0.0734  0.7207
 8487TIP3   OH246875   1.172   5.788   4.463  0.2190 -0.2655  0.0229
 8487TIP3    H146876   1.204   5.836   4.387 -0.2609 -1.8408 -1.2458
 8487TIP3    H246877   1.145   5.855   4.526  1.5438  1.0727 -0.7887
 8488TIP3   OH246878   6.790   3.778   1.701 -0.0147 -0.5445  0.1260
 8488TIP3    H146879   6.807   3.685   1.713  0.0527 -0.8526 -1.9533
 8488TIP3    H246880   6.707   3.781   1.654 -1.2938  0.5883  2.3231
 8489TIP3   OH246881   2.441   5.897  14.578  0.1636  0.1651 -0.2567
 8489TIP3    H146882   2.460   5.956  14.505 -0.1407  0.0616 -0.4180
 8489TIP3    H246883   2.457   5.809  14.543 -0.0990  0.1078 -0.2393
 8490TIP3   OH246884   5.255   5.282  12.634  0.0740 -0.1212  0.6861
 8490TIP3    H146885   5.314   5.356  12.617 -2.0464  1.2661 -1.1963
 8490TIP3    H246886   5.313   5.213  12.668  2.5878  1.4909 -0.0338
 8491TIP3   OH246887   0.711   3.561   6.498 -0.3720  0.1177  0.3269
 8491TIP3    H146888   0.797   3.583   6.534 -1.2085  1.3080  1.6719
 8491TIP3    H246889   0.695   3.628   6.431 -0.5029  0.2534  0.4929
 8492TIP3   OH246890   4.523   4.304  14.418 -0.3635  0.8089  0.1338
 8492TIP3    H146891   4.447   4.281  14.472 -0.8835  1.2349 -0.3887
 8492TIP3    H246892   4.580   4.227  14.423  0.1142  1.2440  2.1285
 8493TIP3   OH246893   0.841   2.960  16.926  0.0096  0.3395  0.1920
 8493TIP3    H146894   0.819   2.872  16.958  1.5596 -0.1891 -0.1314
 8493TIP3    H246895   0.934   2.955  16.905 -0.0024  1.9264 -0.3149
 8494TIP3   OH246896   3.682   2.858  13.900  0.0682 -0.0768  0.4774
 8494TIP3    H146897   3.670   2.780  13.847  3.0645  0.2464 -0.9280
 8494TIP3    H246898   3.730   2.827  13.978  2.4083  0.3889 -0.6745
 8495TIP3   OH246899   5.684   2.417  14.350 -0.2780  0.6405  0.1187
 8495TIP3    H146900   5.604   2.393  14.302  0.4821 -1.3013 -0.2854
 8495TIP3    H246901   5.726   2.333  14.369 -0.4496  1.2856  4.1330
 8496TIP3   OH246902   3.113   3.264   5.257 -0.2509 -0.0001  0.2577
 8496TIP3    H146903   3.076   3.197   5.314 -0.2278 -0.7300 -0.5654
 8496TIP3    H246904   3.145   3.332   5.317  0.2676 -0.9962  1.1316
 8497TIP3   OH246905   2.364   5.318   5.054 -0.2080 -0.4191  0.6286
 8497TIP3    H146906   2.374   5.403   5.012 -5.1376 -0.0933 -0.5876
 8497TIP3    H246907   2.356   5.338   5.147 -1.0156  0.4568  0.3856
 8498TIP3   OH246908   0.206   5.921   5.602 -0.7927 -0.3033 -0.5473
 8498TIP3    H146909   0.135   5.951   5.545 -1.1764  1.4671  0.7614
 8498TIP3    H246910   0.252   6.001   5.627 -0.0493 -1.1214  0.8505
 8499TIP3   OH246911   2.386   1.623   2.716 -0.2570 -0.2565 -0.3305
 8499TIP3    H146912   2.371   1.591   2.627 -2.4837 -4.4261  1.2529
 8499TIP3    H246913   2.307   1.673   2.737 -0.2408 -0.2332 -0.3248
 8500TIP3   OH246914   3.748   4.983   0.977  0.3457  0.2501 -0.1260
 8500TIP3    H146915   3.814   4.922   1.010 -1.4637 -1.2989  0.8681
 8500TIP3    H246916   3.729   5.040   1.051  2.1095  2.2076 -1.0866
 8501TIP3   OH246917   1.420   5.064   5.111  0.3824 -0.5528 -0.5889
 8501TIP3    H146918   1.404   5.136   5.172 -0.6022 -0.8471 -0.4814
 8501TIP3    H246919   1.406   5.102   5.024 -0.9231 -0.7806 -0.5018
 8502TIP3   OH246920   0.265   1.516   5.978 -0.1231 -0.0441  1.0794
 8502TIP3    H146921   0.305   1.586   6.030  1.2066  1.0711 -1.2831
 8502TIP3    H246922   0.171   1.532   5.984  0.1276  1.5243  1.1612
 8503TIP3   OH246923   2.282   1.473  14.187 -0.4136 -0.2310 -0.6318
 8503TIP3    H146924   2.344   1.545  14.177  0.0131 -0.8198 -2.4470
 8503TIP3    H246925   2.197   1.516  14.200 -0.0315  0.5819 -0.7767
 8504TIP3   OH246926   4.540   1.021  13.534 -0.2522  0.2192  0.8612
 8504TIP3    H146927   4.478   0.995  13.601  0.4031 -1.1516  0.9736
 8504TIP3    H246928   4.491   1.081  13.477 -1.9947 -1.5270  0.3997
 8505TIP3   OH246929   3.491   2.144   3.594 -0.1757  0.4641 -0.2544
 8505TIP3    H146930   3.554   2.149   3.522  1.4171  0.1744  1.0691
 8505TIP3    H246931   3.526   2.077   3.652 -1.1120  1.1041  1.0888
 8506TIP3   OH246932   3.011   6.540   6.182  0.0560  0.0181 -0.3841
 8506TIP3    H146933   2.916   6.527   6.187 -0.0904  1.0535 -0.3150
 8506TIP3    H246934   3.022   6.625   6.140  0.9298  0.5020  0.7742
 8507TIP3   OH246935   1.551   1.130  12.484 -0.1327  0.0853  0.0668
 8507TIP3    H146936   1.600   1.135  12.402  1.2199  0.7116  0.8810
 8507TIP3    H246937   1.577   1.046  12.522 -1.4195 -0.6073 -0.5166
 8508TIP3   OH246938   2.571   2.573  11.050  0.0821  0.4039  0.4456
 8508TIP3    H146939   2.560   2.518  10.972  0.4486 -0.1551  0.7754
 8508TIP3    H246940   2.645   2.533  11.096  0.1438  0.9885  0.8591
 8509TIP3   OH246941   4.285   2.755  12.352  0.4383  0.7241  0.3350
 8509TIP3    H146942   4.208   2.807  12.330  0.7954  1.8628  1.6341
 8509TIP3    H246943   4.310   2.712  12.270 -0.7153  1.4609 -0.4280
 8510TIP3   OH246944   1.028   1.379   6.258 -0.2879 -0.0059 -0.5522
 8510TIP3    H146945   1.045   1.460   6.306  1.3371 -0.4226 -0.3851
 8510TIP3    H246946   1.103   1.323   6.277 -0.6478 -0.9911 -1.8722
 8511TIP3   OH246947   4.336   6.326   1.750  0.5220 -0.1780 -0.5216
 8511TIP3    H146948   4.249   6.366   1.754 -0.2034 -1.7765  0.6953
 8511TIP3    H246949   4.395   6.395   1.779 -0.4894  0.5450 -0.1334
 8512TIP3   OH246950   2.187   4.831  10.941  0.1856  0.7827 -0.2112
 8512TIP3    H146951   2.142   4.885  11.006 -2.2609 -2.6508  1.2496
 8512TIP3    H246952   2.223   4.758  10.991  0.2464 -0.7924 -2.4109
 8513TIP3   OH246953   0.765   5.316   0.387  0.6574  0.5527 -0.1188
 8513TIP3    H146954   0.784   5.362   0.469 -0.8702 -2.5468  2.1903
 8513TIP3    H246955   0.670   5.306   0.386  0.7466 -0.4655 -1.7010
 8514TIP3   OH246956   3.565   1.417   1.470  0.0220  0.2275  0.5019
 8514TIP3    H146957   3.574   1.340   1.526 -0.8565 -0.6014 -0.4669
 8514TIP3    H246958   3.649   1.423   1.424 -0.6724 -1.4832 -1.0538
 8515TIP3   OH246959   0.643   0.405  11.833  0.1164  0.0520 -0.0497
 8515TIP3    H146960   0.593   0.378  11.910  0.8781  0.7186  0.6992
 8515TIP3    H246961   0.730   0.368  11.847  0.6765  1.4145  0.1469
 8516TIP3   OH246962   5.766   1.758  14.345 -0.0275  0.3337  0.4496
 8516TIP3    H146963   5.778   1.737  14.437  3.1526 -0.4295 -0.0248
 8516TIP3    H246964   5.846   1.729  14.303 -0.6498  2.2094 -2.3161
 8517TIP3   OH246965   0.283   2.949   4.674 -0.0376 -0.6105  0.4085
 8517TIP3    H146966   0.230   2.932   4.596  1.3451  1.2431 -1.0331
 8517TIP3    H246967   0.264   2.876   4.733  0.0265 -2.9762 -2.2784
 8518TIP3   OH246968   5.955   4.834  10.726 -0.3181 -0.6074  0.8317
 8518TIP3    H146969   5.959   4.929  10.732 -1.3888 -0.5457  0.6400
 8518TIP3    H246970   5.907   4.816  10.646 -0.2149 -1.3166  0.9183
 8519TIP3   OH246971   3.166   2.958   1.392  0.1324  0.2596 -0.3281
 8519TIP3    H146972   3.166   3.007   1.310  2.6199  0.7870 -0.0863
 8519TIP3    H246973   3.252   2.975   1.430 -0.8373 -0.2087  2.2663
 8520TIP3   OH246974   3.766   2.342   0.447 -0.5474 -0.2007 -0.4999
 8520TIP3    H146975   3.737   2.368   0.535 -2.8389  1.4822 -1.6557
 8520TIP3    H246976   3.852   2.382   0.438 -1.0519  1.1534  0.3423
 8521TIP3   OH246977   1.163   5.904  12.846 -0.0396  0.3076  0.0696
 8521TIP3    H146978   1.142   5.851  12.922  2.4371 -1.9168 -0.6431
 8521TIP3    H246979   1.259   5.901  12.840 -0.0064  2.2894 -1.8568
 8522TIP3   OH246980   2.082   5.016  11.493 -0.2708 -0.2179 -0.1775
 8522TIP3    H146981   2.103   5.109  11.479  1.8059 -0.7867 -1.3358
 8522TIP3    H246982   2.074   5.008  11.588 -0.2609  1.1078 -0.0392
 8523TIP3   OH246983   5.632   6.406  12.169 -0.7103 -0.4484 -0.2879
 8523TIP3    H146984   5.601   6.485  12.126 -0.2047  0.0047  0.1691
 8523TIP3    H246985   5.724   6.423  12.187 -1.0004 -0.4521  1.3465
 8524TIP3   OH246986   2.228   3.449   4.631 -0.0933 -0.2561 -0.3370
 8524TIP3    H146987   2.232   3.354   4.644  0.6484 -0.0710  0.9748
 8524TIP3    H246988   2.271   3.486   4.708 -2.9944  1.2611  0.7050
 8525TIP3   OH246989   5.107   6.442   1.403 -0.0832  0.4471  0.2310
 8525TIP3    H146990   5.027   6.405   1.440  0.7745 -1.5947  0.1465
 8525TIP3    H246991   5.176   6.381   1.428  1.3745  1.8389 -0.2184
 8526TIP3   OH246992   0.335   1.648   5.495  0.3824  0.3314  0.4988
 8526TIP3    H146993   0.415   1.596   5.502 -0.5163 -1.4302 -1.1624
 8526TIP3    H246994   0.313   1.671   5.585  1.7142 -0.8432  1.1663
 8527TIP3   OH246995   6.095   3.084   5.764  0.0836  0.5301 -0.1103
 8527TIP3    H146996   6.056   2.997   5.772 -0.3718  0.7581  0.1950
 8527TIP3    H246997   6.050   3.124   5.690 -1.0052  1.1729  0.8819
 8528TIP3   OH246998   1.062   0.477  12.546 -0.1094  0.5299  0.3813
 8528TIP3    H146999   0.978   0.472  12.499  0.9252  0.8443 -1.5944
 8528TIP3    H247000   1.074   0.570  12.563  0.0078  0.5147  0.3771
 8529TIP3   OH247001   3.390   2.215  15.342 -0.2552  0.5554 -0.0625
 8529TIP3    H147002   3.453   2.265  15.394 -1.3543  1.9560 -0.0362
 8529TIP3    H247003   3.387   2.259  15.258  1.2150 -1.4735 -1.2692
 8530TIP3   OH247004   2.746   2.308  15.309 -0.0847  0.1069  0.5151
 8530TIP3    H147005   2.717   2.220  15.332  0.8733 -0.2085  0.5780
 8530TIP3    H247006   2.832   2.295  15.269  0.2753  1.0461  0.9468
 8531TIP3   OH247007   5.286   6.433  14.349 -0.2598 -0.2568  0.1197
 8531TIP3    H147008   5.355   6.472  14.295  0.9054 -2.7186 -0.3313
 8531TIP3    H247009   5.291   6.480  14.432  0.6962  0.8676 -0.5457
 8532TIP3   OH247010   1.705   3.912  14.397  0.3414 -0.8294 -0.4137
 8532TIP3    H147011   1.644   3.905  14.324 -0.4749 -0.0919  0.1700
 8532TIP3    H247012   1.753   3.993  14.382  1.2485 -1.4444 -0.9084
 8533TIP3   OH247013   2.936   4.735   2.598  0.0172  0.4542  0.1906
 8533TIP3    H147014   2.987   4.784   2.534 -0.5898  0.8651  0.0191
 8533TIP3    H247015   2.863   4.698   2.548 -0.2164  0.4091  0.5600
 8534TIP3   OH247016   6.562   6.606  11.315 -0.5558  0.1162  0.6381
 8534TIP3    H147017   6.490   6.610  11.378 -1.4377 -2.0756 -0.1627
 8534TIP3    H247018   6.519   6.597  11.230  0.6540 -0.8286  0.1026
 8535TIP3   OH247019   4.133   2.802  14.119 -0.3643  0.3955  0.6446
 8535TIP3    H147020   4.150   2.741  14.191 -2.7809 -0.8401  0.2593
 8535TIP3    H247021   4.074   2.867  14.156  0.6745  1.4509  0.5107
 8536TIP3   OH247022   3.971   5.026   0.340  0.0247 -0.2452 -0.1758
 8536TIP3    H147023   3.895   4.986   0.380  0.4321  0.6224  1.5927
 8536TIP3    H247024   3.972   5.115   0.374  0.4752  0.5517 -2.1019
 8537TIP3   OH247025   4.536   1.257   5.047  0.5663  0.7388  0.5032
 8537TIP3    H147026   4.551   1.345   5.082 -1.1803  0.1990  2.8088
 8537TIP3    H247027   4.462   1.268   4.987 -0.9104  0.5874  2.2321
 8538TIP3   OH247028   4.390   0.064  14.457  0.0115  0.1421  0.5067
 8538TIP3    H147029   4.330   0.058  14.382 -0.3476  0.9666  0.7206
 8538TIP3    H247030   4.461   0.003  14.435 -0.0903  0.3655 -0.5030
 8539TIP3   OH247031   1.423   4.877   0.426 -0.2818  0.1358  0.3543
 8539TIP3    H147032   1.358   4.920   0.482  0.6168  0.7010  0.9809
 8539TIP3    H247033   1.506   4.919   0.448  0.2050 -0.0950 -0.9230
 8540TIP3   OH247034   4.862   1.074  14.550 -0.6667  0.6039  0.0500
 8540TIP3    H147035   4.946   1.107  14.519  0.1299  0.3536  1.7922
 8540TIP3    H247036   4.856   0.986  14.513 -0.3643  0.7878 -0.4412
 8541TIP3   OH247037   5.552   3.882   2.910  0.3007 -0.0595 -0.2298
 8541TIP3    H147038   5.556   3.908   3.002 -1.0138  2.7773 -0.8772
 8541TIP3    H247039   5.627   3.926   2.869 -1.4789  2.3025 -1.1911
 8542TIP3   OH247040   5.786   1.276   0.975  0.9215 -0.1199 -0.0810
 8542TIP3    H147041   5.727   1.205   0.951 -0.9130  1.4948 -0.6626
 8542TIP3    H247042   5.797   1.327   0.894 -0.1940  1.8668  0.9335
 8543TIP3   OH247043   6.634   2.480  11.987  0.2797 -0.3409  0.1569
 8543TIP3    H147044   6.720   2.475  11.945  0.7191  0.6304  0.8995
 8543TIP3    H247045   6.650   2.454  12.078  0.2442  1.8518  0.8579
 8544TIP3   OH247046   1.269   0.656   3.163  0.1684 -0.4262  0.1187
 8544TIP3    H147047   1.180   0.680   3.137 -0.3566 -1.1234  1.1871
 8544TIP3    H247048   1.318   0.650   3.081 -0.8305 -0.2393 -0.4970
 8545TIP3   OH247049   6.613   2.403   5.298  0.5822 -0.0908 -0.5335
 8545TIP3    H147050   6.599   2.431   5.389 -0.5801 -2.8911  0.2547
 8545TIP3    H247051   6.549   2.453   5.247  0.7748  0.9957  0.2450
 8546TIP3   OH247052   5.281   0.840  11.885  0.0110  0.0270 -0.3847
 8546TIP3    H147053   5.328   0.798  11.957  0.4210 -1.9920 -1.7592
 8546TIP3    H247054   5.300   0.786  11.808 -2.0160  0.9557 -1.6330
 8547TIP3   OH247055   3.007   6.323  16.563 -0.6953  0.5800  0.0000
 8547TIP3    H147056   3.064   6.329  16.486  0.4161  1.1062  0.8389
 8547TIP3    H247057   3.051   6.376  16.629 -2.0532  0.7919  0.7565
 8548TIP3   OH247058   4.133   5.799   5.477  0.3235  0.1419  0.1391
 8548TIP3    H147059   4.044   5.768   5.493  0.0739  0.3258 -0.8294
 8548TIP3    H247060   4.138   5.809   5.382  1.1611  0.7914  0.2441
 8549TIP3   OH247061   4.057   0.105   0.092  0.6658  0.5236 -0.6821
 8549TIP3    H147062   4.148   0.129   0.111  0.7268 -0.0815 -0.1765
 8549TIP3    H247063   4.007   0.184   0.114  1.0039  0.6557 -0.3614
 8550TIP3   OH247064   6.465   0.265   0.848 -0.0091  0.0818  0.4323
 8550TIP3    H147065   6.407   0.212   0.903  1.0017 -0.1794  1.2736
 8550TIP3    H247066   6.540   0.209   0.830 -0.3414  0.1472 -1.2955
 8551TIP3   OH247067   4.400   4.568  13.290  0.1358  0.0579  0.4916
 8551TIP3    H147068   4.358   4.652  13.306 -1.6760 -0.4572 -1.1414
 8551TIP3    H247069   4.382   4.549  13.198  3.0602 -0.7748 -0.0062
 8552TIP3   OH247070   0.942   2.443  14.688  0.0656  0.6333 -0.5247
 8552TIP3    H147071   0.857   2.483  14.673  0.3742  1.7201  0.4547
 8552TIP3    H247072   1.005   2.514  14.672  0.6601  0.4236  0.7718
 8553TIP3   OH247073   6.139   0.334   1.654 -0.1424 -0.3048 -0.7770
 8553TIP3    H147074   6.208   0.291   1.603 -1.4186 -1.2956 -1.7333
 8553TIP3    H247075   6.183   0.362   1.735  1.5749 -0.0874 -1.7340
 8554TIP3   OH247076   5.454   0.538  12.386 -0.4650 -0.1635  0.1459
 8554TIP3    H147077   5.460   0.452  12.346  1.3293  0.0186 -0.0538
 8554TIP3    H247078   5.519   0.537  12.456  3.1660  2.4859 -2.7954
 8555TIP3   OH247079   6.342   0.277   1.466 -0.2167 -0.0403  0.7096
 8555TIP3    H147080   6.354   0.304   1.375  0.0592 -0.8590  0.4937
 8555TIP3    H247081   6.424   0.301   1.509  0.8680 -2.2799  0.0626
 8556TIP3   OH247082   6.029   4.810   6.152  0.3346 -0.6215  0.0602
 8556TIP3    H147083   6.022   4.718   6.179  0.5681 -0.8031 -0.4906
 8556TIP3    H247084   5.974   4.857   6.215 -0.9989 -1.3044 -0.5522
 8557TIP3   OH247085   5.957   3.140   1.510  0.2371  0.0279  0.4282
 8557TIP3    H147086   5.894   3.211   1.500 -0.3260 -0.4414  0.5897
 8557TIP3    H247087   5.919   3.083   1.577  0.8534 -0.2419  0.5588
 8558TIP3   OH247088   1.278   1.424  15.375 -0.2683  0.2152  0.1168
 8558TIP3    H147089   1.196   1.422  15.326 -0.0239  0.8491 -0.3452
 8558TIP3    H247090   1.330   1.353  15.338 -0.5880 -0.1468  0.3678
 8559TIP3   OH247091   2.274   5.187   2.069  0.3492 -0.1880 -0.3799
 8559TIP3    H147092   2.209   5.257   2.060  0.7451  0.0434 -1.6003
 8559TIP3    H247093   2.291   5.158   1.980  1.3567 -0.7730 -0.0153
 8560TIP3   OH247094   0.702   6.332   3.972  0.2046 -0.2514  0.0912
 8560TIP3    H147095   0.708   6.426   3.989 -2.8923  0.1628 -0.4720
 8560TIP3    H247096   0.779   6.313   3.918  1.1593  1.8227  0.5906
 8561TIP3   OH247097   6.760   4.065   0.084  0.2755 -0.0962 -0.0514
 8561TIP3    H147098   6.740   4.025  -0.002  0.6866  0.3712 -0.3632
 8561TIP3    H247099   6.799   4.149   0.063  0.8678 -0.2029  0.5949
 8562TIP3   OH247100   3.102   6.372  15.902  0.4238  0.0561 -0.8445
 8562TIP3    H147101   3.163   6.409  15.838 -1.6377 -0.3064 -3.1903
 8562TIP3    H247102   3.050   6.309  15.852 -0.9098 -0.7146  1.3630
 8563TIP3   OH247103   5.370   2.167  12.587  0.3259  0.2165  0.0874
 8563TIP3    H147104   5.319   2.088  12.603  2.3439 -1.0975  0.4984
 8563TIP3    H247105   5.420   2.180  12.668  1.4149  0.7939 -0.6424
 8564TIP3   OH247106   0.384   2.213   1.445 -0.1111 -0.2643 -0.2899
 8564TIP3    H147107   0.477   2.208   1.423  0.0027 -0.1778  0.1669
 8564TIP3    H247108   0.340   2.216   1.360  0.3452  0.5421 -0.5060
 8565TIP3   OH247109   5.679   5.553   5.788  0.0609  0.4159 -0.1615
 8565TIP3    H147110   5.749   5.547   5.852 -0.2328 -0.8548  0.0615
 8565TIP3    H247111   5.612   5.607   5.831  1.0020  1.9153 -0.5070
 8566TIP3   OH247112   2.404   3.655   4.260 -0.3247  0.0383 -0.2051
 8566TIP3    H147113   2.309   3.646   4.264 -0.4952  1.7608  0.6386
 8566TIP3    H247114   2.418   3.740   4.217  0.8628 -0.5135 -0.9660
 8567TIP3   OH247115   2.738   6.323  16.675  0.3632 -0.3824  0.0713
 8567TIP3    H147116   2.738   6.227  16.679  1.8417 -0.6926 -3.7586
 8567TIP3    H247117   2.820   6.346  16.631 -0.2454  2.6225  0.2745
 8568TIP3   OH247118   3.896   2.703   3.124  0.2711 -1.0409 -0.4680
 8568TIP3    H147119   3.903   2.787   3.078 -0.6085 -0.9243 -0.4114
 8568TIP3    H247120   3.869   2.641   3.057  1.0433 -1.3118 -0.5350
 8569TIP3   OH247121   5.646   2.500  16.090 -0.1301  0.1256  0.3517
 8569TIP3    H147122   5.557   2.482  16.119 -0.2891  0.2302 -0.0744
 8569TIP3    H247123   5.638   2.520  15.997  0.4028 -0.3909  0.1884
 8570TIP3   OH247124   4.821   6.259  13.938 -0.4901 -0.0287 -0.0056
 8570TIP3    H147125   4.841   6.191  13.874  1.3502 -1.6682  2.1445
 8570TIP3    H247126   4.900   6.266  13.991 -1.7277  1.6337  1.7519
 8571TIP3   OH247127   4.225   4.453   5.969 -0.0036  0.3168  0.4808
 8571TIP3    H147128   4.269   4.500   5.899  0.5568 -0.2947  0.4102
 8571TIP3    H247129   4.276   4.474   6.048  1.4002 -1.5989  0.1595
 8572TIP3   OH247130   3.652   6.288   0.467  0.0776  0.4884  0.2545
 8572TIP3    H147131   3.607   6.227   0.525 -0.9664  0.8928 -0.0997
 8572TIP3    H247132   3.745   6.270   0.480 -0.1601  0.1173  1.5416
 8573TIP3   OH247133   0.016   1.817  15.814  0.4485  0.1933 -0.1627
 8573TIP3    H147134   0.093   1.790  15.763  0.1310  0.0046 -0.5543
 8573TIP3    H247135  -0.036   1.868  15.753 -1.1611 -2.1119 -0.8609
 8574TIP3   OH247136   0.982   1.617   2.657 -0.0856 -0.1791  0.0110
 8574TIP3    H147137   1.020   1.561   2.725  0.8207 -1.9501 -1.8328
 8574TIP3    H247138   1.028   1.591   2.577 -1.3742  1.5436 -1.3573
 8575TIP3   OH247139   5.505   0.982   4.197  0.2943 -0.0507 -0.2437
 8575TIP3    H147140   5.540   0.910   4.145 -0.7673 -1.3809  0.8218
 8575TIP3    H247141   5.484   1.050   4.132  3.3393  0.2562 -1.0781
 8576TIP3   OH247142   6.177   6.568   2.133 -0.1529  0.2173  0.3934
 8576TIP3    H147143   6.267   6.573   2.166 -0.0598  0.8844  0.0554
 8576TIP3    H247144   6.185   6.529   2.046 -0.4105 -1.6535  1.1706
 8577TIP3   OH247145   0.094   4.164  13.332 -0.0956 -0.1484 -0.0978
 8577TIP3    H147146   0.067   4.095  13.393 -0.8862 -1.8220 -2.2115
 8577TIP3    H247147   0.013   4.210  13.310 -0.6664 -2.1906 -2.8748
 8578TIP3   OH247148   6.287   3.256  12.750  0.0893  0.5668  0.4113
 8578TIP3    H147149   6.245   3.269  12.665  0.3431  1.0638  0.3589
 8578TIP3    H247150   6.286   3.162  12.763 -1.4051  0.5865  0.5936
 8579TIP3   OH247151   4.128   3.374  12.833 -0.1271  0.1689  0.2202
 8579TIP3    H147152   4.141   3.452  12.887 -0.7731 -0.3468  1.1391
 8579TIP3    H247153   4.106   3.305  12.895  0.8722 -0.8602 -0.5523
 8580TIP3   OH247154   3.150   2.011   5.013 -0.4135 -0.2575 -0.0871
 8580TIP3    H147155   3.128   2.004   5.106 -0.8487 -1.6542 -0.2632
 8580TIP3    H247156   3.225   2.069   5.010  1.1265 -2.0438  1.4161
 8581TIP3   OH247157   1.070   6.533   0.236 -0.2182 -0.8191  0.1998
 8581TIP3    H147158   1.074   6.478   0.158 -1.0730  1.2549 -1.3787
 8581TIP3    H247159   0.997   6.496   0.287 -1.8964 -0.2109 -1.6469
 8582TIP3   OH247160   2.539   0.976  16.841 -0.1570 -0.6140 -0.0835
 8582TIP3    H147161   2.502   0.890  16.858 -0.4526 -0.5962 -0.6081
 8582TIP3    H247162   2.633   0.963  16.847 -0.0748 -1.4698 -2.2456
 8583TIP3   OH247163   5.908   5.037   5.230  0.0351  0.1131 -0.0854
 8583TIP3    H147164   5.855   5.036   5.310  0.0196 -0.7752 -0.0953
 8583TIP3    H247165   5.918   5.130   5.209 -1.1549  0.3150  0.1616
 8584TIP3   OH247166   1.007   4.216   1.704 -0.1323  0.4933  0.2346
 8584TIP3    H147167   0.980   4.172   1.623  0.8977 -2.0655  1.1643
 8584TIP3    H247168   0.929   4.217   1.759 -0.3164  0.3285 -0.0218
 8585TIP3   OH247169   5.974   6.049  14.484  0.3577 -0.4964 -0.2353
 8585TIP3    H147170   5.939   6.078  14.568  2.8490  1.1217  0.3708
 8585TIP3    H247171   6.026   5.972  14.504 -0.7638 -1.4063 -0.7083
 8586TIP3   OH247172   3.009   1.569  13.964  0.1992  0.2721  0.0449
 8586TIP3    H147173   3.103   1.551  13.965  0.0427 -0.6082  0.1190
 8586TIP3    H247174   2.977   1.522  13.887  0.0233  1.7428 -0.8121
 8587TIP3   OH247175   6.673   4.844   5.052  0.3357 -0.4623 -0.4147
 8587TIP3    H147176   6.719   4.767   5.084 -0.2495 -0.8784 -0.5531
 8587TIP3    H247177   6.580   4.827   5.071 -0.1542 -1.1061 -2.9927
 8588TIP3   OH247178   0.863   6.627   4.151  0.8041  0.4498 -0.3220
 8588TIP3    H147179   0.771   6.608   4.167  0.9779  0.0672  0.2585
 8588TIP3    H247180   0.863   6.693   4.082  0.0361  1.5343  0.6723
 8589TIP3   OH247181   0.665   0.481  11.072  0.2971  0.3991 -0.0915
 8589TIP3    H147182   0.677   0.457  11.163  0.2314 -1.6728 -0.5815
 8589TIP3    H247183   0.744   0.530  11.049  1.1079 -0.5164  0.6486
 8590TIP3   OH247184   2.402   3.424  11.938  0.0138 -0.2420  0.3036
 8590TIP3    H147185   2.369   3.501  11.984 -0.6587 -0.3097 -0.0476
 8590TIP3    H247186   2.323   3.376  11.912  0.4269 -1.9905  2.0732
 8591TIP3   OH247187   6.790   2.464  14.561  0.2670 -0.6271  0.2489
 8591TIP3    H147188   6.768   2.371  14.562 -0.1457 -0.5464 -0.5720
 8591TIP3    H247189   6.857   2.471  14.493  0.1001 -0.2839  0.1187
 8592TIP3   OH247190   2.819   1.104  13.506  0.3178 -0.6803 -0.4833
 8592TIP3    H147191   2.857   1.184  13.471 -0.6709 -0.2348 -0.5733
 8592TIP3    H247192   2.727   1.125  13.521  0.9843 -0.1215  4.4892
 8593TIP3   OH247193   4.198   3.874  15.119 -0.6235  0.1275 -0.5105
 8593TIP3    H147194   4.291   3.891  15.128 -0.7372 -0.4553  2.7575
 8593TIP3    H247195   4.159   3.961  15.108  0.2264  0.4106 -1.4437
 8594TIP3   OH247196   1.404   2.175  12.692  0.2248  0.5464  0.0166
 8594TIP3    H147197   1.422   2.186  12.786  0.5780  2.2846 -0.2259
 8594TIP3    H247198   1.431   2.085  12.673 -1.3604 -0.4125  1.8949
 8595TIP3   OH247199   2.714   4.933  11.255  0.2106 -0.7037 -0.4977
 8595TIP3    H147200   2.707   4.977  11.340  0.8216 -0.2659 -0.6708
 8595TIP3    H247201   2.674   4.992  11.193 -0.3434 -1.0781 -0.5070
 8596TIP3   OH247202   3.957   5.960  14.966 -0.3741  0.4471  0.1643
 8596TIP3    H147203   4.015   5.965  15.042 -1.8859 -0.1513  1.3943
 8596TIP3    H247204   3.957   5.867  14.942 -0.6686  0.4829  0.0316
 8597TIP3   OH247205   0.457   5.599  13.664  0.0254 -0.2015  0.3782
 8597TIP3    H147206   0.509   5.530  13.622 -1.9195 -0.8163 -1.1867
 8597TIP3    H247207   0.366   5.574  13.645 -0.7874  1.7185  1.5485
 8598TIP3   OH247208   5.952   0.848   1.832  0.4814 -0.0601  0.5243
 8598TIP3    H147209   5.945   0.860   1.927  0.7546 -0.3056  0.5736
 8598TIP3    H247210   5.901   0.769   1.814 -0.3885  0.5187  0.3365
 8599TIP3   OH247211   0.689   6.176   3.039 -0.3755  0.9137 -0.0139
 8599TIP3    H147212   0.707   6.125   3.119 -2.0929 -0.6769 -0.5795
 8599TIP3    H247213   0.710   6.116   2.968 -0.9366  1.5633 -0.7357
 8600TIP3   OH247214   3.185   0.269   1.044 -0.1964  0.0026 -0.6712
 8600TIP3    H147215   3.261   0.308   1.002 -1.7171  1.3885 -2.2943
 8600TIP3    H247216   3.212   0.180   1.065  1.5953  0.2099 -1.9115
 8601TIP3   OH247217   0.779   4.899   1.293 -0.5362 -0.2942 -0.4539
 8601TIP3    H147218   0.847   4.834   1.274  0.2428  0.1913  0.5521
 8601TIP3    H247219   0.697   4.849   1.293 -0.2763 -0.7657 -2.3543
 8602TIP3   OH247220   1.205   0.743  13.919 -0.2079 -0.3897 -0.2702
 8602TIP3    H147221   1.166   0.683  13.855  0.3165 -0.4459 -0.5431
 8602TIP3    H247222   1.300   0.728  13.911  0.0209  1.2012 -1.0938
 8603TIP3   OH247223   1.581   1.144  11.570 -0.0420  0.5220 -0.5590
 8603TIP3    H147224   1.543   1.202  11.636 -0.3983 -0.4672  0.1224
 8603TIP3    H247225   1.506   1.112  11.520 -0.0924 -1.0506  0.4738
 8604TIP3   OH247226   6.216   4.798  10.629 -0.0078 -0.4667 -0.3984
 8604TIP3    H147227   6.176   4.779  10.544 -0.1029 -0.8338 -0.2708
 8604TIP3    H247228   6.143   4.829  10.683  0.4519  2.2845 -1.1939
 8605TIP3   OH247229   6.813   3.507  16.737  0.6363  0.5585 -0.1509
 8605TIP3    H147230   6.732   3.516  16.788  0.2803  0.8163 -0.7533
 8605TIP3    H247231   6.837   3.415  16.747 -0.2559  0.2511 -0.7413
 8606TIP3   OH247232   6.541   0.176   0.374 -0.8379  0.0070 -0.3662
 8606TIP3    H147233   6.491   0.221   0.307  0.2417 -0.3308 -1.4320
 8606TIP3    H247234   6.550   0.086   0.342 -0.4020 -0.1930  0.2866
 8607TIP3   OH247235   0.963   1.166   5.760 -0.2082  0.9207 -0.3334
 8607TIP3    H147236   0.882   1.140   5.805  1.6188  0.6876  3.1422
 8607TIP3    H247237   0.952   1.260   5.744 -1.7175  0.6156 -1.2903
 8608TIP3   OH247238   0.962   5.139  16.404 -0.3430 -0.3395  0.4186
 8608TIP3    H147239   0.899   5.073  16.375  0.7064 -1.4126  0.5363
 8608TIP3    H247240   0.946   5.214  16.346 -3.0350  0.1943  1.6692
 8609TIP3   OH247241   0.121   2.474   0.442  0.7602 -0.3855  0.2425
 8609TIP3    H147242   0.145   2.404   0.503  2.8498 -0.1841 -0.2558
 8609TIP3    H247243   0.170   2.550   0.473  2.5202 -0.4738 -2.0281
 8610TIP3   OH247244   5.078   2.860   0.320  0.0211 -0.2467 -0.2487
 8610TIP3    H147245   5.002   2.849   0.263 -0.2510  0.2451  0.0271
 8610TIP3    H247246   5.115   2.771   0.326  0.8635 -0.1059 -2.3122
 8611TIP3   OH247247   1.745   3.021  10.962  0.1285 -0.1860 -0.3142
 8611TIP3    H147248   1.808   2.949  10.964  0.5572  0.1839 -0.3391
 8611TIP3    H247249   1.764   3.068  10.881  1.2281  1.1493  0.6721
 8612TIP3   OH247250   4.841   0.279  14.803  0.1267 -0.5183 -0.0228
 8612TIP3    H147251   4.758   0.233  14.810 -0.0555 -0.0784  0.8644
 8612TIP3    H247252   4.821   0.359  14.754  0.7853 -2.1137 -3.2221
 8613TIP3   OH247253   2.570   5.052  12.917 -0.1459 -0.0377  0.0636
 8613TIP3    H147254   2.478   5.048  12.888 -0.2052 -0.2502  0.2843
 8613TIP3    H247255   2.607   4.968  12.891  0.4121  0.6432 -1.4498
 8614TIP3   OH247256   5.601   2.143  15.126 -0.0225  0.1475  0.0592
 8614TIP3    H147257   5.587   2.131  15.220 -0.6223  1.3054  0.1322
 8614TIP3    H247258   5.644   2.228  15.119  0.7358 -0.2833 -0.6712
 8615TIP3   OH247259   0.209   5.728   1.743 -0.0979  0.2243 -0.3177
 8615TIP3    H147260   0.167   5.741   1.828 -1.5593  1.5492 -1.1803
 8615TIP3    H247261   0.291   5.777   1.748  0.1208 -0.2134  0.5199
 8616TIP3   OH247262   1.147   0.938  17.098 -0.6036 -0.0209  0.0756
 8616TIP3    H147263   1.169   0.845  17.087 -0.6828 -0.0662  0.3061
 8616TIP3    H247264   1.059   0.938  17.135 -0.0932  0.1110  1.3623
 8617TIP3   OH247265   4.547   4.049   2.703  0.1766 -0.3500 -0.1526
 8617TIP3    H147266   4.510   4.094   2.779  0.7697 -0.9504  0.5030
 8617TIP3    H247267   4.570   4.119   2.642  1.9056  0.3240  1.1987
 8618TIP3   OH247268   6.385   2.156  11.321 -0.1700  0.5594 -0.0028
 8618TIP3    H147269   6.438   2.115  11.390 -0.0461  2.4529  1.1097
 8618TIP3    H247270   6.321   2.209  11.369 -1.3726  0.3919 -1.3573
 8619TIP3   OH247271   4.082   1.804  13.442 -0.1588  0.0078 -0.2287
 8619TIP3    H147272   4.107   1.754  13.520  0.8391 -0.5481 -0.8831
 8619TIP3    H247273   3.993   1.773  13.422  0.0510 -0.7617 -0.0268
 8620TIP3   OH247274   2.711   5.958  11.805 -0.2386  0.1390  0.0044
 8620TIP3    H147275   2.795   5.928  11.773 -0.0613 -0.3140  0.8756
 8620TIP3    H247276   2.656   5.965  11.726 -0.9012 -4.2417 -0.1903
 8621TIP3   OH247277   1.917   6.675   0.760 -0.1468 -0.0555  0.5907
 8621TIP3    H147278   1.887   6.633   0.841 -2.0512  0.9123  0.4192
 8621TIP3    H247279   1.858   6.749   0.747 -1.3384 -1.4070 -2.8237
 8622TIP3   OH247280   3.305   3.818   2.189  0.4050 -0.1147 -0.0178
 8622TIP3    H147281   3.376   3.828   2.126  1.7638 -0.2985  1.4232
 8622TIP3    H247282   3.247   3.752   2.149  0.1256  1.2253 -1.9586
 8623TIP3   OH247283   3.685   1.067   5.140 -0.3933  0.2619  0.1549
 8623TIP3    H147284   3.665   1.155   5.174 -0.5471  1.3909 -2.6059
 8623TIP3    H247285   3.766   1.079   5.090 -0.2444 -1.2653 -0.0188
 8624TIP3   OH247286   3.441   0.910  12.190 -0.6210  0.2645  0.3800
 8624TIP3    H147287   3.450   0.826  12.234  0.1011  0.3902  0.4806
 8624TIP3    H247288   3.423   0.888  12.099  0.9745 -0.0303  0.1008
 8625TIP3   OH247289   2.145   2.869   5.606  0.3373  0.1190 -0.0312
 8625TIP3    H147290   2.074   2.871   5.542  1.3293 -1.5489 -1.2906
 8625TIP3    H247291   2.139   2.782   5.645  0.5618  0.6454  1.2179
 8626TIP3   OH247292   5.576   2.837   9.991 -0.3442  0.0218  0.3878
 8626TIP3    H147293   5.614   2.789  10.065  0.5872  1.3255  0.7896
 8626TIP3    H247294   5.542   2.768   9.933  0.9540 -1.1301  0.9236
 8627TIP3   OH247295   2.930   2.257   5.584 -0.4762 -0.0054  0.1472
 8627TIP3    H147296   3.005   2.199   5.597  0.2502  0.7825 -0.4606
 8627TIP3    H247297   2.958   2.341   5.620  0.1573  1.1957 -2.8906
 8628TIP3   OH247298   2.118   1.735   2.817 -0.3137 -0.1097 -0.2867
 8628TIP3    H147299   2.079   1.701   2.736  0.3826 -0.3655 -0.5208
 8628TIP3    H247300   2.043   1.759   2.872 -0.8383 -1.8719 -0.1747
 8629TIP3   OH247301   0.751   4.892   4.486 -0.1095 -0.4156  0.2330
 8629TIP3    H147302   0.734   4.850   4.402  0.5455 -2.5929  1.1236
 8629TIP3    H247303   0.836   4.858   4.514 -0.3791  0.1336  1.8501
 8630TIP3   OH247304   2.010   2.770   0.646  0.1755  0.5930  0.7909
 8630TIP3    H147305   1.925   2.784   0.605  0.4888  2.1783  0.6250
 8630TIP3    H247306   2.073   2.774   0.574  0.3536 -1.4662  0.7838
 8631TIP3   OH247307   1.621   5.469   0.963 -0.3867 -0.5202 -1.0825
 8631TIP3    H147308   1.711   5.455   0.935  0.0329 -0.0865 -0.0023
 8631TIP3    H247309   1.614   5.563   0.975 -0.8727 -0.5870 -0.8015
 8632TIP3   OH247310   2.412   4.783  14.399  0.0118 -0.1488  0.0336
 8632TIP3    H147311   2.483   4.789  14.463 -0.9051  1.0447  1.0011
 8632TIP3    H247312   2.450   4.817  14.318  0.0667  2.3827  1.0249
 8633TIP3   OH247313   0.905   0.096   2.961  0.0666 -0.1016 -0.2482
 8633TIP3    H147314   0.824   0.059   2.927  0.0325  0.2217 -0.5247
 8633TIP3    H247315   0.877   0.147   3.037  0.2402 -1.4843  0.7870
 8634TIP3   OH247316   5.237   3.406  12.482  0.3284 -0.3864 -0.3001
 8634TIP3    H147317   5.258   3.377  12.571  1.9787 -0.1340 -0.5665
 8634TIP3    H247318   5.183   3.484  12.493 -0.5777 -1.1110  0.4590
 8635TIP3   OH247319   2.734   1.634  13.806 -0.0559  0.3785  0.2290
 8635TIP3    H147320   2.728   1.685  13.725  0.4727 -0.3617 -0.2931
 8635TIP3    H247321   2.725   1.699  13.876  0.2244  1.1396 -0.4216
 8636TIP3   OH247322   3.787   3.017   6.489 -0.1155  0.2401 -0.1996
 8636TIP3    H147323   3.778   3.087   6.554  0.0284  2.0788 -2.0528
 8636TIP3    H247324   3.697   2.989   6.472 -0.4956  2.0686 -1.5287
 8637TIP3   OH247325   2.926   0.981  16.554 -0.3991  0.6564 -0.4724
 8637TIP3    H147326   3.017   0.959  16.536 -0.6875 -1.0463 -0.0057
 8637TIP3    H247327   2.921   0.989  16.649 -1.1251 -1.2790 -0.3145
 8638TIP3   OH247328   2.165   0.309   2.396  0.0865  0.1821  0.2564
 8638TIP3    H147329   2.237   0.246   2.398 -0.5459 -0.5411  1.8701
 8638TIP3    H247330   2.208   0.395   2.397  0.9590 -0.1704 -2.1454
 8639TIP3   OH247331   0.620   4.470  13.118  0.0133  0.7760  0.4255
 8639TIP3    H147332   0.541   4.525  13.120  0.2734  1.1765 -0.0343
 8639TIP3    H247333   0.690   4.529  13.145  0.3493  0.7655 -0.4158
 8640TIP3   OH247334   6.030   6.753   4.526 -0.3146 -0.2879  0.1173
 8640TIP3    H147335   5.977   6.819   4.571  0.5251  0.7058 -0.3040
 8640TIP3    H247336   6.097   6.804   4.479 -0.0691 -1.4054 -0.7829
 8641TIP3   OH247337   3.603   3.449  15.587 -0.2179 -0.8861  0.6463
 8641TIP3    H147338   3.602   3.502  15.668  0.0171 -1.2534  0.8924
 8641TIP3    H247339   3.564   3.366  15.613 -0.0920 -1.0228  0.3902
 8642TIP3   OH247340   4.415   5.830   6.165  0.9817  0.3777  0.5468
 8642TIP3    H147341   4.360   5.772   6.112 -2.7999  1.0714  3.2846
 8642TIP3    H247342   4.432   5.905   6.108  1.1881 -0.9081 -1.1938
 8643TIP3   OH247343   4.170   6.585  10.845 -0.1786  0.0544  0.5874
 8643TIP3    H147344   4.119   6.575  10.765  0.0876 -0.2268  0.4502
 8643TIP3    H247345   4.234   6.654  10.825  0.4705 -0.6369  0.2570
 8644TIP3   OH247346   1.971   0.954   5.426  0.3543  0.5201 -0.0455
 8644TIP3    H147347   1.966   0.950   5.522  0.7148 -0.7243 -0.0502
 8644TIP3    H247348   2.065   0.946   5.407  0.3014  0.9766 -0.4975
 8645TIP3   OH247349   0.310   1.234   4.905  0.4491 -0.2189  0.5054
 8645TIP3    H147350   0.303   1.139   4.913  1.0046 -0.3349 -0.3436
 8645TIP3    H247351   0.394   1.256   4.944  0.9818 -0.2471 -0.6037
 8646TIP3   OH247352   5.373   2.311   6.011 -0.3987  0.6470 -0.1938
 8646TIP3    H147353   5.325   2.293   6.092  1.0440  2.1068  1.0659
 8646TIP3    H247354   5.357   2.234   5.956 -0.9551 -0.6744  1.7037
 8647TIP3   OH247355   4.424   1.633  15.485 -0.5607  0.4414 -0.1097
 8647TIP3    H147356   4.429   1.540  15.508  0.5199  0.7782  1.1203
 8647TIP3    H247357   4.444   1.635  15.391  0.5572 -0.4817  0.0796
 8648TIP3   OH247358   1.924   0.790   0.031  0.0116  0.1113  0.4911
 8648TIP3    H147359   1.845   0.743   0.057  0.2666  0.4310  1.9300
 8648TIP3    H247360   1.947   0.843   0.108  2.6087 -1.2873  0.8090
 8649TIP3   OH247361   5.432   6.278   5.674 -0.0085 -0.1073  0.2187
 8649TIP3    H147362   5.379   6.340   5.623  0.9232  0.0968 -0.5157
 8649TIP3    H247363   5.395   6.283   5.762 -0.5595  0.7937 -0.0439
 8650TIP3   OH247364   1.956   4.982   0.601 -0.5647  0.1911  0.1219
 8650TIP3    H147365   2.002   4.939   0.674  2.6118  2.8274 -0.0754
 8650TIP3    H247366   1.986   4.936   0.523 -0.6350  0.0269  0.1911
 8651TIP3   OH247367   3.121   3.782  13.917  0.1243 -0.3049  0.0300
 8651TIP3    H147368   3.036   3.740  13.926 -1.2064  1.9993 -0.9605
 8651TIP3    H247369   3.115   3.861  13.970  0.3424  1.6386 -2.6184
 8652TIP3   OH247370   1.774   6.002  12.909 -0.2293 -0.1469  0.2622
 8652TIP3    H147371   1.831   5.933  12.875 -1.2314 -0.0249 -1.7953
 8652TIP3    H247372   1.831   6.078  12.920  0.0981 -0.0956 -1.5254
 8653TIP3   OH247373   4.509   5.264   3.671 -0.1193  0.3960 -0.5386
 8653TIP3    H147374   4.423   5.222   3.664  0.1712  0.0369 -2.4577
 8653TIP3    H247375   4.570   5.201   3.632  0.8287  1.1416 -0.2907
 8654TIP3   OH247376   2.599   1.246   4.607  0.1015 -0.0907  0.0747
 8654TIP3    H147377   2.646   1.176   4.562 -1.1726 -0.0116 -1.4686
 8654TIP3    H247378   2.600   1.319   4.545  0.1470  0.7707  1.0622
 8655TIP3   OH247379   6.473   0.155  14.022 -0.6584 -0.0440 -0.3833
 8655TIP3    H147380   6.544   0.220  14.018 -1.6558  1.0994 -0.1963
 8655TIP3    H247381   6.488   0.108  14.104  0.6321 -0.7510 -0.9788
 8656TIP3   OH247382   1.916   6.459   0.034 -0.0759 -0.2647 -0.2746
 8656TIP3    H147383   2.005   6.423   0.034 -0.0201 -0.1900  1.3487
 8656TIP3    H247384   1.869   6.408   0.100 -0.6109  1.1577  0.4931
 8657TIP3   OH247385   5.511   4.950   6.098 -0.0146 -0.5558  0.1076
 8657TIP3    H147386   5.545   4.972   6.011 -0.8558  0.3448 -0.0095
 8657TIP3    H247387   5.583   4.971   6.157  0.0097  0.3311 -0.2269
 8658TIP3   OH247388   5.754   2.674   0.115 -0.2197  0.1091  0.3794
 8658TIP3    H147389   5.845   2.696   0.095 -0.0997  1.9737  2.6396
 8658TIP3    H247390   5.705   2.705   0.039  0.8871  0.2705 -0.2920
 8659TIP3   OH247391   0.032   0.177  16.405  0.4093  0.3774  0.1538
 8659TIP3    H147392   0.026   0.271  16.424  1.8363  0.2413  1.5131
 8659TIP3    H247393   0.100   0.170  16.339 -2.2244  0.5471 -2.7775
 8660TIP3   OH247394   4.725   5.538   5.386  0.3419 -0.0324  0.7135
 8660TIP3    H147395   4.749   5.449   5.410  0.8107 -0.6236 -1.7501
 8660TIP3    H247396   4.808   5.583   5.375  0.1635  0.0342 -0.3998
 8661TIP3   OH247397   6.538   4.195   2.036  0.6251  0.5822 -0.1774
 8661TIP3    H147398   6.499   4.122   1.987  0.2588  1.9620 -2.0615
 8661TIP3    H247399   6.462   4.242   2.072  0.8775 -0.1800  1.4626
 8662TIP3   OH247400   2.159   2.230   0.751 -0.3350 -0.2169 -0.4528
 8662TIP3    H147401   2.105   2.152   0.761 -0.2366 -0.2190  0.0624
 8662TIP3    H247402   2.099   2.303   0.766 -0.2182 -0.2164  0.0076
 8663TIP3   OH247403   3.384   0.758   3.204 -0.1873  0.2264  0.7181
 8663TIP3    H147404   3.320   0.726   3.268 -1.6510  2.1737  0.3456
 8663TIP3    H247405   3.469   0.732   3.239 -1.0693 -5.7335 -0.4969
 8664TIP3   OH247406   5.974   0.632  12.071 -0.1387  0.2565 -0.1900
 8664TIP3    H147407   5.976   0.723  12.102 -1.9400 -0.6452  3.1085
 8664TIP3    H247408   6.058   0.596  12.100 -0.1136  0.4589 -0.0026
 8665TIP3   OH247409   6.347   2.734   0.550  0.6213  0.6384 -0.3009
 8665TIP3    H147410   6.370   2.692   0.633 -0.0386  1.7206  0.4508
 8665TIP3    H247411   6.252   2.723   0.543  0.8664 -1.0523 -1.8404
 8666TIP3   OH247412   4.313   1.063  11.713 -0.0751  0.2346 -0.0518
 8666TIP3    H147413   4.301   1.158  11.718  0.2320  0.2569  0.2594
 8666TIP3    H247414   4.404   1.051  11.688  0.4163  0.0084  1.6697
 8667TIP3   OH247415   1.363   3.726   3.444  0.2271 -0.3783 -0.6022
 8667TIP3    H147416   1.384   3.708   3.536  0.7699  2.4962 -0.0570
 8667TIP3    H247417   1.308   3.804   3.447 -0.1904 -0.5333 -2.7092
 8668TIP3   OH247418   0.461   1.491   0.191 -0.1272  0.6291 -0.5720
 8668TIP3    H147419   0.479   1.424   0.257 -0.3952  1.2542  0.1526
 8668TIP3    H247420   0.462   1.574   0.239  1.1108  1.2561 -1.6085
 8669TIP3   OH247421   4.396   0.592   2.433  0.3293  0.5972 -0.1410
 8669TIP3    H147422   4.386   0.497   2.443  0.0001  0.6804  0.3469
 8669TIP3    H247423   4.384   0.607   2.339  3.2472 -0.1804 -0.7581
 8670TIP3   OH247424   3.205   4.544   0.008  0.2664 -0.7578 -0.2934
 8670TIP3    H147425   3.190   4.450   0.009 -0.7737 -0.6356  2.0431
 8670TIP3    H247426   3.292   4.554   0.048  0.5194 -0.7262 -0.8439
 8671TIP3   OH247427   1.939   1.720  12.176 -0.4205 -0.0650 -0.0732
 8671TIP3    H147428   1.950   1.661  12.250 -1.0877 -0.6684 -0.4375
 8671TIP3    H247429   1.844   1.728  12.166 -0.3340  0.3260 -0.6029
 8672TIP3   OH247430   4.846   5.628   0.511 -0.3723 -0.3737  0.2021
 8672TIP3    H147431   4.880   5.550   0.556 -1.2278 -0.4571  0.7173
 8672TIP3    H247432   4.921   5.661   0.461 -0.2661 -2.1370 -0.8910
 8673TIP3   OH247433   4.334   6.250   5.687 -0.6244  0.0199  0.3142
 8673TIP3    H147434   4.405   6.239   5.751  0.1184 -1.1581 -0.6822
 8673TIP3    H247435   4.266   6.189   5.716 -0.2520 -0.5772 -0.0704
 8674TIP3   OH247436   5.249   5.678   5.063  0.8027 -0.0476 -0.5083
 8674TIP3    H147437   5.158   5.700   5.080  1.1281  1.8166 -0.9313
 8674TIP3    H247438   5.253   5.661   4.969  1.2929  2.3968 -0.9955
 8675TIP3   OH247439   3.138   2.339   1.957 -0.3970  0.1558  0.5854
 8675TIP3    H147440   3.111   2.325   2.048  0.6409 -1.8803  0.6193
 8675TIP3    H247441   3.119   2.257   1.913  1.4298  0.2421 -0.4565
 8676TIP3   OH247442   2.221   0.413   4.819  0.2469 -0.4256 -0.1068
 8676TIP3    H147443   2.148   0.398   4.759 -0.3471 -0.7061  0.6640
 8676TIP3    H247444   2.234   0.508   4.818 -1.2151 -0.1798  0.9685
 8677TIP3   OH247445   1.352   1.257  14.403 -0.0638  0.5766  0.1515
 8677TIP3    H147446   1.338   1.320  14.332  0.2880 -0.0286 -0.4633
 8677TIP3    H247447   1.401   1.307  14.469  0.2185  0.9495 -0.3287
 8678TIP3   OH247448   1.270   1.149   1.001 -0.1893 -0.3795  0.2539
 8678TIP3    H147449   1.251   1.188   1.086  0.8791 -1.8886  1.2532
 8678TIP3    H247450   1.338   1.205   0.963 -0.6101  0.2517  0.4206
 8679TIP3   OH247451   6.653   5.469  10.872  0.4168  0.1897 -0.1016
 8679TIP3    H147452   6.733   5.489  10.824  0.2884  0.3657 -0.2467
 8679TIP3    H247453   6.598   5.422  10.810  0.3447  0.2101 -0.0547
 8680TIP3   OH247454   1.234   2.466   1.976 -0.2414 -0.1976 -0.3141
 8680TIP3    H147455   1.254   2.556   2.003  1.4244 -0.3325 -0.9935
 8680TIP3    H247456   1.164   2.476   1.912  0.3550  0.6955 -0.8597
 8681TIP3   OH247457   4.083   0.977  15.801 -0.4537 -0.1710  0.3232
 8681TIP3    H147458   4.170   0.979  15.762  0.2036 -1.0515  1.6768
 8681TIP3    H247459   4.097   0.993  15.894 -1.9476  1.5832  0.3111
 8682TIP3   OH247460   4.999   5.913   1.592  0.1311  0.5464  0.4835
 8682TIP3    H147461   5.013   5.981   1.527  0.6211  0.9575  1.0139
 8682TIP3    H247462   5.086   5.891   1.624 -0.0968  0.3134  0.9659
 8683TIP3   OH247463   3.415   4.888   3.294  0.0944  0.3502  0.0885
 8683TIP3    H147464   3.444   4.821   3.356 -4.7122 -0.1835  2.1645
 8683TIP3    H247465   3.467   4.965   3.317  2.8144 -1.4481  0.4554
 8684TIP3   OH247466   4.014   2.740   1.510  0.1823 -0.1727  0.2689
 8684TIP3    H147467   3.934   2.784   1.539 -1.4207 -1.3886 -1.9986
 8684TIP3    H247468   4.061   2.806   1.460  0.6070  0.5372  1.5678
 8685TIP3   OH247469   2.934   0.877  12.410 -0.6392 -0.4304 -0.2759
 8685TIP3    H147470   3.020   0.884  12.450 -1.5271  0.7557  1.5517
 8685TIP3    H247471   2.924   0.957  12.359 -1.1800  0.1281  0.6724
 8686TIP3   OH247472   4.117   0.460  15.726  0.0480  0.0377  0.1620
 8686TIP3    H147473   4.190   0.488  15.672 -0.6340 -0.1638 -0.8957
 8686TIP3    H247474   4.084   0.381  15.683 -1.3434  0.6277  0.0890
 8687TIP3   OH247475   3.120   4.374  12.666  0.1785  0.0575 -0.3396
 8687TIP3    H147476   3.178   4.384  12.741 -0.8504  0.9227  0.3639
 8687TIP3    H247477   3.035   4.406  12.696 -0.5873 -0.8350 -1.4603
 8688TIP3   OH247478   5.760   1.897  15.117  0.1715  0.5867 -1.1744
 8688TIP3    H147479   5.773   1.886  15.212 -1.4423  1.7941 -0.7718
 8688TIP3    H247480   5.815   1.972  15.094 -0.9465  1.5713 -0.7579
 8689TIP3   OH247481   4.046   4.116   6.093 -0.0317 -0.1842  0.2419
 8689TIP3    H147482   4.132   4.106   6.052 -0.4298  1.8017 -1.2215
 8689TIP3    H247483   4.066   4.137   6.184  1.1647  2.2560 -0.4996
 8690TIP3   OH247484   2.604   2.539   4.034 -0.2722 -0.5303 -0.5010
 8690TIP3    H147485   2.628   2.469   3.973 -3.6738 -1.5602 -0.8836
 8690TIP3    H247486   2.531   2.583   3.992 -1.1880  0.2676  1.7792
 8691TIP3   OH247487   3.856   5.747  16.290 -0.9888 -0.0714  0.4568
 8691TIP3    H147488   3.801   5.823  16.270  0.8650  1.9824  2.6131
 8691TIP3    H247489   3.808   5.700  16.358 -1.2911  0.2009  0.4324
 8692TIP3   OH247490   3.524   6.497   0.935  0.4382 -0.7032 -0.6588
 8692TIP3    H147491   3.608   6.452   0.946 -0.7567 -2.5593  2.2173
 8692TIP3    H247492   3.469   6.433   0.890  0.3108  0.2663 -1.9531
 8693TIP3   OH247493   3.232   3.434  11.899  0.2564  0.4499 -0.2837
 8693TIP3    H147494   3.150   3.396  11.870  0.9800  0.2575 -2.2595
 8693TIP3    H247495   3.215   3.529  11.903 -0.4180  0.3016  0.6878
 8694TIP3   OH247496   4.291   1.158  14.759  0.7312  0.5746 -0.1466
 8694TIP3    H147497   4.206   1.199  14.740 -0.4002  0.6313  4.0738
 8694TIP3    H247498   4.274   1.064  14.753  0.7631  0.5894 -0.5401
 8695TIP3   OH247499   4.002   5.325  13.740 -0.0111 -0.1429  0.0377
 8695TIP3    H147500   4.025   5.417  13.730 -0.1130 -0.2037 -0.7920
 8695TIP3    H247501   3.919   5.326  13.787  0.0736  0.1764  0.1843
 8696TIP3   OH247502   4.603   6.598   0.159 -0.3660 -0.0267 -0.3847
 8696TIP3    H147503   4.673   6.589   0.095  0.1113  0.5379  0.0567
 8696TIP3    H247504   4.647   6.623   0.240 -1.1911  1.7169 -0.4342
 8697TIP3   OH247505   3.918   3.473  14.512 -0.5576  0.3698 -0.2404
 8697TIP3    H147506   3.830   3.511  14.520 -0.1264  1.2439  0.4983
 8697TIP3    H247507   3.904   3.379  14.521 -1.2963  0.5829  0.9943
 8698TIP3   OH247508   0.819   0.418   2.232  0.2495  0.2174 -0.4055
 8698TIP3    H147509   0.818   0.478   2.307  0.7190 -0.8222  0.4634
 8698TIP3    H247510   0.731   0.381   2.230  0.0872  0.6089 -0.6820
 8699TIP3   OH247511   6.573   3.775  14.702 -0.4089  0.3494 -0.3879
 8699TIP3    H147512   6.572   3.838  14.630  0.8327  0.3477 -0.4219
 8699TIP3    H247513   6.648   3.718  14.683 -0.6016 -0.1939  0.4450
 8700TIP3   OH247514   4.685   4.099  11.588 -0.1115 -0.6010 -0.3654
 8700TIP3    H147515   4.661   4.112  11.496 -0.3590 -0.5293 -0.2904
 8700TIP3    H247516   4.621   4.037  11.622  0.6375 -1.4855 -0.5240
 8701TIP3   OH247517   2.039   0.873  15.110 -0.1161  0.2266 -0.3084
 8701TIP3    H147518   2.094   0.800  15.081  1.2875  1.4956 -1.0023
 8701TIP3    H247519   2.075   0.896  15.196  0.7510  1.3040 -0.9267
 8702TIP3   OH247520   1.466   2.975   3.336  0.3886  0.2733  0.0933
 8702TIP3    H147521   1.475   2.981   3.431  0.1004 -1.8031  0.3023
 8702TIP3    H247522   1.556   2.960   3.305  0.3971  0.2989  0.1053
 8703TIP3   OH247523   6.095   1.116   3.988 -0.2409  0.0165 -0.6227
 8703TIP3    H147524   6.086   1.168   3.908  0.5756 -0.7423 -1.2227
 8703TIP3    H247525   6.043   1.038   3.971  1.8619 -1.2790 -1.4227
 8704TIP3   OH247526   3.570   0.930   5.657  0.3823 -0.2346  0.3493
 8704TIP3    H147527   3.516   0.851   5.659  0.0578 -0.0196  0.1326
 8704TIP3    H247528   3.542   0.981   5.732 -2.5181  1.7048 -1.8242
 8705TIP3   OH247529   0.047   3.507   1.687  0.0544 -0.2066 -0.2201
 8705TIP3    H147530  -0.007   3.473   1.616 -2.0988  0.2853  1.1097
 8705TIP3    H247531   0.046   3.439   1.754  0.6600  0.0378  0.0549
 8706TIP3   OH247532   3.544   1.239  14.481 -0.2871 -0.5855 -0.3124
 8706TIP3    H147533   3.476   1.280  14.426 -0.1734 -0.2198 -0.1829
 8706TIP3    H247534   3.496   1.183  14.541 -0.4309 -0.8096 -0.6364
 8707TIP3   OH247535   5.989   3.581  12.811  0.0350 -0.2269 -0.2157
 8707TIP3    H147536   5.987   3.672  12.778 -1.3224 -0.3918 -0.6294
 8707TIP3    H247537   6.017   3.530  12.735 -0.8416 -0.3411 -0.4677
 8708TIP3   OH247538   2.238   4.609  15.269  0.5487  0.9301 -0.1984
 8708TIP3    H147539   2.198   4.695  15.277 -0.4825  0.4501  0.0869
 8708TIP3    H247540   2.244   4.593  15.175 -3.4299 -0.4636 -0.4017
 8709TIP3   OH247541   5.334   1.681  15.593  0.2808 -0.1461 -0.3261
 8709TIP3    H147542   5.356   1.628  15.516 -0.4396 -0.6598 -0.1936
 8709TIP3    H247543   5.244   1.711  15.578 -0.2204 -1.0229  0.7069
 8710TIP3   OH247544   5.621   2.223   2.880  0.7982 -0.0020 -0.0575
 8710TIP3    H147545   5.664   2.224   2.965  0.2091 -0.4557  0.2470
 8710TIP3    H247546   5.578   2.138   2.875 -0.2561  0.5188 -0.2589
 8711TIP3   OH247547   3.940   6.286   2.637 -0.2280 -0.5060 -0.1079
 8711TIP3    H147548   3.964   6.296   2.729 -0.3476 -0.1531 -0.1153
 8711TIP3    H247549   3.921   6.374   2.607  0.9803 -0.4606 -0.7984
 8712TIP3   OH247550   5.748   0.072  11.586  0.4949  0.0647  0.2474
 8712TIP3    H147551   5.726   0.110  11.501  0.1819  1.5499  0.9557
 8712TIP3    H247552   5.730  -0.022  11.576 -2.5767  0.5975 -0.4050
 8713TIP3   OH247553   2.417   2.676   0.456 -0.0953 -0.1371  0.1349
 8713TIP3    H147554   2.452   2.699   0.542  1.3000  0.3557 -0.5251
 8713TIP3    H247555   2.450   2.587   0.440 -1.3623 -0.7083  0.6002
 8714TIP3   OH247556   2.384   5.147  14.648 -0.8014  0.0479 -0.5699
 8714TIP3    H147557   2.407   5.104  14.730 -0.3757  1.0112 -0.1683
 8714TIP3    H247558   2.288   5.145  14.646 -0.7803 -1.1614 -0.7035
 8715TIP3   OH247559   4.609   0.717   2.553  0.1404  0.0349 -0.6325
 8715TIP3    H147560   4.602   0.802   2.508 -0.2462  0.6524  0.5493
 8715TIP3    H247561   4.545   0.661   2.508 -0.5848  0.7771 -0.5593
 8716TIP3   OH247562   6.219   4.019   4.542 -0.7003 -0.0284 -0.2015
 8716TIP3    H147563   6.292   4.081   4.533 -0.2957 -0.3739  0.6732
 8716TIP3    H247564   6.260   3.933   4.548 -1.2119 -0.2893 -0.3501
 8717TIP3   OH247565   6.668   5.162  15.527 -0.0788  0.4673  0.6935
 8717TIP3    H147566   6.692   5.255  15.525  2.2927 -0.0760  0.1619
 8717TIP3    H247567   6.751   5.117  15.542 -1.1190 -1.6018  0.5385
 8718TIP3   OH247568   1.501   1.950  10.794  0.1993 -0.0391 -0.0528
 8718TIP3    H147569   1.484   2.038  10.827  0.8236 -0.6205  2.0262
 8718TIP3    H247570   1.441   1.894  10.844  2.7470 -1.2290  1.9547
 8719TIP3   OH247571   6.330   3.047  16.186  0.3021 -0.3768  0.2386
 8719TIP3    H147572   6.322   2.997  16.267  1.1342  0.4013  0.8302
 8719TIP3    H247573   6.320   3.138  16.213 -0.8689 -0.1757 -0.7679
 8720TIP3   OH247574   4.005   2.636   1.919 -0.6669 -0.2931 -1.0321
 8720TIP3    H147575   4.057   2.706   1.879  1.5885 -0.8311  0.6834
 8720TIP3    H247576   4.032   2.557   1.872 -0.9473 -0.3942 -1.0201
 8721TIP3   OH247577   4.418   2.436  11.414 -0.3060  0.3604 -0.2490
 8721TIP3    H147578   4.368   2.517  11.427  0.0696  0.4799  0.5410
 8721TIP3    H247579   4.452   2.415  11.501 -2.8347 -2.2808  0.2590
 8722TIP3   OH247580   2.759   3.354   6.157 -0.0621  0.2834  0.2143
 8722TIP3    H147581   2.846   3.391   6.172 -0.5186  0.6967  2.1197
 8722TIP3    H247582   2.728   3.329   6.244 -1.3415 -1.0445 -0.5782
 8723TIP3   OH247583   0.063   3.002   1.922  0.4741  0.3849 -0.3173
 8723TIP3    H147584   0.071   2.941   1.995 -0.6110 -1.3935 -1.6161
 8723TIP3    H247585  -0.010   3.059   1.947  0.2225 -0.0877  0.0323
 8724TIP3   OH247586   6.754   0.940   3.573 -0.1933  0.7406 -0.1759
 8724TIP3    H147587   6.820   0.924   3.641 -0.6423  1.4841  0.4468
 8724TIP3    H247588   6.766   1.032   3.549 -0.6459  0.7344 -0.4433
 8725TIP3   OH247589   2.494   1.714  13.314 -0.1447  0.1260  0.0424
 8725TIP3    H147590   2.426   1.781  13.321  1.0509  1.2359  1.9114
 8725TIP3    H247591   2.576   1.762  13.330  0.7785 -1.7463  1.1988
 8726TIP3   OH247592   0.894   2.254  13.000  0.2604 -0.7650 -0.5076
 8726TIP3    H147593   0.855   2.324  13.051  1.2836  1.0346 -2.0414
 8726TIP3    H247594   0.932   2.195  13.065  0.5714  0.8340  0.8322
 8727TIP3   OH247595   5.111   6.123  10.647  0.2584 -0.5503 -0.2466
 8727TIP3    H147596   5.204   6.143  10.647 -0.2339  2.1408 -1.3725
 8727TIP3    H247597   5.077   6.164  10.727 -0.3677  1.1061 -1.3076
 8728TIP3   OH247598   4.098   1.627   0.222 -0.1966 -0.1113  0.1617
 8728TIP3    H147599   4.097   1.540   0.183  0.3492 -0.5136  1.0201
 8728TIP3    H247600   4.189   1.656   0.215 -0.4461  0.5426 -0.4458
 8729TIP3   OH247601   6.278   1.286   5.740  0.4723 -0.4090 -0.4158
 8729TIP3    H147602   6.333   1.334   5.802  0.7463 -0.1970 -0.8197
 8729TIP3    H247603   6.260   1.203   5.783  0.8641 -0.3617 -0.1591
 8730TIP3   OH247604   0.476   2.904   1.337  0.0601 -0.5362  0.2923
 8730TIP3    H147605   0.564   2.942   1.341  0.5743 -1.5317 -0.8418
 8730TIP3    H247606   0.423   2.970   1.292 -0.6425  1.4885  3.7375
 8731TIP3   OH247607   4.364   4.299  10.715  0.2459  0.0331  0.1240
 8731TIP3    H147608   4.448   4.263  10.746 -0.3688 -0.6122  1.1054
 8731TIP3    H247609   4.345   4.370  10.776 -0.0903 -0.0510  0.1196
 8732TIP3   OH247610   3.000   3.894  15.955  0.0845  0.2945  0.1634
 8732TIP3    H147611   3.013   3.954  15.882 -1.9678 -0.1943 -0.6457
 8732TIP3    H247612   2.978   3.951  16.029 -1.1789  0.6248 -0.4369
 8733TIP3   OH247613   2.292   3.097   2.425 -0.1061 -0.4887 -0.6916
 8733TIP3    H147614   2.357   3.028   2.439 -0.3929 -0.6576 -0.1713
 8733TIP3    H247615   2.208   3.053   2.439 -0.3639 -0.3988 -1.8712
 8734TIP3   OH247616   1.650   4.250  16.702  0.4002 -0.1247  0.8899
 8734TIP3    H147617   1.738   4.251  16.740  0.8838 -0.1939 -0.1806
 8734TIP3    H247618   1.650   4.173  16.644  0.0229  0.5362 -0.0060
 8735TIP3   OH247619   6.209   4.616   0.460  1.1288 -0.6761  0.0193
 8735TIP3    H147620   6.121   4.635   0.494  0.9184 -2.0488  0.3003
 8735TIP3    H247621   6.261   4.692   0.484 -0.7170  1.8744 -3.1547
 8736TIP3   OH247622   0.846   2.663  14.014  0.3264  0.1427 -0.4280
 8736TIP3    H147623   0.904   2.724  14.060  0.3752  0.5235 -0.9924
 8736TIP3    H247624   0.890   2.645  13.931  0.1176 -0.3494 -0.4357
 8737TIP3   OH247625   3.046   3.465  10.892 -0.1030 -0.0322  0.1840
 8737TIP3    H147626   2.971   3.504  10.847 -0.1310 -0.1581  0.1209
 8737TIP3    H247627   3.122   3.510  10.855 -0.1202 -0.1830 -0.0440
 8738TIP3   OH247628   1.663   3.713   3.586  0.0823  0.4646 -0.0553
 8738TIP3    H147629   1.617   3.629   3.581 -1.3643  1.2606 -0.6641
 8738TIP3    H247630   1.717   3.715   3.507  1.2180 -0.4704  0.6564
 8739TIP3   OH247631   3.337   2.250   3.051  0.0318  0.1934 -0.0185
 8739TIP3    H147632   3.329   2.341   3.023 -3.0220 -0.5214 -1.9335
 8739TIP3    H247633   3.289   2.245   3.133  0.5484  0.3602  0.2991
 8740TIP3   OH247634   0.469   0.637  10.672  0.6605  0.1777 -0.1119
 8740TIP3    H147635   0.489   0.686  10.752  1.4603 -0.4119  0.0694
 8740TIP3    H247636   0.431   0.555  10.703 -1.8936  1.1563 -0.4549
 8741TIP3   OH247637   5.360   3.883   1.051  0.6904 -1.0465  0.4096
 8741TIP3    H147638   5.390   3.879   1.142  2.0378 -1.7448 -0.0449
 8741TIP3    H247639   5.382   3.971   1.022 -0.1157 -0.6817  0.8666
 8742TIP3   OH247640   2.229   6.436   1.013 -0.4553  0.4677  0.6035
 8742TIP3    H147641   2.279   6.426   1.095  1.5325 -0.9685 -0.6916
 8742TIP3    H247642   2.246   6.526   0.986  3.0620 -0.4091 -0.6574
 8743TIP3   OH247643   4.449   3.495  13.931  0.1586 -0.2813 -0.0968
 8743TIP3    H147644   4.422   3.586  13.922  0.3266 -0.3175 -1.1199
 8743TIP3    H247645   4.527   3.488  13.876  2.8172  0.0162  3.3156
 8744TIP3   OH247646   1.067   1.134  11.486  0.0229  0.3534 -0.9160
 8744TIP3    H147647   1.050   1.188  11.409 -0.9935 -1.1680 -1.8310
 8744TIP3    H247648   0.998   1.067  11.484  0.5977 -0.3497  0.7399
 8745TIP3   OH247649   0.960   2.623   4.101 -0.1401  0.1723  0.4937
 8745TIP3    H147650   0.982   2.664   4.017 -0.1915 -0.1780  0.3084
 8745TIP3    H247651   0.936   2.533   4.079 -0.5442  0.1907  0.8400
 8746TIP3   OH247652   4.300   1.362  14.535  0.3658  0.2211 -0.0899
 8746TIP3    H147653   4.233   1.373  14.602  1.5137 -0.6259  1.2631
 8746TIP3    H247654   4.251   1.346  14.455 -1.0589  1.6686  0.4315
 8747TIP3   OH247655   0.874   2.046  15.564  0.4500  0.2354  0.7041
 8747TIP3    H147656   0.878   1.955  15.591  0.8516 -0.0570 -0.2875
 8747TIP3    H247657   0.854   2.095  15.644  0.1999 -0.7193  1.2306
 8748TIP3   OH247658   5.806   5.666  13.135  0.3338 -0.0973 -0.5384
 8748TIP3    H147659   5.862   5.594  13.166  1.2930 -0.2443 -2.4808
 8748TIP3    H247660   5.814   5.663  13.040 -2.2903  0.4794 -0.8327
 8749TIP3   OH247661   1.714   2.852  13.392  0.4267 -0.3701 -0.2912
 8749TIP3    H147662   1.748   2.821  13.476 -1.4213  0.4157  0.8112
 8749TIP3    H247663   1.688   2.943  13.409  1.5591  0.3792 -2.2025
 8750TIP3   OH247664   5.911   2.112   0.102  0.4736 -1.1631  0.1797
 8750TIP3    H147665   5.835   2.057   0.118  0.1009 -0.2511  1.7449
 8750TIP3    H247666   5.986   2.059   0.129  0.1954 -1.2626  0.7806
 8751TIP3   OH247667   1.047   6.126   3.663  0.4727  0.0397  0.2940
 8751TIP3    H147668   1.058   6.032   3.650  0.2546 -0.1080  1.1118
 8751TIP3    H247669   1.108   6.166   3.601  0.8773 -0.6456  0.2369
 8752TIP3   OH247670   3.835   2.965  11.209 -0.9329 -0.6498 -0.2365
 8752TIP3    H147671   3.820   3.016  11.289  0.9878 -0.4649  0.0392
 8752TIP3    H247672   3.781   3.007  11.143 -1.0390  0.4085  0.4996
 8753TIP3   OH247673   2.744   5.305   1.875  0.1531 -0.1070  0.4985
 8753TIP3    H147674   2.737   5.291   1.970 -0.7603 -0.1234  0.4292
 8753TIP3    H247675   2.821   5.361   1.866 -0.0544  0.3318  1.2961
 8754TIP3   OH247676   2.546   3.295  15.807  0.1324 -0.7232  0.1277
 8754TIP3    H147677   2.595   3.377  15.814  0.2961 -0.9190  1.4292
 8754TIP3    H247678   2.465   3.320  15.762  1.7077 -0.5522 -2.8662
 8755TIP3   OH247679   1.021   2.461  12.698  0.7641  0.2196  0.0337
 8755TIP3    H147680   0.935   2.464  12.740  1.1848 -0.0165  0.9295
 8755TIP3    H247681   1.078   2.418  12.762  1.8119  1.3733 -0.0861
 8756TIP3   OH247682   5.100   6.601  12.342 -0.0230  0.4882  0.4592
 8756TIP3    H147683   5.035   6.553  12.291  0.1708  0.5339  0.1678
 8756TIP3    H247684   5.051   6.638  12.415 -0.4514  1.0960 -0.1248
 8757TIP3   OH247685   4.803   1.638  16.285  0.6140 -0.9897 -0.6285
 8757TIP3    H147686   4.845   1.690  16.216  0.9131  1.1248  1.0338
 8757TIP3    H247687   4.827   1.548  16.265  3.7657 -0.1424 -1.2823
 8758TIP3   OH247688   2.277   2.267   1.844  0.3786 -0.2116 -0.1778
 8758TIP3    H147689   2.234   2.230   1.767 -0.9866 -0.2312  0.5768
 8758TIP3    H247690   2.325   2.194   1.882 -1.2124 -0.9243  0.5402
 8759TIP3   OH247691   2.006   0.682   5.384  0.0739 -0.6889  0.1905
 8759TIP3    H147692   2.012   0.776   5.397 -0.4973 -0.5465 -0.5306
 8759TIP3    H247693   1.918   0.659   5.416  0.0978 -0.9314  0.0860
 8760TIP3   OH247694   2.240   2.606   5.465 -0.0821  0.5862 -0.3028
 8760TIP3    H147695   2.277   2.670   5.404 -0.3757 -0.3175 -1.4706
 8760TIP3    H247696   2.177   2.557   5.412  0.7033 -1.1726  0.3367
 8761TIP3   OH247697   3.981   1.366   5.290  0.3144 -0.0732  0.1561
 8761TIP3    H147698   4.011   1.281   5.257 -0.4923  0.3212 -1.7007
 8761TIP3    H247699   4.025   1.430   5.235 -1.9020  0.5800 -0.9852
 8762TIP3   OH247700   2.532   6.472  13.905  0.0529 -0.2156 -0.0758
 8762TIP3    H147701   2.446   6.494  13.871  0.2952 -0.5235 -0.9304
 8762TIP3    H247702   2.515   6.404  13.970 -0.6084  1.7940  1.9474
 8763TIP3   OH247703   1.885   1.578  10.015 -0.1381  0.2243  1.0891
 8763TIP3    H147704   1.794   1.605  10.005 -0.0816  0.3804  0.9849
 8763TIP3    H247705   1.892   1.496   9.966 -0.6922 -0.8269  2.6977
 8764TIP3   OH247706   1.843   5.227  14.051 -0.1898  0.3110  0.1690
 8764TIP3    H147707   1.910   5.293  14.069 -0.0557 -0.1575  1.5050
 8764TIP3    H247708   1.818   5.194  14.137 -0.6705 -0.9782 -0.4361
 8765TIP3   OH247709   1.018   2.161   1.902 -0.3620  0.4820 -0.4251
 8765TIP3    H147710   0.939   2.154   1.956 -0.1944  1.1663 -0.0770
 8765TIP3    H247711   1.009   2.245   1.857  1.0756  1.5289  1.1314
 8766TIP3   OH247712   6.015   5.652   5.726 -0.3613 -0.0298 -0.0801
 8766TIP3    H147713   6.052   5.699   5.651 -0.1026 -0.7884 -0.4319
 8766TIP3    H247714   6.041   5.705   5.802  0.9642 -0.2333 -0.3728
 8767TIP3   OH247715   5.428   1.879  16.421  0.1699 -0.0278 -0.1007
 8767TIP3    H147716   5.432   1.799  16.369 -0.6587 -0.3475  0.3124
 8767TIP3    H247717   5.419   1.848  16.512  1.8153  0.5122  0.2908
 8768TIP3   OH247718   1.009   2.611  13.021 -0.6894  0.2618 -0.0028
 8768TIP3    H147719   1.104   2.612  13.028 -0.6235 -0.2745 -0.6903
 8768TIP3    H247720   0.990   2.659  12.941 -0.9064 -0.7149 -0.5604
 8769TIP3   OH247721   0.286   3.229  13.764 -0.3166 -0.0228  0.2693
 8769TIP3    H147722   0.340   3.295  13.808 -0.4237  2.6103 -3.1045
 8769TIP3    H247723   0.349   3.174  13.716 -0.3818 -0.4924  0.7155
 8770TIP3   OH247724   5.974   3.699  15.215  0.0675 -0.0046 -0.5202
 8770TIP3    H147725   6.057   3.662  15.185  0.2835 -0.3048  0.4254
 8770TIP3    H247726   5.954   3.651  15.295 -0.3457  0.9861 -0.0119
 8771TIP3   OH247727   2.800   4.706  15.092 -0.3751 -0.6722 -0.0681
 8771TIP3    H147728   2.891   4.678  15.082 -0.7595 -1.8923 -0.2665
 8771TIP3    H247729   2.783   4.762  15.017  1.1113  2.1403  1.5277
 8772TIP3   OH247730   5.404   3.041  14.166 -0.5316  0.5600 -0.5877
 8772TIP3    H147731   5.321   2.994  14.168 -0.2861  0.1055 -0.8479
 8772TIP3    H247732   5.420   3.067  14.257  0.1234 -1.2784 -0.1448
 8773TIP3   OH247733   3.997   6.732  11.964 -0.5712 -0.6046  0.1863
 8773TIP3    H147734   4.039   6.716  11.880  1.6884  0.1793  1.1049
 8773TIP3    H247735   3.993   6.827  11.972  1.2645 -0.5897  1.8395
 8774TIP3   OH247736   2.657   3.696  12.908 -0.5499  0.1752 -0.0704
 8774TIP3    H147737   2.660   3.639  12.831 -0.3781 -0.8471  0.6752
 8774TIP3    H247738   2.685   3.640  12.981 -1.5716  0.8768  0.8957
 8775TIP3   OH247739   5.291   2.546   2.276  0.4670 -0.0838  0.3278
 8775TIP3    H147740   5.267   2.589   2.194 -0.8069 -0.2218  0.6119
 8775TIP3    H247741   5.267   2.609   2.344 -1.7568 -1.3067  0.7704
 8776TIP3   OH247742   0.862   0.794  11.223 -0.2756  0.0470 -0.1799
 8776TIP3    H147743   0.835   0.748  11.144  0.1771 -0.2523 -0.1644
 8776TIP3    H247744   0.947   0.831  11.201 -0.6775  0.9601 -0.2202
 8777TIP3   OH247745   4.906   3.515  14.284 -0.5316  0.4415  0.1096
 8777TIP3    H147746   4.863   3.545  14.364  0.2392  1.5494  0.1391
 8777TIP3    H247747   4.836   3.477  14.231 -0.9094 -1.1575  1.6693
 8778TIP3   OH247748   0.464   3.353  16.170 -0.0170  0.1964  0.2382
 8778TIP3    H147749   0.418   3.306  16.100 -0.2936 -0.8125  1.0854
 8778TIP3    H247750   0.551   3.371  16.134 -0.9714  2.0324 -1.3548
 8779TIP3   OH247751   6.617   3.965   0.827  0.0637 -0.1347  0.2386
 8779TIP3    H147752   6.564   3.987   0.904 -0.6741  1.9104 -0.7774
 8779TIP3    H247753   6.552   3.941   0.760  0.6330 -0.7323 -0.1131
 8780TIP3   OH247754   1.393   1.555  16.515  0.3002  0.3859 -0.3218
 8780TIP3    H147755   1.417   1.644  16.489  0.2581  1.1682  2.0539
 8780TIP3    H247756   1.425   1.547  16.605 -0.8604 -1.5436 -0.0171
 8781TIP3   OH247757   3.180   1.722   1.765  0.3143 -0.0321  0.0251
 8781TIP3    H147758   3.255   1.768   1.803  0.5174  0.1284 -0.5599
 8781TIP3    H247759   3.180   1.749   1.673  0.1126 -0.7904 -0.2004
 8782TIP3   OH247760   0.010   1.864   3.568  0.3708 -0.2024 -0.3924
 8782TIP3    H147761   0.005   1.925   3.495 -0.7645  0.3360  0.1049
 8782TIP3    H247762  -0.014   1.917   3.645  0.0876 -1.0932  0.1480
 8783TIP3   OH247763   1.790   3.031   5.569 -0.7373  0.4257  0.2387
 8783TIP3    H147764   1.784   2.972   5.644 -0.0435  0.7739  0.5857
 8783TIP3    H247765   1.712   3.013   5.518  0.5243 -2.4931 -0.9280
 8784TIP3   OH247766   1.797   6.069   3.921 -0.5075  0.2204  0.0503
 8784TIP3    H147767   1.817   6.110   3.837 -0.5060 -0.0437 -0.0787
 8784TIP3    H247768   1.820   6.136   3.986  2.0528 -0.4567 -0.0135
 8785TIP3   OH247769   0.768   4.073   5.864  0.2049 -0.5908  0.2126
 8785TIP3    H147770   0.779   4.094   5.772  0.8957 -2.1051 -0.0783
 8785TIP3    H247771   0.823   4.137   5.910  0.3781 -0.2525 -0.4627
 8786TIP3   OH247772   5.315   5.913   1.117 -0.4888 -0.1422 -0.4860
 8786TIP3    H147773   5.278   5.983   1.064 -1.3463 -0.3836 -0.2311
 8786TIP3    H247774   5.239   5.871   1.158  0.1591  0.2656  1.2176
 8787TIP3   OH247775   3.142   1.295   3.679  0.2389 -0.0765 -0.0937
 8787TIP3    H147776   3.193   1.281   3.600  0.4936 -1.1865  0.2539
 8787TIP3    H247777   3.110   1.208   3.703 -2.3423  0.6401 -0.6371
 8788TIP3   OH247778   4.273   4.486   5.673  0.3089 -0.3986 -0.0274
 8788TIP3    H147779   4.361   4.463   5.643 -0.5375 -1.4238 -1.9546
 8788TIP3    H247780   4.217   4.470   5.597 -1.3812  1.5376  0.7034
 8789TIP3   OH247781   5.783   2.453  13.584 -0.5331 -0.2719  0.2364
 8789TIP3    H147782   5.742   2.366  13.579 -1.1678  0.0241  0.1603
 8789TIP3    H247783   5.840   2.457  13.508 -1.8186  0.0211 -0.7571
 8790TIP3   OH247784   0.379   5.262   1.714  0.3750  0.2313  0.0671
 8790TIP3    H147785   0.420   5.187   1.671  0.8695  0.1461  0.6740
 8790TIP3    H247786   0.287   5.255   1.691  0.0999 -1.5288  1.4529
 8791TIP3   OH247787   3.675   4.661  12.033  0.4891 -0.0745  0.1081
 8791TIP3    H147788   3.749   4.679  11.975  0.8700 -0.4685  0.4718
 8791TIP3    H247789   3.604   4.635  11.974  0.8593 -0.4261 -0.1831
 8792TIP3   OH247790   2.501   6.334   5.824  0.7440 -0.0292 -0.4428
 8792TIP3    H147791   2.467   6.281   5.895  2.6035 -2.0501 -0.9419
 8792TIP3    H247792   2.538   6.411   5.867 -0.3735  0.0093  0.4914
 8793TIP3   OH247793   1.563   4.366  13.467  0.4820 -0.4313  0.1700
 8793TIP3    H147794   1.626   4.390  13.398  1.5921 -0.5294  1.1198
 8793TIP3    H247795   1.540   4.449  13.508 -1.2207 -0.2044 -1.1438
 8794TIP3   OH247796   0.437   0.386   4.391  0.2478  0.2285 -0.2345
 8794TIP3    H147797   0.499   0.314   4.396  1.5532  1.0728 -2.4936
 8794TIP3    H247798   0.367   0.353   4.333 -0.2425  0.0926  0.4174
 8795TIP3   OH247799   5.933   4.111  14.561  0.1629  0.0592 -0.1756
 8795TIP3    H147800   5.844   4.079  14.582  0.1744 -0.3342 -0.6976
 8795TIP3    H247801   5.919   4.180  14.496  0.3140 -1.1740 -1.5799
 8796TIP3   OH247802   4.656   2.062   0.154 -0.2752  0.5889  0.2955
 8796TIP3    H147803   4.705   1.982   0.173 -2.6178 -0.9769  0.0786
 8796TIP3    H247804   4.695   2.128   0.211  1.5411 -0.7489  0.6871
 8797TIP3   OH247805   1.467   3.238  14.717  0.2139 -0.3639  0.1124
 8797TIP3    H147806   1.406   3.229  14.790  1.0248  0.0996  0.8746
 8797TIP3    H247807   1.546   3.277  14.757 -0.0492  1.8369 -1.3430
 8798TIP3   OH247808   6.110   0.130  16.929  0.2786 -0.1209 -0.1205
 8798TIP3    H147809   6.052   0.067  16.971  0.2012  0.8065  1.2095
 8798TIP3    H247810   6.082   0.216  16.962  2.5719  0.3488  0.8336
 8799TIP3   OH247811   1.521   0.797   5.268  0.2813  0.3412 -0.8005
 8799TIP3    H147812   1.456   0.773   5.202  1.0730  0.8323 -1.7822
 8799TIP3    H247813   1.496   0.746   5.346 -0.3563 -0.6608 -1.6339
 8800TIP3   OH247814   4.461   4.223   4.830 -0.3071  0.7031  0.1818
 8800TIP3    H147815   4.485   4.207   4.922 -0.3861  0.7525  0.2108
 8800TIP3    H247816   4.527   4.284   4.798 -0.2702  0.6736  0.2016
 8801TIP3   OH247817   5.142   5.631   5.922  0.2880 -0.0554 -0.2160
 8801TIP3    H147818   5.189   5.587   5.851  0.5094 -1.4722  0.7724
 8801TIP3    H247819   5.070   5.572   5.943 -0.0839  0.6000  0.4035
 8802TIP3   OH247820   5.504   1.484  14.127  0.2545  0.2356 -0.1445
 8802TIP3    H147821   5.430   1.430  14.154  1.5464 -1.0492  1.0291
 8802TIP3    H247822   5.562   1.424  14.082  1.6276  0.6519  0.9888
 8803TIP3   OH247823   1.532   1.389   3.976  0.2438 -0.0918 -0.0267
 8803TIP3    H147824   1.486   1.338   4.044  0.4666 -0.4092 -0.1107
 8803TIP3    H247825   1.570   1.463   4.023  1.9495 -1.2650  0.5580
 8804TIP3   OH247826   5.106   1.716  13.856  0.1514  0.5805  0.0236
 8804TIP3    H147827   5.014   1.727  13.878 -0.1233  0.0334 -0.7918
 8804TIP3    H247828   5.130   1.632  13.895 -0.1492 -0.0582 -1.1332
 8805TIP3   OH247829   5.270   3.834   5.049  0.5798  0.1621 -0.3421
 8805TIP3    H147830   5.184   3.798   5.071 -0.4526  2.1180 -0.8553
 8805TIP3    H247831   5.331   3.792   5.110 -1.1713  0.6724  1.9197
 8806TIP3   OH247832   5.241   2.457   3.726  0.0141 -0.5637  0.4674
 8806TIP3    H147833   5.268   2.522   3.790 -1.6072 -2.0545  2.8213
 8806TIP3    H247834   5.146   2.452   3.736  0.0020 -2.6437 -0.2535
 8807TIP3   OH247835   5.687   3.144   2.298 -0.1925 -0.0479  0.8451
 8807TIP3    H147836   5.773   3.135   2.339  0.3820  0.2581 -0.2501
 8807TIP3    H247837   5.691   3.227   2.251 -0.3761 -0.9380 -0.8254
 8808TIP3   OH247838   4.723   4.107  15.316  0.3080 -0.2265  0.0164
 8808TIP3    H147839   4.667   4.131  15.242  0.5576 -1.1556 -0.4822
 8808TIP3    H247840   4.663   4.075  15.383  0.0362  1.0687  0.4192
 8809TIP3   OH247841   5.804   0.633  14.975  0.0590 -0.1102 -0.1623
 8809TIP3    H147842   5.749   0.644  14.897 -0.8696 -0.4475  0.4200
 8809TIP3    H247843   5.741   0.632  15.048  0.9308  0.4390  0.6107
 8810TIP3   OH247844   4.759   1.424   5.219 -0.3834  0.3339  0.6778
 8810TIP3    H147845   4.816   1.494   5.250 -0.4061  0.9146 -0.5392
 8810TIP3    H247846   4.693   1.468   5.166  0.4308 -0.7038 -1.3237
 8811TIP3   OH247847   6.150   5.925   1.920  0.7036 -0.0169  0.4570
 8811TIP3    H147848   6.205   5.954   1.848  1.0443  0.7080  1.0012
 8811TIP3    H247849   6.103   6.003   1.948  0.7791 -0.2272  1.1970
 8812TIP3   OH247850   5.203   6.551   0.092 -0.1564  0.0790  0.0404
 8812TIP3    H147851   5.169   6.483   0.034  0.9570 -0.4320 -0.0407
 8812TIP3    H247852   5.264   6.601   0.037  0.1851  0.1824  0.5071
 8813TIP3   OH247853   3.891   2.365   3.880  0.7985  0.0146 -0.4704
 8813TIP3    H147854   3.928   2.326   3.958  0.9738  2.2075  0.6222
 8813TIP3    H247855   3.813   2.313   3.861  0.2291 -0.0332  1.7298
 8814TIP3   OH247856   1.555   2.849   0.025  0.0912  0.2916  0.1683
 8814TIP3    H147857   1.643   2.813   0.013 -0.2417 -0.5712  0.2318
 8814TIP3    H247858   1.502   2.775   0.054 -0.8826  0.5515 -0.8304
 8815TIP3   OH247859   0.427   0.680  15.979 -0.4575  0.3427  0.4431
 8815TIP3    H147860   0.483   0.745  16.020  0.9288  0.3065 -1.2754
 8815TIP3    H247861   0.353   0.730  15.945 -1.3921  0.4280  2.4841
 8816TIP3   OH247862   6.491   0.698  14.311  0.2738 -0.3675  0.1736
 8816TIP3    H147863   6.541   0.741  14.381 -0.5841 -0.7128  1.0077
 8816TIP3    H247864   6.402   0.729  14.322  0.2773  0.2642 -1.3366
 8817TIP3   OH247865   4.827   6.451  14.992 -0.4275 -0.0751  0.1514
 8817TIP3    H147866   4.842   6.409  15.077  2.6704  0.3115 -0.0930
 8817TIP3    H247867   4.799   6.540  15.014  1.3692  0.3647  0.8866
 8818TIP3   OH247868   4.886   4.380  12.602  0.2652 -0.0352 -0.0190
 8818TIP3    H147869   4.821   4.450  12.590  0.0312 -0.3288 -0.4884
 8818TIP3    H247870   4.879   4.327  12.522  1.0906 -0.0637 -0.0759
 8819TIP3   OH247871   5.496   4.622   1.236 -0.4079  0.1603  0.5131
 8819TIP3    H147872   5.423   4.675   1.269  0.6010 -0.0338  3.3519
 8819TIP3    H247873   5.463   4.532   1.238 -0.3558  0.1484  1.0927
 8820TIP3   OH247874   5.739   1.901  11.687 -0.2062  0.2246  0.2241
 8820TIP3    H147875   5.777   1.815  11.670  1.4112  0.9254  0.1501
 8820TIP3    H247876   5.665   1.883  11.746  1.0454 -1.0778  1.4812
 8821TIP3   OH247877   3.645   2.173   0.250  0.2510 -0.0759 -0.1999
 8821TIP3    H147878   3.719   2.178   0.189  2.0191 -1.8900  1.6484
 8821TIP3    H247879   3.684   2.187   0.336 -2.1134  1.9788  0.6640
 8822TIP3   OH247880   6.053   0.030  16.413  1.0377 -0.8710 -0.1378
 8822TIP3    H147881   6.058   0.062  16.503  1.3646 -2.5634  0.4845
 8822TIP3    H247882   6.013   0.102  16.364  0.1059 -0.2107  1.5073
 8823TIP3   OH247883   1.014   0.286   6.401 -0.0342 -0.5499  0.0940
 8823TIP3    H147884   1.000   0.192   6.387  0.7213 -0.4511 -1.6424
 8823TIP3    H247885   1.095   0.290   6.453  1.0274 -0.8701 -1.4525
 8824TIP3   OH247886   5.072   6.474  15.248  0.3525  0.6329 -0.1235
 8824TIP3    H147887   5.153   6.430  15.274  0.7736  1.4623 -0.0284
 8824TIP3    H247888   5.091   6.509  15.161 -0.1649  0.1774 -0.4320
 8825TIP3   OH247889   1.113   5.119  15.507 -0.1582  0.2711 -0.0567
 8825TIP3    H147890   1.071   5.045  15.549  0.3652 -0.6208 -1.0480
 8825TIP3    H247891   1.190   5.137  15.561  0.7578 -1.1487 -0.8297
 8826TIP3   OH247892   1.972   0.021   6.221 -0.4883  0.4398 -0.6135
 8826TIP3    H147893   1.941  -0.064   6.255 -0.0535  0.2968 -0.5652
 8826TIP3    H247894   1.892   0.068   6.198 -0.7587  0.2249 -0.1339
 8827TIP3   OH247895   2.579   4.043   2.605 -0.3441 -0.2652  0.2448
 8827TIP3    H147896   2.504   4.072   2.656  0.2211 -0.7265  1.3627
 8827TIP3    H247897   2.650   4.033   2.669  0.0519 -2.0641 -0.4166
 8828TIP3   OH247898   2.699   2.953  14.651 -0.3482  0.0108  0.5484
 8828TIP3    H147899   2.667   3.039  14.623  0.6550  0.1564 -0.2038
 8828TIP3    H247900   2.653   2.936  14.733 -1.0246  0.9849  0.3911
 8829TIP3   OH247901   3.985   0.088  11.271  0.3128  0.5002 -0.5282
 8829TIP3    H147902   3.985   0.102  11.366  0.8519  0.6102 -0.5432
 8829TIP3    H247903   3.952  -0.002  11.261  1.1684  0.1306 -0.1729
 8830TIP3   OH247904   2.615   6.652   2.834  0.4599 -0.4354 -0.7951
 8830TIP3    H147905   2.652   6.734   2.803  2.0543 -0.8401 -0.0367
 8830TIP3    H247906   2.522   6.671   2.846  1.0580  1.7272  0.8733
 8831TIP3   OH247907   3.536   6.119  15.324 -0.4282  0.2514  0.6305
 8831TIP3    H147908   3.448   6.156  15.312 -1.1707 -1.4976  0.4091
 8831TIP3    H247909   3.522   6.041  15.378  1.1353  0.4946  1.4313
 8832TIP3   OH247910   5.989   2.941  16.595 -0.6146  0.1914 -0.2898
 8832TIP3    H147911   5.990   3.035  16.616  0.3385  0.4769 -1.4492
 8832TIP3    H247912   6.074   2.909  16.624 -1.2220 -0.4997  0.7789
 8833TIP3   OH247913   4.639   5.739   5.568  1.0866  0.2663  0.2336
 8833TIP3    H147914   4.636   5.688   5.486  3.8036 -1.5626  1.1372
 8833TIP3    H247915   4.555   5.721   5.609  0.4751 -0.4325 -1.2250
 8834TIP3   OH247916   6.468   2.751  12.369 -0.4894 -0.6026  0.2650
 8834TIP3    H147917   6.488   2.680  12.307  1.2807  0.3906 -0.3629
 8834TIP3    H247918   6.465   2.708  12.454 -2.5719 -1.9380 -0.3898
 8835TIP3   OH247919   0.075   6.010   2.921 -0.2067 -0.3761  0.4747
 8835TIP3    H147920   0.143   6.012   2.989  1.3759 -0.9808 -1.0172
 8835TIP3    H247921   0.057   5.917   2.908 -0.9802 -0.2388  0.5047
 8836TIP3   OH247922   5.202   2.227   5.407 -0.0622 -0.2606  0.3847
 8836TIP3    H147923   5.272   2.170   5.439  0.3871 -0.1636 -0.4063
 8836TIP3    H247924   5.122   2.192   5.447  0.0538 -2.0729 -0.8670
 8837TIP3   OH247925   3.017   4.838  16.426  0.7192 -0.0879 -0.2209
 8837TIP3    H147926   3.098   4.849  16.375  0.9194  0.9219  0.2995
 8837TIP3    H247927   3.046   4.795  16.507  0.8257  0.7051  0.1734
 8838TIP3   OH247928   6.279   5.982   1.691 -0.0879 -0.7924  0.0791
 8838TIP3    H147929   6.285   5.900   1.643  0.2208 -0.0689 -1.1839
 8838TIP3    H247930   6.336   6.042   1.643  0.1378  0.0135  1.3030
 8839TIP3   OH247931   3.709   1.789  17.051 -0.7912  0.1151  0.0028
 8839TIP3    H147932   3.726   1.844  17.128 -0.0892 -0.1896  0.0675
 8839TIP3    H247933   3.790   1.740  17.037  0.0010  1.8914 -2.3778
 8840TIP3   OH247934   6.015   4.293  13.690  0.1221  0.0122 -0.1554
 8840TIP3    H147935   6.065   4.331  13.617  1.9902 -0.2909  0.9215
 8840TIP3    H247936   5.924   4.316  13.670  0.7956  1.8588 -1.4423
 8841TIP3   OH247937   2.776   4.831  14.798 -0.3372  0.6054 -0.2381
 8841TIP3    H147938   2.835   4.758  14.778 -0.2779  0.0232  1.7939
 8841TIP3    H247939   2.695   4.809  14.753  0.3793  0.4502 -1.5109
 8842TIP3   OH247940   0.383   1.280  15.674  0.4499 -0.9196 -0.3779
 8842TIP3    H147941   0.478   1.267  15.664  0.8025  1.2716 -0.4060
 8842TIP3    H247942   0.354   1.308  15.587  0.3367  1.1901  0.2920
 8843TIP3   OH247943   3.085   2.212  16.289  0.1109  0.5163  0.5694
 8843TIP3    H147944   3.014   2.277  16.295  0.5273  1.0215  0.1423
 8843TIP3    H247945   3.046   2.131  16.322 -0.6915  0.7641  0.2629
 8844TIP3   OH247946   6.333   5.054   4.270  0.2977  0.1237  0.4924
 8844TIP3    H147947   6.325   4.959   4.265 -1.0340  0.2469 -0.1260
 8844TIP3    H247948   6.405   5.075   4.211 -1.8470 -0.2284 -2.4782
 8845TIP3   OH247949   6.413   4.155   5.291  0.3635  0.2792  0.4941
 8845TIP3    H147950   6.423   4.152   5.196  0.0390 -0.0095  0.4683
 8845TIP3    H247951   6.322   4.181   5.304  0.0454 -0.9148  0.7257
 8846TIP3   OH247952   3.351   1.236  12.888 -0.4589  0.1643  0.5465
 8846TIP3    H147953   3.285   1.296  12.922  0.4572  0.6864  1.4543
 8846TIP3    H247954   3.328   1.151  12.927 -1.0557  0.1787  0.2221
 8847TIP3   OH247955   0.160   5.594  11.766  0.7771  0.0458 -0.1658
 8847TIP3    H147956   0.177   5.583  11.859  1.3707  0.1906 -0.2567
 8847TIP3    H247957   0.241   5.568  11.723 -0.3343 -2.6660 -0.8226
 8848TIP3   OH247958   2.382   0.388  16.073 -0.1755 -0.4659  0.3427
 8848TIP3    H147959   2.376   0.295  16.053 -0.3307 -0.6367  1.1776
 8848TIP3    H247960   2.354   0.431  15.992 -0.6565 -1.1487  0.1387
 8849TIP3   OH247961   2.564   1.346   0.542  0.1019 -0.0161 -0.3990
 8849TIP3    H147962   2.584   1.259   0.508 -1.8628  0.2948 -2.6101
 8849TIP3    H247963   2.646   1.395   0.533  1.1512 -1.5193  0.6308
 8850TIP3   OH247964   4.687   4.572  10.418 -0.5221  0.3439 -0.0896
 8850TIP3    H147965   4.759   4.635  10.425 -0.7897  1.1922 -3.3545
 8850TIP3    H247966   4.725   4.489  10.449  1.1649  1.1999  0.2619
 8851TIP3   OH247967   6.215   5.927   1.204 -0.1679  0.0842 -0.5372
 8851TIP3    H147968   6.170   5.872   1.139  0.2764 -2.0921  0.9055
 8851TIP3    H247969   6.184   5.895   1.288  1.3615  0.9659  0.4062
 8852TIP3   OH247970   4.977   6.530   2.102 -0.3992 -0.0223 -0.8173
 8852TIP3    H147971   4.935   6.599   2.153 -0.9603 -0.3663 -0.8125
 8852TIP3    H247972   5.065   6.564   2.085 -1.0935  1.2915 -1.9945
 8853TIP3   OH247973   2.863   4.920  12.010  0.0921 -0.2260  0.4137
 8853TIP3    H147974   2.854   5.006  11.968  0.0235 -0.3866  0.1055
 8853TIP3    H247975   2.839   4.857  11.943 -1.2771 -0.4321  1.0710
 8854TIP3   OH247976   2.284   4.202   1.292  0.4065  0.2546 -0.6664
 8854TIP3    H147977   2.302   4.293   1.317  1.0330  0.7043 -2.5435
 8854TIP3    H247978   2.240   4.164   1.368 -1.2817  2.5559 -0.3894
 8855TIP3   OH247979   3.728   2.380   2.397 -0.1581 -0.2836  0.3892
 8855TIP3    H147980   3.754   2.470   2.377  1.8381 -1.0558 -0.7833
 8855TIP3    H247981   3.741   2.332   2.315 -3.2087 -1.3024  0.3661
 8856TIP3   OH247982   5.479   3.409   3.738 -0.2024 -0.4907 -0.8575
 8856TIP3    H147983   5.390   3.399   3.772  0.3467 -1.8475  0.3249
 8856TIP3    H247984   5.528   3.449   3.811  0.5069 -1.3217 -0.8566
 8857TIP3   OH247985   1.191   2.933   2.281 -0.0116 -0.2999 -0.0220
 8857TIP3    H147986   1.193   2.931   2.376  0.8486 -3.8381  0.0184
 8857TIP3    H247987   1.280   2.958   2.255 -0.2746  0.7694  0.0542
 8858TIP3   OH247988   3.007   2.095  16.001  0.2090 -0.5202 -0.1310
 8858TIP3    H147989   2.967   2.173  15.963 -0.8304 -0.4985  0.9262
 8858TIP3    H247990   2.946   2.069  16.070  0.6897 -2.0873 -0.2546
 8859TIP3   OH247991   5.551   4.784  13.829  0.6764 -0.2210  0.6155
 8859TIP3    H147992   5.485   4.810  13.765  0.7729 -0.9397  0.2118
 8859TIP3    H247993   5.624   4.845  13.815  0.2907  0.2763  0.7471
 8860TIP3   OH247994   6.685   4.000  11.247  0.6032 -0.0740  0.1675
 8860TIP3    H147995   6.724   3.954  11.173  0.6418  1.9638 -1.1462
 8860TIP3    H247996   6.598   4.026  11.215 -0.2230 -0.9492  1.5982
 8861TIP3   OH247997   6.335   0.924   1.392 -0.6593 -0.3773 -0.2773
 8861TIP3    H147998   6.373   1.006   1.361 -0.4394  0.0912  1.1573
 8861TIP3    H247999   6.344   0.863   1.318 -0.3645  0.7383 -1.1787
 8862TIP3   OH248000   1.959   0.640  16.679  0.2510 -0.0112 -0.6220
 8862TIP3    H148001   1.926   0.638  16.589  0.3815 -0.1158 -0.6676
 8862TIP3    H248002   2.013   0.562  16.687  1.9145  1.0425 -1.1083
 8863TIP3   OH248003   2.581   2.924   0.818 -0.4099 -0.2536  0.4938
 8863TIP3    H148004   2.597   2.922   0.913 -1.7778  2.6171  0.8860
 8863TIP3    H248005   2.548   2.836   0.798  1.2225 -1.3831  2.3675
 8864TIP3   OH248006   2.954   0.897  13.661 -0.0053 -0.4475 -0.8288
 8864TIP3    H148007   2.874   0.848  13.683  1.6544 -3.5502 -1.0227
 8864TIP3    H248008   2.925   0.965  13.601 -2.6945 -0.4623  0.2864
 8865TIP3   OH248009   4.585   4.686   5.575  0.1411  0.2344  0.3299
 8865TIP3    H148010   4.665   4.739   5.569 -0.7247  1.6437  0.8875
 8865TIP3    H248011   4.604   4.624   5.646  0.8884  0.2686  0.1755
 8866TIP3   OH248012   3.621   4.854   4.385 -0.1321 -0.5990 -0.7101
 8866TIP3    H148013   3.619   4.944   4.417 -0.5774 -0.6110 -0.6903
 8866TIP3    H248014   3.528   4.831   4.375 -0.0359 -1.3683  0.1541
 8867TIP3   OH248015   2.677   1.511   5.785 -0.4426  0.0446  0.4488
 8867TIP3    H148016   2.768   1.534   5.805 -0.6322 -0.1116  1.6100
 8867TIP3    H248017   2.650   1.574   5.718  0.5466  0.0265  0.0222
 8868TIP3   OH248018   5.510   5.453  12.576  0.3381 -0.6643  0.1637
 8868TIP3    H148019   5.514   5.492  12.663 -1.1372 -3.1087  1.4411
 8868TIP3    H248020   5.599   5.426  12.558  0.2181 -2.9011  2.3871
 8869TIP3   OH248021   0.404   0.166  13.874  0.5296 -0.1885 -0.3104
 8869TIP3    H148022   0.379   0.239  13.817 -1.6191  2.3189  3.4402
 8869TIP3    H248023   0.324   0.113  13.881  1.0036 -0.9022 -0.1894
 8870TIP3   OH248024   0.321   3.058   3.061  0.3120  0.1363  0.2053
 8870TIP3    H148025   0.382   3.051   3.135  1.0995  1.8439 -0.2259
 8870TIP3    H248026   0.268   3.135   3.080  0.4495  0.5424 -0.9451
 8871TIP3   OH248027   2.090   0.595  15.109 -0.4667 -0.0507  0.3835
 8871TIP3    H148028   2.181   0.564  15.108 -0.4013  0.0496 -1.9391
 8871TIP3    H248029   2.061   0.586  15.018 -2.5568  0.6239  0.9369
 8872TIP3   OH248030   1.370   2.556   4.375  0.2531  0.1760  0.0265
 8872TIP3    H148031   1.341   2.618   4.308 -0.1970  1.1089  1.0483
 8872TIP3    H248032   1.322   2.476   4.356 -0.2226  0.5745 -0.4799
 8873TIP3   OH248033   4.860   0.806   6.011  0.6721 -0.4666 -0.2453
 8873TIP3    H148034   4.907   0.753   5.947  1.0831 -0.7273  0.2654
 8873TIP3    H248035   4.929   0.845   6.065  0.3104 -0.9875  0.6136
 8874TIP3   OH248036   5.893   1.387   5.964 -0.1238  0.1906  0.2721
 8874TIP3    H148037   5.906   1.382   6.059 -1.9224 -0.3164  0.5138
 8874TIP3    H248038   5.804   1.419   5.953  0.0218  0.1518 -1.2612
 8875TIP3   OH248039   0.018   4.620  15.643 -0.4678 -0.5863  0.3405
 8875TIP3    H148040   0.027   4.661  15.557 -0.9283 -0.6125  0.2773
 8875TIP3    H248041  -0.076   4.613  15.657 -0.4054 -1.5479  0.3772
 8876TIP3   OH248042   3.270   2.870   2.178 -0.1010  0.1413 -0.9257
 8876TIP3    H148043   3.237   2.782   2.157 -2.0795  0.9924 -1.6848
 8876TIP3    H248044   3.292   2.908   2.093  3.0833 -0.3821 -0.4476
 8877TIP3   OH248045   1.001   3.931  14.942  0.0305  0.2724  0.2574
 8877TIP3    H148046   1.039   3.993  14.880  0.8841 -0.0628  0.4278
 8877TIP3    H248047   0.969   3.859  14.888 -0.1300  0.4367  0.1318
 8878TIP3   OH248048   2.668   2.368   3.840  0.4474  0.8868  0.1233
 8878TIP3    H148049   2.755   2.331   3.829 -0.1747 -0.7220  0.2861
 8878TIP3    H248050   2.609   2.293   3.833 -1.0568  2.1277 -1.5622
 8879TIP3   OH248051   5.715   1.816  12.957  0.1303 -0.0112  0.2501
 8879TIP3    H148052   5.701   1.854  12.871 -0.5132  0.3221  0.4968
 8879TIP3    H248053   5.732   1.723  12.940  1.6758  0.3456 -0.3555
 8880TIP3   OH248054   3.634   4.500   0.328 -0.6032 -0.3101 -0.1146
 8880TIP3    H148055   3.587   4.581   0.349 -0.8255 -0.2970 -0.6593
 8880TIP3    H248056   3.727   4.525   0.333 -0.6675 -0.0782 -0.0582
 8881TIP3   OH248057   6.438   1.916   0.445 -0.4904 -0.3056 -0.6669
 8881TIP3    H148058   6.424   1.828   0.411  1.5621 -1.4394  1.1884
 8881TIP3    H248059   6.467   1.967   0.369 -1.7437 -1.1833 -1.7742
 8882TIP3   OH248060   6.287   0.622  15.994 -0.3295  0.2322 -0.9860
 8882TIP3    H148061   6.247   0.626  15.907 -2.5906 -1.3175 -0.0974
 8882TIP3    H248062   6.280   0.530  16.019  1.6139  0.3789  0.2800
 8883TIP3   OH248063   1.837   4.286   4.323  0.2843 -0.3563 -0.0441
 8883TIP3    H148064   1.767   4.225   4.347 -0.0007  0.9529  2.8363
 8883TIP3    H248065   1.917   4.245   4.355  0.2662  0.0677  0.5727
 8884TIP3   OH248066   1.271   1.686  15.250 -0.1455  0.2229 -0.5073
 8884TIP3    H148067   1.276   1.675  15.155  0.8979  2.5382 -0.7921
 8884TIP3    H248068   1.296   1.601  15.286  1.5623 -0.0956 -2.3178
 8885TIP3   OH248069   6.082   2.772   0.476  0.6012 -0.5363 -0.8448
 8885TIP3    H148070   6.092   2.867   0.480 -0.0662 -0.4643 -0.8795
 8885TIP3    H248071   6.010   2.758   0.415  1.8042 -1.1350 -2.1783
 8886TIP3   OH248072   4.291   1.149   2.915  0.7267 -0.0795 -0.3967
 8886TIP3    H148073   4.320   1.205   2.843  0.6638 -0.0156 -0.3730
 8886TIP3    H248074   4.277   1.064   2.875 -0.5569  0.2597 -0.7409
 8887TIP3   OH248075   2.299   4.259   1.007  0.6429  0.3715  0.5224
 8887TIP3    H148076   2.280   4.223   1.094 -0.1940 -0.3442  0.0620
 8887TIP3    H248077   2.379   4.213   0.979  0.8220  0.4861  0.8404
 8888TIP3   OH248078   2.893   2.404   2.777 -0.0557  0.1804  0.8848
 8888TIP3    H148079   2.855   2.466   2.714 -0.5280  0.1675  1.1524
 8888TIP3    H248080   2.983   2.434   2.788  0.1975 -0.1260 -0.1982
 8889TIP3   OH248081   4.033   6.346  12.067 -0.4930 -0.0850 -0.2472
 8889TIP3    H148082   3.961   6.407  12.052 -1.5621 -1.5244 -1.1035
 8889TIP3    H248083   4.112   6.395  12.043 -1.2751  1.1145 -0.4200
 8890TIP3   OH248084   5.679   1.850   2.025 -0.1666 -0.0974  0.5447
 8890TIP3    H148085   5.706   1.942   2.018 -1.0412  0.1109 -0.3321
 8890TIP3    H248086   5.693   1.815   1.937 -1.3136 -0.3794  0.4673
 8891TIP3   OH248087   3.097   3.247  15.922 -0.2942  0.3694 -0.0652
 8891TIP3    H148088   3.191   3.245  15.908 -0.2130  2.0698  0.0752
 8891TIP3    H248089   3.081   3.180  15.989  0.8814  0.4592  0.3266
 8892TIP3   OH248090   6.093   3.030  13.907  0.2868 -0.4093 -0.2067
 8892TIP3    H148091   6.129   2.984  13.983 -1.5973 -2.2165 -0.3172
 8892TIP3    H248092   6.022   3.083  13.943  0.2647 -0.2306 -0.5138
 8893TIP3   OH248093   4.881   2.383   0.574 -0.4801 -0.1624 -0.5903
 8893TIP3    H148094   4.948   2.349   0.632 -0.4592  0.3687 -0.2905
 8893TIP3    H248095   4.798   2.360   0.616 -0.4602  0.8154  0.0207
 8894TIP3   OH248096   1.968   6.160  16.962  0.4639 -0.0882 -0.1148
 8894TIP3    H148097   1.947   6.104  16.887  0.3546  1.9577 -1.7016
 8894TIP3    H248098   2.006   6.239  16.923  0.1658  1.1596  1.9775
 8895TIP3   OH248099   5.604   5.423   0.182  0.0236 -0.4883  0.0584
 8895TIP3    H148100   5.527   5.449   0.131 -0.4680  0.1207  1.0903
 8895TIP3    H248101   5.587   5.454   0.271  1.0576 -1.1497  0.5188
 8896TIP3   OH248102   6.819   1.508   6.018  0.6682 -0.5516  0.4569
 8896TIP3    H148103   6.824   1.441   6.086  0.7284 -1.4713 -0.4360
 8896TIP3    H248104   6.788   1.462   5.940  3.4199 -0.2095 -0.9833
 8897TIP3   OH248105   3.679   5.692  16.981 -0.6237 -0.0889  0.7799
 8897TIP3    H148106   3.705   5.769  16.930 -1.4247 -1.5059 -1.9791
 8897TIP3    H248107   3.756   5.636  16.982 -0.5081  0.0778  1.4438
 8898TIP3   OH248108   2.580   2.773  11.237 -0.3810 -0.0956 -0.1659
 8898TIP3    H148109   2.568   2.696  11.181  3.2052 -1.8713  1.1573
 8898TIP3    H248110   2.573   2.738  11.326 -2.3446  1.9347  0.5689
 8899TIP3   OH248111   0.020   5.534   1.174  0.5178  0.5795 -0.1039
 8899TIP3    H148112   0.099   5.539   1.120 -0.0631 -0.3862 -1.1086
 8899TIP3    H248113   0.050   5.497   1.257  1.0468 -0.3604 -0.6869
 8900TIP3   OH248114   0.018   6.358   3.623 -0.5029 -0.0167 -0.1115
 8900TIP3    H148115  -0.048   6.413   3.582 -1.0396  1.4788  2.4935
 8900TIP3    H248116   0.091   6.418   3.640  0.3514 -0.9660 -0.3092
 8901TIP3   OH248117   2.794   5.232   1.122  0.2711 -0.9594 -0.3205
 8901TIP3    H148118   2.873   5.213   1.173 -0.1590  0.1028  0.7801
 8901TIP3    H248119   2.815   5.314   1.076 -0.1715 -0.6814 -0.0363
 8902TIP3   OH248120   2.319   0.748   3.483  0.5653  0.8929  0.1058
 8902TIP3    H148121   2.300   0.658   3.458  0.8834  1.1382 -1.0585
 8902TIP3    H248122   2.358   0.741   3.570 -0.6856  0.0353  0.6250
 8903TIP3   OH248123   3.537   2.245   5.216 -0.1237 -0.1508 -0.0321
 8903TIP3    H148124   3.466   2.217   5.274 -0.7106 -1.8850 -1.5150
 8903TIP3    H248125   3.532   2.341   5.218  0.2398 -0.1024  3.1561
 8904TIP3   OH248126   6.541   4.494   5.671 -0.0083  0.3177 -0.8654
 8904TIP3    H148127   6.458   4.480   5.716 -1.0596  0.8186 -2.5327
 8904TIP3    H248128   6.603   4.434   5.713 -1.0906  0.2718  0.7153
 8905TIP3   OH248129   3.209   2.088  13.239 -0.5871  0.3412 -0.2006
 8905TIP3    H148130   3.213   2.130  13.325 -1.2351  1.4380 -0.6906
 8905TIP3    H248131   3.301   2.071  13.217 -0.5099 -2.3185  1.7993
 8906TIP3   OH248132   3.406   3.969   1.155 -0.0515  0.2292 -0.2021
 8906TIP3    H148133   3.387   3.964   1.062 -0.5632  0.3289 -0.1049
 8906TIP3    H248134   3.415   4.063   1.173 -0.3322  0.2318 -0.0757
 8907TIP3   OH248135   0.568   3.967  16.141  0.3476  0.1220  0.8402
 8907TIP3    H148136   0.576   3.942  16.233  0.4961  0.1301  0.8291
 8907TIP3    H248137   0.539   4.058  16.143  0.5666  0.1914  0.8792
 8908TIP3   OH248138   0.359   5.179  13.630 -0.0763 -0.1043  1.0240
 8908TIP3    H148139   0.332   5.265  13.599  0.0996  0.6703  2.8991
 8908TIP3    H248140   0.374   5.128  13.550 -0.0964  1.6117 -0.1220
 8909TIP3   OH248141   1.787   0.722  12.718  0.1179 -0.0015  0.0052
 8909TIP3    H148142   1.798   0.738  12.624  0.9951  1.5858  0.3455
 8909TIP3    H248143   1.735   0.796  12.749  0.8078  0.0984  0.9577
 8910TIP3   OH248144   5.984   1.794   1.733 -0.3494 -0.2316 -0.3062
 8910TIP3    H148145   6.000   1.721   1.673 -0.2533 -0.9884  0.6158
 8910TIP3    H248146   6.065   1.844   1.733 -0.2126 -0.4562 -0.4937
 8911TIP3   OH248147   2.111   2.582   1.336  0.0326 -0.4351 -0.0169
 8911TIP3    H148148   2.135   2.564   1.245 -0.2512 -2.6123  0.2798
 8911TIP3    H248149   2.047   2.514   1.358 -1.1320  1.0279  1.3406
 8912TIP3   OH248150   4.566   3.228  12.743 -0.2834 -0.6077 -0.0772
 8912TIP3    H148151   4.596   3.195  12.828 -2.1660 -0.3317  0.7474
 8912TIP3    H248152   4.556   3.149  12.689 -1.3281 -1.0564  0.7322
 8913TIP3   OH248153   3.194   5.720   3.703  0.4587  0.3320  0.0639
 8913TIP3    H148154   3.256   5.736   3.775 -0.6643  1.0393  0.9046
 8913TIP3    H248155   3.170   5.807   3.671 -0.7765  0.1216  0.3611
 8914TIP3   OH248156   5.013   5.205  16.933 -0.3178 -0.3895 -0.0341
 8914TIP3    H148157   4.950   5.180  16.865 -1.0075  3.6974 -1.1641
 8914TIP3    H248158   4.977   5.169  17.014 -2.2488 -1.0449 -1.1247
 8915TIP3   OH248159   5.996   2.243  15.821 -0.0922  0.4057  0.6841
 8915TIP3    H148160   6.067   2.307  15.817 -1.0092  1.4287  0.3954
 8915TIP3    H248161   5.940   2.274  15.892 -1.1226  0.5452 -0.1678
 8916TIP3   OH248162   3.613   6.701  12.475 -0.0435  0.3183 -0.2711
 8916TIP3    H148163   3.579   6.694  12.564 -1.8829  1.2301 -0.8669
 8916TIP3    H248164   3.684   6.765  12.482  0.7712 -0.6379  0.7521
 8917TIP3   OH248165   1.930   1.739  16.912 -0.2723 -0.2966 -0.2632
 8917TIP3    H148166   1.946   1.833  16.923  1.2765 -0.4860 -0.6718
 8917TIP3    H248167   1.991   1.712  16.843  0.4774 -1.9189  0.9772
 8918TIP3   OH248168   1.503   6.329   4.697  0.2456 -0.1727  0.0881
 8918TIP3    H148169   1.512   6.330   4.601 -1.6344  1.0222 -0.1433
 8918TIP3    H248170   1.408   6.328   4.712  0.5005 -0.1172  1.9431
 8919TIP3   OH248171   1.855   1.253  16.022 -0.3356  0.1214 -0.1396
 8919TIP3    H148172   1.887   1.189  16.084 -0.5328 -1.6801 -1.7884
 8919TIP3    H248173   1.913   1.328  16.031  0.3873 -0.5893  1.3055
 8920TIP3   OH248174   5.244   4.610   1.474  0.4522  0.1851  0.3145
 8920TIP3    H148175   5.280   4.620   1.562 -0.1446 -0.0409  0.5911
 8920TIP3    H248176   5.283   4.681   1.424  0.1027  0.8680  0.9884
 8921TIP3   OH248177   0.471   0.110   3.412  0.1061  0.1581 -0.4197
 8921TIP3    H148178   0.449   0.067   3.330  1.6734 -1.6869  0.0565
 8921TIP3    H248179   0.564   0.131   3.403  0.2278  0.1691  0.7815
 8922TIP3   OH248180   0.897   1.067   3.679  0.0702  0.3455 -0.2835
 8922TIP3    H148181   0.960   1.050   3.609 -1.1456 -0.4977 -1.1938
 8922TIP3    H248182   0.821   1.013   3.658  0.4824 -1.7546  2.8832
 8923TIP3   OH248183   6.250   0.976   1.642 -0.7217  0.4066 -0.2487
 8923TIP3    H148184   6.294   0.968   1.557 -1.8708  0.5781 -0.8810
 8923TIP3    H248185   6.164   0.937   1.628  0.3136 -2.9920  1.8954
 8924TIP3   OH248186   1.477   5.886  16.339  0.4175 -0.4780  0.8011
 8924TIP3    H148187   1.431   5.802  16.349 -0.5437  0.0009  0.5255
 8924TIP3    H248188   1.501   5.910  16.429 -0.1274 -0.6043  0.9876
 8925TIP3   OH248189   0.213   4.537  12.254 -0.2766 -0.2935  0.0389
 8925TIP3    H148190   0.241   4.539  12.162  0.3473  2.2293  0.1941
 8925TIP3    H248191   0.293   4.521  12.303 -0.0373  1.3828  0.2411
 8926TIP3   OH248192   2.154   2.115  14.834  0.6261  0.4078  0.2327
 8926TIP3    H148193   2.199   2.174  14.895 -0.2801  0.7830  0.5607
 8926TIP3    H248194   2.074   2.161  14.811 -0.4323 -0.9663  1.0163
 8927TIP3   OH248195   6.669   0.663  12.241  0.2370  0.5279  0.1750
 8927TIP3    H148196   6.759   0.648  12.270 -0.2866 -1.5222  0.8971
 8927TIP3    H248197   6.667   0.630  12.151  0.7390  2.7707 -0.7328
 8928TIP3   OH248198   4.813   4.507   0.908 -0.7447 -0.4884  0.1909
 8928TIP3    H148199   4.785   4.595   0.882  0.3725  0.1898  1.2036
 8928TIP3    H248200   4.774   4.495   0.994 -1.0863 -1.0950 -0.0435
 8929TIP3   OH248201   4.541   6.409   5.162  0.2420 -0.1253 -0.0092
 8929TIP3    H148202   4.505   6.349   5.097  1.2309 -1.7349  0.8483
 8929TIP3    H248203   4.467   6.461   5.191 -0.9886 -1.9108  0.2073
 8930TIP3   OH248204   5.297   2.959   5.659 -0.3621  0.0938 -0.3228
 8930TIP3    H148205   5.226   2.925   5.713  0.6715 -1.4362  0.1298
 8930TIP3    H248206   5.363   2.891   5.660  1.4164  1.7344 -0.2171
 8931TIP3   OH248207   3.559   6.003  16.927  0.4489 -0.6689  0.1966
 8931TIP3    H148208   3.524   6.050  16.851  1.0186  1.9358  1.4192
 8931TIP3    H248209   3.495   6.018  16.996  0.9839 -1.1262  0.8062
 8932TIP3   OH248210   3.479   4.526  14.022 -0.4142 -0.0239  0.7944
 8932TIP3    H148211   3.477   4.464  14.095 -0.1628 -0.8073  0.1480
 8932TIP3    H248212   3.393   4.570  14.026 -1.9069 -2.5873 -0.5473
 8933TIP3   OH248213   3.073   0.705   3.934  0.3005  0.5343 -0.4255
 8933TIP3    H148214   3.132   0.707   3.859  0.1857  1.4672 -0.5068
 8933TIP3    H248215   3.109   0.637   3.991 -0.1454 -0.8313 -1.7288
 8934TIP3   OH248216   6.314   0.809  14.525 -0.3073  0.0385 -0.2762
 8934TIP3    H148217   6.220   0.796  14.541 -0.6652 -1.3179 -2.9476
 8934TIP3    H248218   6.329   0.901  14.548 -2.8156  0.9578 -1.8262
 8935TIP3   OH248219   2.681   2.831  11.655 -0.2425  0.1736  0.4674
 8935TIP3    H148220   2.632   2.755  11.622 -0.5835  0.3959  0.4587
 8935TIP3    H248221   2.770   2.817  11.624 -0.7617  0.9516 -1.5847
 8936TIP3   OH248222   5.799   0.763  13.484 -0.3502  0.3964 -0.1940
 8936TIP3    H148223   5.888   0.748  13.515 -0.8746  0.3440  1.3358
 8936TIP3    H248224   5.767   0.677  13.459 -0.5657  0.1290  0.9462
 8937TIP3   OH248225   3.018   3.612  14.172  0.3129 -0.0218  0.2036
 8937TIP3    H148226   3.098   3.583  14.127  0.0541 -0.8906  0.2753
 8937TIP3    H248227   2.974   3.530  14.196 -1.4593  0.4148 -1.3441
 8938TIP3   OH248228   3.621   3.765  12.226  0.0625  0.1400 -0.6004
 8938TIP3    H148229   3.698   3.796  12.274 -0.6627 -0.4567  1.0110
 8938TIP3    H248230   3.548   3.777  12.287 -0.9839 -0.2086 -1.7354
 8939TIP3   OH248231   1.097   2.597   2.401 -0.3850  0.5630  0.3670
 8939TIP3    H148232   1.029   2.632   2.343 -0.6615  0.8311  0.8452
 8939TIP3    H248233   1.126   2.672   2.452  0.9731  0.6632 -0.5035
 8940TIP3   OH248234   0.191   4.946  13.233 -0.2242  0.4076  0.4407
 8940TIP3    H148235   0.272   4.962  13.185  0.8572 -0.8985  1.7265
 8940TIP3    H248236   0.220   4.915  13.319 -2.0924  1.8431  1.6477
 8941TIP3   OH248237   0.836   4.687  13.530 -0.1969 -0.0597 -0.0272
 8941TIP3    H148238   0.841   4.774  13.569 -1.7227  0.4517 -0.8870
 8941TIP3    H248239   0.853   4.627  13.602 -0.7084  0.9235  0.9380
 8942TIP3   OH248240   1.377   4.573   5.763  0.1260 -1.0961  0.1883
 8942TIP3    H148241   1.390   4.486   5.799  1.3508 -0.7513  0.6191
 8942TIP3    H248242   1.442   4.628   5.807 -0.7294  0.0756  0.0552
 8943TIP3   OH248243   2.799   0.379   5.455  0.2449  0.3093  0.5252
 8943TIP3    H148244   2.706   0.373   5.478  0.0413  1.4500  0.0572
 8943TIP3    H248245   2.806   0.338   5.369  0.3693 -0.6806  0.9888
 8944TIP3   OH248246   1.890   3.694   1.519  0.4114  0.0444  0.3403
 8944TIP3    H148247   1.807   3.727   1.484  0.2542 -1.9232 -1.3912
 8944TIP3    H248248   1.956   3.726   1.457  0.5196 -1.0000 -0.0996
 8945TIP3   OH248249   3.550   5.927   5.061 -0.2471 -0.1334 -0.0172
 8945TIP3    H148250   3.618   5.863   5.082 -0.2774 -0.8545 -1.9639
 8945TIP3    H248251   3.513   5.952   5.146 -0.3434 -2.8072  0.7958
 8946TIP3   OH248252   1.112   5.296  12.916  0.2728 -1.1403 -0.0686
 8946TIP3    H148253   1.134   5.287  12.823  0.3904 -0.0192 -0.1630
 8946TIP3    H248254   1.058   5.374  12.920  0.1547 -1.2608  0.7956
 8947TIP3   OH248255   5.944   6.722  15.178 -0.4018  0.2830 -0.4003
 8947TIP3    H148256   6.038   6.736  15.189 -0.3967  1.5623 -1.6819
 8947TIP3    H248257   5.917   6.671  15.254  1.0267  1.2889  0.8203
 8948TIP3   OH248258   0.568   3.189  14.381  0.0170 -0.5383 -0.1979
 8948TIP3    H148259   0.577   3.197  14.476  2.8524  0.0344 -0.4090
 8948TIP3    H248260   0.646   3.140  14.354 -0.4639 -0.2464 -2.2879
 8949TIP3   OH248261   1.209   4.132  13.518  0.2550 -0.2351  0.4798
 8949TIP3    H148262   1.297   4.094  13.520  0.7807  0.9738  1.5776
 8949TIP3    H248263   1.223   4.226  13.518 -1.0531 -0.0129 -0.4352
 8950TIP3   OH248264   4.943   0.697   1.832  0.0286  0.1118 -0.6692
 8950TIP3    H148265   4.964   0.683   1.740 -1.9009 -1.6822 -0.9069
 8950TIP3    H248266   4.881   0.770   1.832  0.4253  0.4516 -0.7275
 8951TIP3   OH248267   6.366   3.127   3.632 -0.5658  0.6447  0.7461
 8951TIP3    H148268   6.386   3.136   3.726  0.1806  1.8912  0.5037
 8951TIP3    H248269   6.417   3.052   3.604  3.1178  3.0036  0.4173
 8952TIP3   OH248270   4.301   0.439   3.086  0.9971  0.1407 -0.2129
 8952TIP3    H148271   4.255   0.427   3.002  0.0276  1.9291 -0.0010
 8952TIP3    H248272   4.392   0.418   3.067  0.4612 -1.4491 -1.1950
 8953TIP3   OH248273   2.052   5.800   3.461 -0.2240  0.2453  0.2101
 8953TIP3    H148274   2.019   5.855   3.532  2.7486  2.1856  0.2709
 8953TIP3    H248275   2.038   5.852   3.382 -0.0099 -0.1900 -0.1179
 8954TIP3   OH248276   1.081   1.437   4.449  0.3153 -0.1748 -0.4013
 8954TIP3    H148277   1.148   1.384   4.405 -0.1068  2.6108 -5.1472
 8954TIP3    H248278   1.130   1.507   4.492  0.5998 -0.9498  0.5624
 8955TIP3   OH248279   0.760   3.300   3.402  0.0883  0.0808  0.6810
 8955TIP3    H148280   0.846   3.296   3.444 -0.0519  2.2597  1.2602
 8955TIP3    H248281   0.712   3.367   3.450 -1.6346 -0.4501 -0.2149
 8956TIP3   OH248282   6.134   2.838   3.779  0.7037 -0.2650  0.0668
 8956TIP3    H148283   6.135   2.766   3.716 -1.0124  0.7304 -1.1752
 8956TIP3    H248284   6.109   2.915   3.728 -0.8879  0.5676  1.9279
 8957TIP3   OH248285   4.441   1.067  16.700  0.1872 -0.1854  0.4534
 8957TIP3    H148286   4.379   1.139  16.713 -1.4355 -1.5247  0.5053
 8957TIP3    H248287   4.521   1.109  16.670 -0.6862  1.6421  0.5516
 8958TIP3   OH248288   0.880   0.586  13.392 -0.6076  0.1179 -0.1380
 8958TIP3    H148289   0.946   0.655  13.385 -1.4077  1.1143  1.4882
 8958TIP3    H248290   0.908   0.520  13.329  1.4531  0.8884 -0.1175
 8959TIP3   OH248291   6.376   3.972   1.916  0.1599  0.2455  0.6464
 8959TIP3    H148292   6.458   3.922   1.924  1.3335  1.7053 -1.3208
 8959TIP3    H248293   6.354   3.967   1.823 -0.4495  2.1996  0.6450
 8960TIP3   OH248294   1.409   3.578  16.444  0.4261 -0.3063  0.6702
 8960TIP3    H148295   1.390   3.628  16.365  0.2267 -0.6067  0.5250
 8960TIP3    H248296   1.326   3.574  16.491  1.1847  2.7007  2.5739
 8961TIP3   OH248297   1.141   5.888  11.242 -0.2265  0.2595 -0.0892
 8961TIP3    H148298   1.101   5.912  11.326 -1.6044 -1.5080 -0.1903
 8961TIP3    H248299   1.206   5.822  11.265  0.3618  0.7581 -0.2898
 8962TIP3   OH248300   1.433   1.006  17.102 -0.4281 -0.0641  0.0153
 8962TIP3    H148301   1.342   0.983  17.115 -0.2391 -0.3076  0.9648
 8962TIP3    H248302   1.439   1.032  17.010 -1.0660 -1.8632 -0.5661
 8963TIP3   OH248303   2.084   3.725  13.679  0.2857  0.0506 -0.1876
 8963TIP3    H148304   2.013   3.766  13.629  0.5956 -0.4190 -1.0375
 8963TIP3    H248305   2.043   3.700  13.762 -0.5799 -0.3080 -0.7045
 8964TIP3   OH248306   3.880   6.571  16.357  0.3011 -0.0096  0.2226
 8964TIP3    H148307   3.920   6.488  16.384 -1.9176 -1.8145 -1.6486
 8964TIP3    H248308   3.834   6.551  16.276 -3.6419  2.0427  1.6963
 8965TIP3   OH248309   2.393   1.208  16.671  0.0554 -0.4909  0.2033
 8965TIP3    H148310   2.456   1.184  16.739 -0.9839 -0.0779  1.3528
 8965TIP3    H248311   2.336   1.132  16.662 -1.1231  0.2253  1.3662
 8966TIP3   OH248312   3.069   0.856  15.897 -0.1396 -0.1450  0.5064
 8966TIP3    H148313   3.130   0.834  15.968  2.1201  1.7736 -0.6798
 8966TIP3    H248314   3.029   0.938  15.925  1.0181  0.8046 -0.4892
 8967TIP3   OH248315   2.917   5.937  13.520 -0.0761  0.0329 -0.0246
 8967TIP3    H148316   2.892   5.889  13.441 -0.3413 -1.4276  0.9091
 8967TIP3    H248317   2.888   6.027  13.504 -0.2437 -0.2615 -1.5206
 8968TIP3   OH248318   4.399   4.772   5.258  0.1505 -0.0137 -0.7953
 8968TIP3    H148319   4.375   4.779   5.165 -2.5611  1.2681 -0.0998
 8968TIP3    H248320   4.319   4.742   5.301  0.7617  1.2214  1.3480
 8969TIP3   OH248321   0.378   4.673   0.600 -0.1020 -0.2840  0.0687
 8969TIP3    H148322   0.295   4.721   0.598  0.4808  0.7112 -1.1853
 8969TIP3    H248323   0.420   4.694   0.517 -0.0389 -3.3747 -0.8285
 8970TIP3   OH248324   0.998   4.368   2.630  0.2577 -0.0447 -0.4114
 8970TIP3    H148325   0.965   4.309   2.562  0.0787 -0.1837 -0.2007
 8970TIP3    H248326   1.048   4.434   2.581  1.1304 -0.8146 -0.5859
 8971TIP3   OH248327   2.143   1.596   6.403  0.4423 -0.0364  0.3399
 8971TIP3    H148328   2.202   1.521   6.413 -1.2680 -1.5253 -0.1294
 8971TIP3    H248329   2.183   1.666   6.454  1.7009 -1.5229  1.4693
 8972TIP3   OH248330   6.794   3.001   0.036  0.2886  0.0012 -0.4762
 8972TIP3    H148331   6.812   2.934  -0.030  2.0507 -1.0820  1.0377
 8972TIP3    H248332   6.877   3.047   0.047 -0.4091  1.2291 -0.1321
 8973TIP3   OH248333   0.428   0.674  15.582 -0.4580  0.2202  0.0707
 8973TIP3    H148334   0.444   0.671  15.677 -0.4120 -0.4050  0.0457
 8973TIP3    H248335   0.352   0.731  15.573 -0.6821  0.0044  0.5193
 8974TIP3   OH248336   2.304   3.129  10.830 -0.7157  0.2544 -0.5514
 8974TIP3    H148337   2.224   3.171  10.862 -0.2106  1.5813 -1.0072
 8974TIP3    H248338   2.300   3.138  10.735 -0.0777  0.2268 -0.5859
 8975TIP3   OH248339   5.625   2.270  13.111 -0.0007 -0.0476 -0.1025
 8975TIP3    H148340   5.704   2.286  13.163  0.8487  0.4854 -1.4926
 8975TIP3    H248341   5.602   2.179  13.130  0.1517  0.1881  1.3413
 8976TIP3   OH248342   2.800   3.416  17.008  0.4141  0.0042 -0.2283
 8976TIP3    H148343   2.874   3.364  16.979 -0.4271 -0.5521 -1.4673
 8976TIP3    H248344   2.809   3.420  17.104  0.2636 -2.8503 -0.0187
 8977TIP3   OH248345   2.534   3.117   2.049 -0.2941 -0.2962 -0.1856
 8977TIP3    H148346   2.595   3.175   2.003  0.8046  0.0642  1.5966
 8977TIP3    H248347   2.582   3.035   2.058 -1.8643 -1.6049 -2.7368
 8978TIP3   OH248348   6.302   4.777   1.162  0.0853  0.4719 -0.0862
 8978TIP3    H148349   6.217   4.776   1.118 -0.8069  0.2320  1.5732
 8978TIP3    H248350   6.296   4.850   1.224  1.1739  0.5766 -0.0854
 8979TIP3   OH248351   3.801   5.786  14.611 -0.2791  0.3509  0.3895
 8979TIP3    H148352   3.817   5.692  14.622 -0.1663  0.6042  3.0718
 8979TIP3    H248353   3.718   5.801  14.656  0.7320  1.8193  1.8730
 8980TIP3   OH248354   3.400   0.510   5.149  0.1853  0.0664 -0.2925
 8980TIP3    H148355   3.445   0.552   5.222 -0.8310  1.3770 -0.3767
 8980TIP3    H248356   3.383   0.421   5.179  0.6720  0.2789  0.6619
 8981TIP3   OH248357   3.991   4.723   6.219 -0.2580  0.3744  0.0415
 8981TIP3    H148358   4.066   4.713   6.278 -0.2798 -1.2684 -0.1528
 8981TIP3    H248359   3.916   4.733   6.277 -0.4052 -2.1165  0.4070
 8982TIP3   OH248360   2.444   4.629   3.954  0.1854 -0.1953  0.3605
 8982TIP3    H148361   2.425   4.544   3.916 -3.2758  0.7551 -0.3678
 8982TIP3    H248362   2.463   4.685   3.879 -0.4954  0.2935  0.5398
 8983TIP3   OH248363   0.451   5.005  12.791  0.4106  0.0520  0.0957
 8983TIP3    H148364   0.383   4.971  12.733  0.4192  1.6486 -0.8992
 8983TIP3    H248365   0.530   4.957  12.766  0.3922  0.6455 -1.1729
 8984TIP3   OH248366   5.139   1.619   0.822  0.1386 -0.0266 -0.4521
 8984TIP3    H148367   5.117   1.536   0.781 -0.6936 -0.0136 -0.0720
 8984TIP3    H248368   5.128   1.603   0.916  0.6988  0.3061 -0.3269
 8985TIP3   OH248369   1.924   2.100   5.229  0.5057  0.1663 -0.4715
 8985TIP3    H148370   1.987   2.035   5.260 -1.2885 -1.2571  0.4413
 8985TIP3    H248371   1.930   2.172   5.292  0.9186 -0.1534 -0.1409
 8986TIP3   OH248372   5.704   5.357  12.334 -0.2716 -0.4003 -0.3254
 8986TIP3    H148373   5.693   5.452  12.339 -1.0455 -0.4727 -0.4575
 8986TIP3    H248374   5.791   5.345  12.295 -0.2360  0.2525 -0.4687
 8987TIP3   OH248375   3.721   6.027   1.761 -0.2980 -0.1501 -0.3528
 8987TIP3    H148376   3.724   5.946   1.811 -0.5833  0.1459  0.1620
 8987TIP3    H248377   3.800   6.075   1.788 -0.3763 -0.0521 -0.2974
 8988TIP3   OH248378   6.479   5.538   3.601  0.5035  0.5609 -0.8510
 8988TIP3    H148379   6.388   5.510   3.590  0.8139 -0.8764 -0.0077
 8988TIP3    H248380   6.517   5.530   3.513 -0.0393  0.6061 -1.0936
 8989TIP3   OH248381   3.044   5.646  13.775 -0.2671  0.5248  0.4862
 8989TIP3    H148382   3.118   5.697  13.742 -0.1537  1.0336  1.4779
 8989TIP3    H248383   2.975   5.710  13.789 -0.1942  0.3894  1.5439
 8990TIP3   OH248384   0.478   5.862  16.578  0.1182 -0.7784  0.0119
 8990TIP3    H148385   0.496   5.768  16.586 -2.4429 -1.3651 -0.0706
 8990TIP3    H248386   0.406   5.877  16.640 -0.0035  0.9870 -0.5122
 8991TIP3   OH248387   3.424   0.013  13.358 -0.8181 -0.8120  0.1182
 8991TIP3    H148388   3.360  -0.057  13.367  0.5948 -2.0364  1.0856
 8991TIP3    H248389   3.506  -0.025  13.389  0.3287  0.7924 -0.7825
 8992TIP3   OH248390   4.092   6.688  14.464  0.7499 -0.0570 -0.4586
 8992TIP3    H148391   4.153   6.643  14.406 -0.7464 -0.1630 -2.0233
 8992TIP3    H248392   4.042   6.618  14.505 -0.2003  0.0991 -1.3329
 8993TIP3   OH248393   2.070   1.291   4.869  0.4348  0.1218  0.5915
 8993TIP3    H148394   2.079   1.276   4.775  2.4824  2.2678  0.3407
 8993TIP3    H248395   1.979   1.272   4.888 -0.9115  2.5704 -2.4869
 8994TIP3   OH248396   6.662   0.542   0.385 -0.0894 -0.2804  0.6719
 8994TIP3    H148397   6.591   0.597   0.354 -0.4791 -0.5207  1.1168
 8994TIP3    H248398   6.654   0.543   0.480  1.2676  0.6911  0.8011
 8995TIP3   OH248399   4.954   4.064   1.123 -0.1509 -0.0796 -0.6485
 8995TIP3    H148400   4.971   4.008   1.047  1.8785 -1.8098  0.9459
 8995TIP3    H248401   4.868   4.036   1.155 -0.7626  0.2710 -1.9508
 8996TIP3   OH248402   6.153   4.274  16.945 -0.3531 -0.6058  0.1361
 8996TIP3    H148403   6.138   4.307  16.856 -0.4654 -2.5172 -0.5957
 8996TIP3    H248404   6.248   4.271  16.953 -0.3326 -1.2230 -0.2535
 8997TIP3   OH248405   0.346   4.468   4.945 -0.2343  0.1715  0.4813
 8997TIP3    H148406   0.350   4.523   5.023 -0.8032  1.5080 -0.3815
 8997TIP3    H248407   0.359   4.379   4.977 -2.5066  0.4234  2.3723
 8998TIP3   OH248408   6.717   1.968  16.773  0.2354  0.3143  0.4803
 8998TIP3    H148409   6.783   1.999  16.711 -1.3188  1.5415 -0.6481
 8998TIP3    H248410   6.762   1.965  16.857  1.9014  0.4158 -0.3737
 8999TIP3   OH248411   1.174   1.462  12.618  0.1102  0.0285  0.7289
 8999TIP3    H148412   1.230   1.405  12.564  0.3170  0.3996  0.5498
 8999TIP3    H248413   1.102   1.486  12.561 -1.1285 -1.7600  1.4443
 9000TIP3   OH248414   1.455   1.780   2.361  0.3471 -0.5239 -0.4321
 9000TIP3    H148415   1.508   1.737   2.428  2.2628  1.4142 -0.6018
 9000TIP3    H248416   1.439   1.868   2.396 -0.0639 -0.0410 -1.7719
 9001TIP3   OH248417   3.605   6.254  12.115 -0.4969 -0.0771 -0.2661
 9001TIP3    H148418   3.661   6.234  12.190 -0.3956 -1.7538 -0.7462
 9001TIP3    H248419   3.618   6.348  12.100  1.7058 -0.2738  0.0239
 9002TIP3   OH248420   4.720   1.284  11.218 -0.1741  0.3286  0.4706
 9002TIP3    H148421   4.633   1.247  11.199 -1.5045  3.0387  0.8670
 9002TIP3    H248422   4.703   1.374  11.244  2.6698  0.5151  2.1043
 9003TIP3   OH248423   4.782   2.403  11.814  0.4703 -0.5095  0.0184
 9003TIP3    H148424   4.870   2.430  11.841 -0.0934 -0.2883  1.7260
 9003TIP3    H248425   4.794   2.367  11.726  2.4771 -1.5572  0.6581
 9004TIP3   OH248426   6.102   0.074   0.227 -0.0756  0.4920  0.8775
 9004TIP3    H148427   6.098   0.020   0.306 -1.8223  0.6173  0.9223
 9004TIP3    H248428   6.021   0.125   0.230  0.0392  0.8062 -0.7876
 9005TIP3   OH248429   3.852   0.401  13.573 -0.2480  0.0053 -0.2566
 9005TIP3    H148430   3.895   0.357  13.646  0.2610 -2.4931 -1.9198
 9005TIP3    H248431   3.922   0.452  13.532  0.0627 -0.4563 -0.3175
 9006TIP3   OH248432   1.391   5.994   5.645  0.2854 -0.2701 -0.2499
 9006TIP3    H148433   1.357   6.079   5.670  1.9051  0.0254  1.1341
 9006TIP3    H248434   1.385   5.993   5.549 -1.2938  0.6968 -0.1898
 9007TIP3   OH248435   1.216   6.279  15.184  0.5306  0.3397  0.0135
 9007TIP3    H148436   1.152   6.297  15.253  0.6164 -0.6943  0.3852
 9007TIP3    H248437   1.287   6.233  15.229 -0.6206 -2.8647 -1.1490
 9008TIP3   OH248438   5.605   5.534   1.448 -0.6497 -0.1508  0.2471
 9008TIP3    H148439   5.668   5.465   1.469 -0.5235 -0.2037 -0.2889
 9008TIP3    H248440   5.626   5.606   1.508  0.3349  0.0779 -0.3594
 9009TIP3   OH248441   4.643   1.171  12.786  0.5840  0.4243 -0.0880
 9009TIP3    H148442   4.635   1.083  12.752 -0.9385 -1.0225  3.4951
 9009TIP3    H248443   4.592   1.226  12.726 -2.6575 -2.0376  0.1534
 9010TIP3   OH248444   3.078   5.509  13.227  0.0790  0.2814 -0.3892
 9010TIP3    H148445   3.100   5.448  13.157  0.3574 -1.2610  0.9737
 9010TIP3    H248446   3.019   5.459  13.284 -0.8311  1.7843  0.0454
 9011TIP3   OH248447   4.571   6.300  14.264  0.2952 -0.0354  0.2538
 9011TIP3    H148448   4.528   6.334  14.342 -0.2230  0.2979 -0.1678
 9011TIP3    H248449   4.637   6.365  14.242 -0.4408  0.5247 -0.3339
 9012TIP3   OH248450   4.737   3.884   0.790  0.4408 -0.4163  0.1462
 9012TIP3    H148451   4.779   3.869   0.705  0.4260  2.1442 -0.3965
 9012TIP3    H248452   4.809   3.885   0.853  0.5065 -1.8468  0.1095
 9013TIP3   OH248453   3.728   0.848  14.087 -0.1472  0.0350  0.4013
 9013TIP3    H148454   3.822   0.837  14.079  0.0404 -0.1562  2.3526
 9013TIP3    H248455   3.717   0.906  14.163 -1.5849  0.8088 -0.3473
 9014TIP3   OH248456   0.211   0.080   3.880 -0.8251 -0.4569  0.1941
 9014TIP3    H148457   0.119   0.077   3.905 -0.6938  0.8101  0.8839
 9014TIP3    H248458   0.248  -0.000   3.917 -1.7951 -1.4326 -0.8341
 9015TIP3   OH248459   1.468   1.603  14.801  0.3613 -0.5394  0.5043
 9015TIP3    H148460   1.518   1.531  14.839  0.8364 -0.2694  0.4087
 9015TIP3    H248461   1.533   1.652  14.750 -0.5044 -1.7792 -1.9928
 9016TIP3   OH248462   2.391   6.564   4.419 -0.2829  0.1324 -0.2670
 9016TIP3    H148463   2.449   6.506   4.467  1.4488  1.0201 -1.1604
 9016TIP3    H248464   2.403   6.539   4.327  1.6194  2.6651 -0.8502
 9017TIP3   OH248465   5.625   3.569  10.591  0.1874  0.0164  0.1860
 9017TIP3    H148466   5.602   3.484  10.630  0.3534 -0.1229 -0.0147
 9017TIP3    H248467   5.568   3.632  10.635  0.3478 -0.1423  0.6307
 9018TIP3   OH248468   5.654   0.699  12.282  0.2581  0.0667 -0.1148
 9018TIP3    H148469   5.576   0.670  12.328  0.3131 -0.1015 -0.1258
 9018TIP3    H248470   5.695   0.618  12.250 -1.2282  0.2771 -2.8309
 9019TIP3   OH248471   3.036   2.878  15.174  0.2999  0.1434  0.6776
 9019TIP3    H148472   3.107   2.843  15.227  1.6210  0.2606 -0.9532
 9019TIP3    H248473   3.004   2.954  15.225  2.1057  0.7866  0.9222
 9020TIP3   OH248474   5.851   1.956  11.296  0.8400  0.5350 -0.2018
 9020TIP3    H148475   5.921   2.021  11.295 -1.7892  3.5766 -0.0420
 9020TIP3    H248476   5.817   1.956  11.206  1.0176 -0.9765 -0.2998
 9021TIP3   OH248477   5.992   6.425   0.200 -0.0251  0.1245  0.2466
 9021TIP3    H148478   5.952   6.345   0.234 -0.4642  0.0847 -0.3621
 9021TIP3    H248479   5.997   6.483   0.276 -1.4836  0.2284  0.2747
 9022TIP3   OH248480   4.047   5.827   6.336 -0.0137 -0.3495 -0.0597
 9022TIP3    H148481   4.003   5.757   6.385 -0.7763  0.0578 -0.1483
 9022TIP3    H248482   4.135   5.830   6.373  0.0516 -1.4016 -0.1014
 9023TIP3   OH248483   1.704   4.618   0.436 -0.0100  0.0517  0.0855
 9023TIP3    H148484   1.785   4.588   0.476 -0.0057  1.1568  0.9654
 9023TIP3    H248485   1.728   4.639   0.346  0.6043  0.0566  0.2458
 9024TIP3   OH248486   3.484   3.145  13.693  0.1813  0.0745 -0.3277
 9024TIP3    H148487   3.573   3.131  13.726 -0.1778 -0.2988  0.5240
 9024TIP3    H248488   3.461   3.232  13.725 -0.4687 -0.6103  1.1762
 9025TIP3   OH248489   5.910   0.169   6.360 -0.5269 -0.1359  0.0889
 9025TIP3    H148490   5.823   0.176   6.399 -0.5337 -2.6452  0.7370
 9025TIP3    H248491   5.959   0.113   6.420  0.9249 -0.3618 -1.2207
 9026TIP3   OH248492   5.382   5.197  11.598 -0.0578  0.2923  0.0756
 9026TIP3    H148493   5.338   5.119  11.630  0.5377 -1.3058 -2.6612
 9026TIP3    H248494   5.321   5.268  11.616 -1.7085 -1.1596  0.4715
 9027TIP3   OH248495   2.548   3.903  12.342  0.0081  0.3312 -0.1462
 9027TIP3    H148496   2.591   3.818  12.339 -1.5811 -0.6605  2.1087
 9027TIP3    H248497   2.460   3.887  12.310  0.6044  1.9659 -3.0296
 9028TIP3   OH248498   3.273   5.297   0.604 -0.0629  0.0434 -0.2383
 9028TIP3    H148499   3.226   5.371   0.566  1.4210  0.9923 -0.3097
 9028TIP3    H248500   3.291   5.239   0.530 -0.7371 -0.1175 -0.2789
 9029TIP3   OH248501   5.877   2.896   2.510  0.0667  0.0851 -0.2383
 9029TIP3    H148502   5.790   2.856   2.506  1.0508 -2.1473 -1.3695
 9029TIP3    H248503   5.937   2.822   2.516  1.9438  1.5332 -0.2340
 9030TIP3   OH248504   2.395   0.204  12.613  0.1170  0.3382  0.1353
 9030TIP3    H148505   2.337   0.279  12.623 -0.8388 -0.2455 -0.8340
 9030TIP3    H248506   2.425   0.185  12.702 -2.6046 -0.4519  0.9828
 9031TIP3   OH248507   6.095   4.898  11.292 -0.5834 -0.1226  0.1560
 9031TIP3    H148508   6.045   4.957  11.235 -2.0203 -0.0017  1.4700
 9031TIP3    H248509   6.184   4.900  11.257 -1.4440 -0.2467 -2.2222
 9032TIP3   OH248510   4.888   3.752   5.837 -0.0059  0.4912  0.4691
 9032TIP3    H148511   4.853   3.671   5.873  0.0311 -0.0185 -0.6158
 9032TIP3    H248512   4.931   3.726   5.755 -0.8515  1.7343 -0.4095
 9033TIP3   OH248513   6.500   2.970   3.090  0.2267  0.4042  0.0121
 9033TIP3    H148514   6.502   2.875   3.084 -0.9578  0.4234 -1.0282
 9033TIP3    H248515   6.549   3.000   3.014  0.6241  0.6427  0.3552
 9034TIP3   OH248516   1.807   0.017  14.098 -0.4920  0.3028 -0.1696
 9034TIP3    H148517   1.901   0.029  14.090 -0.4800 -0.3519 -1.2643
 9034TIP3    H248518   1.795  -0.078  14.102 -1.0079  0.4093  1.6517
 9035TIP3   OH248519   0.334   0.547  17.081  0.5472  0.1480 -0.1249
 9035TIP3    H148520   0.374   0.608  17.019 -1.3323 -0.8723 -2.4718
 9035TIP3    H248521   0.408   0.511  17.130  1.8196  3.4442  0.6480
 9036TIP3   OH248522   4.312   3.268   4.103 -0.4379 -0.1674  0.3702
 9036TIP3    H148523   4.353   3.241   4.185 -1.1819 -1.6314  0.3009
 9036TIP3    H248524   4.324   3.193   4.045 -0.9982  0.3727 -0.4641
 9037TIP3   OH248525   1.925   1.276  12.132  0.3079  0.3276  0.8156
 9037TIP3    H148526   1.950   1.358  12.174  3.7238  0.1651 -0.6172
 9037TIP3    H248527   1.879   1.304  12.053 -2.2286  0.6708  2.2845
 9038TIP3   OH248528   3.833   4.937  15.197 -0.1305 -0.0057 -0.2599
 9038TIP3    H148529   3.888   4.983  15.133 -0.7101 -0.4038 -1.0608
 9038TIP3    H248530   3.748   4.928  15.153 -0.9165  0.7790  1.0276
 9039TIP3   OH248531   6.024   1.516  13.720  0.5231  0.4665  0.1840
 9039TIP3    H148532   5.996   1.486  13.807 -0.4270 -2.7574 -1.1189
 9039TIP3    H248533   5.942   1.540  13.676  0.4971 -1.6713 -1.0572
 9040TIP3   OH248534   0.400   5.925   4.849  0.2797 -0.1101 -0.2116
 9040TIP3    H148535   0.471   5.968   4.801 -0.0107 -0.8527 -1.3583
 9040TIP3    H248536   0.353   5.997   4.891  0.3372  0.6294 -1.3544
 9041TIP3   OH248537   2.661   2.530   5.555 -0.5106 -0.0184 -0.2770
 9041TIP3    H148538   2.598   2.588   5.598 -1.6534  0.4515 -2.4424
 9041TIP3    H248539   2.720   2.590   5.509  0.8126 -0.4989  0.7391
 9042TIP3   OH248540   4.862   6.607  10.525 -0.0520 -0.2332  0.2689
 9042TIP3    H148541   4.938   6.598  10.468 -0.8604  0.9045 -1.0476
 9042TIP3    H248542   4.898   6.630  10.610  1.0995 -0.3017 -0.1813
 9043TIP3   OH248543   5.806   3.020   5.771 -0.5052 -0.0346 -0.3770
 9043TIP3    H148544   5.777   3.056   5.854  1.9457  0.7993  0.1951
 9043TIP3    H248545   5.872   2.954   5.794  0.1771  0.1720 -1.6345
 9044TIP3   OH248546   1.318   5.318   1.042  0.1247 -0.2081  0.9960
 9044TIP3    H148547   1.272   5.397   1.014 -1.2700 -0.3817  2.6348
 9044TIP3    H248548   1.400   5.320   0.993 -1.7967 -0.2049 -2.5803
 9045TIP3   OH248549   5.869   1.200   5.380 -0.3777  0.1987  0.5435
 9045TIP3    H148550   5.777   1.174   5.386 -0.0504 -0.9336  0.6965
 9045TIP3    H248551   5.883   1.253   5.458 -1.2468  1.5346 -0.1563
 9046TIP3   OH248552   0.006   3.151   3.034  0.1782  0.6789  0.4523
 9046TIP3    H148553  -0.002   3.183   3.125  0.6519  1.4986  0.2165
 9046TIP3    H248554   0.093   3.180   3.006  1.1764 -1.9269  0.6215
 9047TIP3   OH248555   2.177   4.260   3.095  0.1039  0.1167  0.1363
 9047TIP3    H148556   2.094   4.265   3.143  0.8515  1.3681  1.3372
 9047TIP3    H248557   2.226   4.191   3.139  0.0291 -0.0726 -0.0727
 9048TIP3   OH248558   3.680   1.697  14.393  0.3905  0.0905 -0.0814
 9048TIP3    H148559   3.700   1.789  14.376  0.1029 -0.0895 -1.5696
 9048TIP3    H248560   3.658   1.661  14.306  0.2759 -1.3208  0.5064
 9049TIP3   OH248561   1.901   5.279  14.607 -0.3076 -0.1087 -0.3037
 9049TIP3    H148562   1.952   5.314  14.680 -1.4752  1.5783 -0.2283
 9049TIP3    H248563   1.911   5.344  14.537 -0.5223 -0.8951 -1.0903
 9050TIP3   OH248564   2.519   5.309   0.668 -0.1021 -0.0344 -0.2087
 9050TIP3    H148565   2.433   5.312   0.710  0.0621 -0.8530  0.2113
 9050TIP3    H248566   2.572   5.372   0.717 -0.1747 -0.2980  0.2161
 9051TIP3   OH248567   2.950   4.829   1.269 -0.4082 -0.2394 -0.6323
 9051TIP3    H148568   2.925   4.869   1.353 -0.5760  0.5455 -1.0548
 9051TIP3    H248569   3.038   4.794   1.285 -0.6797 -0.6420  0.0513
 9052TIP3   OH248570   2.098   3.880   2.205  0.4195  0.3364 -0.2993
 9052TIP3    H148571   2.034   3.933   2.253  0.4929 -0.1584  0.3575
 9052TIP3    H248572   2.081   3.899   2.113 -1.1106 -0.2760 -0.1726
 9053TIP3   OH248573   0.815   6.324  14.830  0.3879  0.5028  0.1493
 9053TIP3    H148574   0.750   6.375  14.878  1.5579  2.7777 -0.5865
 9053TIP3    H248575   0.772   6.239  14.816 -1.4534  1.0764  1.7850
 9054TIP3   OH248576   2.917   2.355  16.771  0.5267  0.1778 -0.1308
 9054TIP3    H148577   2.989   2.416  16.792  1.6232 -1.6229  1.7627
 9054TIP3    H248578   2.874   2.340  16.855 -1.5250  0.4791 -1.0814
 9055TIP3   OH248579   1.661   5.921  11.217  0.2899  0.0969 -0.0010
 9055TIP3    H148580   1.592   5.878  11.166 -0.3200  0.4604  0.4997
 9055TIP3    H248581   1.741   5.875  11.193 -0.1537 -0.4480 -0.4614
 9056TIP3   OH248582   2.043   6.717   1.406 -0.1339 -0.1795  1.2216
 9056TIP3    H148583   2.087   6.749   1.484 -0.6328  1.8702  0.7284
 9056TIP3    H248584   2.083   6.765   1.334 -1.6214  0.1096  0.5376
 9057TIP3   OH248585   6.138   0.309   4.012 -0.5772  0.3691 -0.0367
 9057TIP3    H148586   6.233   0.313   4.018 -0.3373  0.3839 -2.5979
 9057TIP3    H248587   6.112   0.246   4.078  1.1844  0.5573  0.8847
 9058TIP3   OH248588   3.612   2.826   3.475  0.2165 -0.7057 -0.0290
 9058TIP3    H148589   3.553   2.779   3.415  0.9521 -0.7390 -0.7467
 9058TIP3    H248590   3.556   2.891   3.518 -0.7515 -2.0258  0.7661
 9059TIP3   OH248591   2.517   6.332   3.916 -0.8209 -0.5042  0.4571
 9059TIP3    H148592   2.592   6.343   3.858  0.0917 -1.4145  1.4200
 9059TIP3    H248593   2.441   6.346   3.860  0.0373 -0.7500 -0.8187
 9060TIP3   OH248594   4.869   2.374   5.003  0.6089  0.4593  0.9681
 9060TIP3    H148595   4.780   2.342   5.014  0.3916  1.0183  0.8607
 9060TIP3    H248596   4.922   2.295   4.989 -0.0158  0.2066  0.0091
 9061TIP3   OH248597   6.187   2.654  12.460 -0.4930  0.1657 -0.1093
 9061TIP3    H148598   6.125   2.621  12.395 -0.0032 -1.0774  0.0127
 9061TIP3    H248599   6.273   2.638  12.420 -0.2016  2.7491 -0.7113
 9062TIP3   OH248600   2.961   4.286  16.637 -0.7456  0.5385  0.0539
 9062TIP3    H148601   3.007   4.349  16.693  0.8249 -1.4199  1.0869
 9062TIP3    H248602   3.003   4.295  16.551 -0.7013  1.0511  0.1268
 9063TIP3   OH248603   5.829   3.966  16.286 -0.1526  0.1807 -0.3772
 9063TIP3    H148604   5.815   3.990  16.195  0.4342 -0.2277 -0.5863
 9063TIP3    H248605   5.922   3.942  16.290 -0.2016  0.0849  0.3008
 9064TIP3   OH248606   0.993   4.576   2.088  0.3692  0.5853  0.0682
 9064TIP3    H148607   1.052   4.518   2.039 -0.4267  0.0411 -0.2577
 9064TIP3    H248608   0.930   4.607   2.023 -0.6832 -0.1167  0.7304
 9065TIP3   OH248609   1.598   6.469  11.665 -0.1907  0.0090 -0.4161
 9065TIP3    H148610   1.581   6.535  11.732  0.2160 -0.8942  0.5840
 9065TIP3    H248611   1.552   6.391  11.694  0.2615 -0.4983 -1.0195
 9066TIP3   OH248612   5.839   0.136  14.923  0.3757  0.3461  0.7366
 9066TIP3    H148613   5.748   0.123  14.951  0.0731  1.1572  0.1602
 9066TIP3    H248614   5.849   0.080  14.847  1.0481 -1.4716  2.1024
 9067TIP3   OH248615   3.642   6.083   1.498  0.4755 -0.0242  0.4153
 9067TIP3    H148616   3.684   6.085   1.584  0.4382 -1.6643  0.4994
 9067TIP3    H248617   3.633   5.990   1.478  1.2630  0.3147 -1.7658
 9068TIP3   OH248618   5.256   1.378  13.669  0.1063 -0.4686 -0.3778
 9068TIP3    H148619   5.191   1.330  13.616 -0.8827 -1.9461  2.0072
 9068TIP3    H248620   5.335   1.325  13.663 -0.4654 -1.5009  0.8181
 9069TIP3   OH248621   3.852   4.584   1.639  0.4770 -0.2224  0.0675
 9069TIP3    H148622   3.896   4.640   1.575 -2.4151  1.2006 -0.8698
 9069TIP3    H248623   3.890   4.609   1.724  1.8298  0.4671 -0.7165
 9070TIP3   OH248624   2.445   3.077   6.067  0.3532  0.0045 -0.3089
 9070TIP3    H148625   2.449   3.076   5.971  0.6701 -0.8591 -0.2893
 9070TIP3    H248626   2.421   3.167   6.088 -1.1654 -0.1418 -1.2546
 9071TIP3   OH248627   5.467   3.050  12.267 -0.2254 -0.3058 -0.5828
 9071TIP3    H148628   5.429   3.039  12.354 -1.3919  2.2819 -0.6598
 9071TIP3    H248629   5.516   3.133  12.273 -0.3613 -0.0547 -2.3888
 9072TIP3   OH248630   4.290   0.591  11.879 -0.6498  0.0560 -0.2652
 9072TIP3    H148631   4.348   0.639  11.938 -0.0852 -1.6973  0.6579
 9072TIP3    H248632   4.315   0.622  11.792 -2.0553  3.3000  0.3409
 9073TIP3   OH248633   5.718   0.570  16.982  0.2612 -0.2304 -0.0999
 9073TIP3    H148634   5.714   0.563  16.886 -0.0479 -3.0234  0.0329
 9073TIP3    H248635   5.811   0.576  17.002  0.3523 -0.0942 -0.5479
 9074TIP3   OH248636   0.446   5.452  11.910 -0.0172  0.7200  0.5127
 9074TIP3    H148637   0.441   5.540  11.948 -0.2615  1.1107 -0.4089
 9074TIP3    H248638   0.442   5.466  11.816 -2.0089 -0.3938  0.3738
 9075TIP3   OH248639   6.783   1.961  12.797 -0.3338  0.1387  0.1384
 9075TIP3    H148640   6.869   1.927  12.771 -0.3049  0.1707  0.1921
 9075TIP3    H248641   6.728   1.883  12.806  0.4213 -0.1696  2.8953
 9076TIP3   OH248642   3.597   1.768  10.983  0.0629  0.1277 -0.2818
 9076TIP3    H148643   3.589   1.757  10.888 -0.8023 -2.5629  0.0289
 9076TIP3    H248644   3.687   1.741  11.002 -0.7760 -2.7952 -0.0253
 9077TIP3   OH248645   6.699   3.911   4.158  0.2953  0.1237 -0.0760
 9077TIP3    H148646   6.748   3.993   4.164 -0.9081  0.7350  4.1815
 9077TIP3    H248647   6.765   3.842   4.162  1.0884  0.9331  1.0655
 9078TIP3   OH248648   1.482   2.616  15.850  0.0378  0.4639 -0.3718
 9078TIP3    H148649   1.405   2.578  15.893  0.1053  0.9458  0.1868
 9078TIP3    H248650   1.453   2.702  15.820  0.1443  0.3416 -0.8299
 9079TIP3   OH248651   0.526   6.275   6.510 -0.3962 -0.0523  0.1938
 9079TIP3    H148652   0.449   6.233   6.471 -0.1941  0.1183 -0.3996
 9079TIP3    H248653   0.600   6.234   6.465 -0.1588  0.1780  0.3745
 9080TIP3   OH248654   0.529   0.831  14.155  0.6762 -0.2369  0.1573
 9080TIP3    H148655   0.584   0.754  14.164  1.7007  0.3986 -0.5150
 9080TIP3    H248656   0.516   0.862  14.245  1.9387 -0.0428  0.2832
 9081TIP3   OH248657   2.575   2.037  10.740 -0.2856  0.1029 -0.0851
 9081TIP3    H148658   2.563   2.049  10.834  0.0316  0.5456 -0.0949
 9081TIP3    H248659   2.661   1.996  10.732  0.1399  0.9946 -0.2245
 9082TIP3   OH248660   2.987   3.650  11.447  0.2259  0.3000  0.0110
 9082TIP3    H148661   2.924   3.722  11.437  0.1464  0.4019  1.1628
 9082TIP3    H248662   2.959   3.584  11.383  0.5245  1.4306 -1.3303
 9083TIP3   OH248663   6.446   0.295   5.037  0.2834 -0.3834  0.1093
 9083TIP3    H148664   6.394   0.251   5.103  0.4640  0.8155  1.1015
 9083TIP3    H248665   6.383   0.327   4.972  0.2432 -3.0061 -1.2609
 9084TIP3   OH248666   5.929   6.063   4.072  0.6558 -0.2510 -0.3335
 9084TIP3    H148667   6.014   6.019   4.083  1.2229  0.4340 -1.6618
 9084TIP3    H248668   5.864   5.994   4.080  1.3317 -0.7672  0.8398
 9085TIP3   OH248669   5.129   5.163  13.784  0.2705  0.0233 -0.0463
 9085TIP3    H148670   5.154   5.168  13.876  1.6653  1.3605 -0.4713
 9085TIP3    H248671   5.211   5.157  13.737 -0.4504 -2.8063 -1.1696
 9086TIP3   OH248672   2.628   4.399   1.218  0.2570 -0.2096  0.3742
 9086TIP3    H148673   2.615   4.319   1.270  2.9932  0.8284  2.9826
 9086TIP3    H248674   2.580   4.467   1.265 -0.1247  0.1312 -0.4910
 9087TIP3   OH248675   6.173   0.641  16.438 -0.5195  0.1341 -0.0312
 9087TIP3    H148676   6.087   0.635  16.396 -0.8725  2.0091  0.3205
 9087TIP3    H248677   6.164   0.592  16.520 -2.0456  2.1719  1.1158
 9088TIP3   OH248678   2.317   1.400   2.244 -0.9032 -0.2930  0.3317
 9088TIP3    H148679   2.380   1.351   2.191 -1.8585 -0.5258 -0.6201
 9088TIP3    H248680   2.246   1.338   2.262  0.5089 -1.0917  4.1852
 9089TIP3   OH248681   0.172   5.302  15.849  0.4264 -0.2545 -0.4679
 9089TIP3    H148682   0.166   5.307  15.754  0.2322  0.4392 -0.4210
 9089TIP3    H248683   0.241   5.237  15.865  1.7267  0.9035 -1.1057
 9090TIP3   OH248684   2.972   6.003  11.466  0.3798 -1.2340 -0.6339
 9090TIP3    H148685   3.059   6.042  11.453  0.3276 -0.5457  0.9102
 9090TIP3    H248686   2.912   6.078  11.464 -0.0537 -1.5786 -0.5429
 9091TIP3   OH248687   3.621   5.057   4.555 -0.3220 -0.0938 -0.2805
 9091TIP3    H148688   3.641   5.151   4.551 -1.0498  0.1302  0.9097
 9091TIP3    H248689   3.703   5.016   4.582 -0.2128  0.3033  0.0062
 9092TIP3   OH248690   0.226   6.314  14.379  0.1124 -0.0161 -0.2065
 9092TIP3    H148691   0.317   6.304  14.408  0.1192 -1.9308 -0.7456
 9092TIP3    H248692   0.178   6.339  14.458  0.7536 -1.2911  0.6259
 9093TIP3   OH248693   0.106   5.823   5.862  0.3602  0.0296  0.5751
 9093TIP3    H148694   0.135   5.814   5.771  0.7350  0.5070  0.6453
 9093TIP3    H248695   0.146   5.904   5.893 -1.5651  1.0830  0.4854
 9094TIP3   OH248696   5.681   0.729  15.328  0.0763 -0.3561 -0.2526
 9094TIP3    H148697   5.614   0.689  15.272  1.1995  0.0851 -1.9857
 9094TIP3    H248698   5.745   0.659  15.342 -0.0385 -0.3686  0.2223
 9095TIP3   OH248699   3.140   2.224   1.518 -0.7677  0.1744 -0.2388
 9095TIP3    H148700   3.131   2.175   1.599  2.5713  0.3860  0.4172
 9095TIP3    H248701   3.050   2.245   1.492 -2.0042 -0.7074  2.8619
 9096TIP3   OH248702   4.923   2.852   1.701  0.4105 -0.5666  0.0758
 9096TIP3    H148703   4.940   2.786   1.634 -1.4136  0.6546 -1.6579
 9096TIP3    H248704   4.986   2.922   1.683  1.0539 -0.9448  0.7451
 9097TIP3   OH248705   1.510   2.460   3.269  0.3043  0.0380  0.2503
 9097TIP3    H148706   1.533   2.383   3.217 -0.0533  1.2241 -1.7945
 9097TIP3    H248707   1.485   2.425   3.355  1.1058 -2.0060 -0.2871
 9098TIP3   OH248708   2.878   5.337  13.343  0.1950 -0.0713 -0.1406
 9098TIP3    H148709   2.783   5.338  13.354  0.0440 -0.9365 -1.1955
 9098TIP3    H248710   2.910   5.287  13.417 -0.1715  0.2633  0.2461
 9099TIP3   OH248711   6.315   3.227  14.740 -0.5899 -0.2696  0.1329
 9099TIP3    H148712   6.242   3.234  14.801 -0.4600 -1.1574  0.3955
 9099TIP3    H248713   6.371   3.301  14.762 -1.9822  1.1591 -0.8826
 9100TIP3   OH248714   6.131   5.529   1.529  0.1978  0.4949 -0.6224
 9100TIP3    H148715   6.058   5.518   1.469 -0.0968 -2.9181  0.1783
 9100TIP3    H248716   6.099   5.496   1.613  1.7157  1.7964  0.5375
 9101TIP3   OH248717   1.524   1.799   3.570  0.6708  0.2389 -0.3070
 9101TIP3    H148718   1.522   1.851   3.650  1.2157  1.0965 -0.8294
 9101TIP3    H248719   1.478   1.853   3.505  1.5223  0.2389 -0.9388
 9102TIP3   OH248720   4.561   0.550  16.847 -0.8448  0.7958 -0.3337
 9102TIP3    H148721   4.573   0.645  16.838  0.5634  0.6739 -0.0086
 9102TIP3    H248722   4.477   0.541  16.891 -0.3549  1.9872  0.9396
 9103TIP3   OH248723   2.475   2.464  16.291 -0.7734  0.2015  0.1153
 9103TIP3    H148724   2.467   2.415  16.373 -0.0894  0.3670  0.2923
 9103TIP3    H248725   2.442   2.551  16.311 -1.7624 -0.0995 -0.1350
 9104TIP3   OH248726   4.174   3.269   5.713 -0.3693 -0.2135 -0.1269
 9104TIP3    H148727   4.104   3.332   5.731  2.8902  3.4231  1.3415
 9104TIP3    H248728   4.202   3.240   5.800 -0.9709 -2.8674 -0.7451
 9105TIP3   OH248729   2.565   3.202   1.031  0.1915  0.1759 -0.2635
 9105TIP3    H148730   2.639   3.148   1.058 -0.1140 -0.4138 -0.5733
 9105TIP3    H248731   2.561   3.271   1.097  0.4299 -0.3291  0.3012
 9106TIP3   OH248732   4.402   5.449   2.446 -0.3425 -0.3200  0.3222
 9106TIP3    H148733   4.489   5.470   2.413  0.1137 -1.7340  0.5595
 9106TIP3    H248734   4.345   5.515   2.406  1.0438  1.7618  1.6037
 9107TIP3   OH248735   0.536   0.112  14.139  0.2595 -0.8273  0.3067
 9107TIP3    H148736   0.533   0.078  14.050 -0.4449 -0.0849  0.0332
 9107TIP3    H248737   0.582   0.045  14.189  0.8137 -1.1701 -0.6479
 9108TIP3   OH248738   0.678   0.867  14.614 -0.5600 -0.4251  0.6240
 9108TIP3    H148739   0.695   0.905  14.528 -0.9266  0.2303  0.8392
 9108TIP3    H248740   0.716   0.928  14.677 -2.2187  0.2386  1.0303
 9109TIP3   OH248741   0.317   2.435  12.716 -0.0957  0.8266  0.5303
 9109TIP3    H148742   0.369   2.408  12.792 -0.7864 -1.0827  0.3796
 9109TIP3    H248743   0.366   2.508  12.678  1.1314  0.7289  1.8459
 9110TIP3   OH248744   5.156   2.410  11.613  0.5842 -0.7665  0.2937
 9110TIP3    H148745   5.131   2.503  11.614  0.7590 -0.7195  0.3937
 9110TIP3    H248746   5.236   2.407  11.665  0.7671 -0.9193  0.0080
 9111TIP3   OH248747   5.798   6.016   1.222  0.1741  0.2476  0.4833
 9111TIP3    H148748   5.849   5.942   1.190  1.1808  1.5817 -1.1641
 9111TIP3    H248749   5.707   5.994   1.201  0.3558 -0.8616  0.7913
 9112TIP3   OH248750   4.633   3.696  15.526  0.2003  0.5644  0.7978
 9112TIP3    H148751   4.584   3.669  15.449 -1.2348  2.0059  1.1627
 9112TIP3    H248752   4.650   3.615  15.573 -1.5457 -0.0280  0.4749
 9113TIP3   OH248753   0.033   2.588   2.687  0.3896 -0.4217 -0.1720
 9113TIP3    H148754   0.075   2.597   2.602  1.4192 -4.2304 -0.2638
 9113TIP3    H248755   0.106   2.577   2.748 -0.3817  0.7286  1.0242
 9114TIP3   OH248756   1.141   5.507   0.970  0.1521  0.0164  0.4132
 9114TIP3    H148757   1.200   5.555   0.912 -0.5009 -1.3811 -1.5137
 9114TIP3    H248758   1.101   5.575   1.025  0.3671  1.5102 -1.1854
 9115TIP3   OH248759   4.143   2.711   2.876  0.2714  0.2260  0.1740
 9115TIP3    H148760   4.228   2.734   2.838 -0.3414 -2.2445 -3.2154
 9115TIP3    H248761   4.155   2.621   2.908 -1.2042 -0.5169 -1.2109
 9116TIP3   OH248762   0.602   2.198   3.516  0.1280  0.2258 -0.0519
 9116TIP3    H148763   0.543   2.171   3.586  0.0165  1.5270  0.3852
 9116TIP3    H248764   0.629   2.116   3.474  0.8812 -0.6697  2.0466
 9117TIP3   OH248765   6.637   3.269  15.343 -1.3235 -0.6076 -0.5156
 9117TIP3    H148766   6.587   3.311  15.273 -0.9075  0.6283 -0.0912
 9117TIP3    H248767   6.676   3.341  15.392 -0.2917 -1.4966  0.0293
 9118TIP3   OH248768   5.633   1.420   5.887  0.7308 -0.5435  0.0581
 9118TIP3    H148769   5.567   1.487   5.904  2.3908  0.6594  2.2707
 9118TIP3    H248770   5.605   1.379   5.805 -1.2662  1.7075 -0.4906
 9119TIP3   OH248771   4.920   4.860  16.418 -0.5299 -1.7544  0.3830
 9119TIP3    H148772   4.936   4.879  16.326 -2.1458 -1.1617  0.2062
 9119TIP3    H248773   4.984   4.792  16.439  4.4851  2.3257  0.5797
 9120TIP3   OH248774   2.040   0.803   1.453  0.4873 -0.3886  0.0373
 9120TIP3    H148775   2.002   0.853   1.525  0.8913 -0.6981  0.4738
 9120TIP3    H248776   1.965   0.772   1.403  0.2241  0.5933 -0.2081
 9121TIP3   OH248777   0.380   5.307  15.022  0.1529  0.1418 -0.1508
 9121TIP3    H148778   0.352   5.216  15.028 -0.2515  0.1729 -1.2543
 9121TIP3    H248779   0.468   5.308  15.059  1.0783 -1.1661 -2.1520
 9122TIP3   OH248780   4.213   2.067   0.990 -0.2831 -0.5097 -0.0073
 9122TIP3    H148781   4.137   2.051   0.934 -0.5142  0.1132  0.1144
 9122TIP3    H248782   4.192   2.148   1.035  0.5034 -0.2786 -0.0419
 9123TIP3   OH248783   4.239   1.358  10.868  0.1353 -0.3576  0.4800
 9123TIP3    H148784   4.305   1.299  10.833 -1.2579 -1.4530 -0.4322
 9123TIP3    H248785   4.187   1.384  10.792 -0.3844  0.6217  1.1387
 9124TIP3   OH248786   3.442   5.848  16.741  0.0572 -0.3713 -0.2949
 9124TIP3    H148787   3.375   5.915  16.725  0.5820  0.0726 -0.6814
 9124TIP3    H248788   3.510   5.894  16.790 -0.0909 -0.9256  0.4599
 9125TIP3   OH248789   3.815   0.710   0.948 -0.2739  0.9797 -0.1667
 9125TIP3    H148790   3.736   0.724   0.896 -1.7730 -3.7075  0.4130
 9125TIP3    H248791   3.869   0.652   0.894  1.3824  1.6453  0.7198
 9126TIP3   OH248792   3.192   2.839   4.937 -0.4698 -0.3121 -0.2174
 9126TIP3    H148793   3.245   2.764   4.965 -0.2112  0.0852  0.3658
 9126TIP3    H248794   3.103   2.819   4.968  0.0706  0.8064  2.3145
 9127TIP3   OH248795   2.922   4.341   4.732  0.1539  0.0053 -0.3222
 9127TIP3    H148796   2.889   4.253   4.710 -0.2758  0.1882 -0.4098
 9127TIP3    H248797   2.990   4.325   4.797  0.3307 -0.4226 -0.6009
 9128TIP3   OH248798   3.073   2.968   4.245  0.0066 -0.3144  0.1911
 9128TIP3    H148799   3.018   3.034   4.288  1.3395 -0.0421  1.5624
 9128TIP3    H248800   3.140   2.947   4.309  0.6776 -1.7041 -0.9023
 9129TIP3   OH248801   4.336   4.773   5.714 -0.2592 -0.7781 -0.0364
 9129TIP3    H148802   4.354   4.695   5.766 -1.6726 -1.0462  0.0918
 9129TIP3    H248803   4.374   4.755   5.628 -1.0925 -1.8706 -0.1950
 9130TIP3   OH248804   0.062   0.024  16.671  0.6744 -0.2528  0.6643
 9130TIP3    H148805   0.026  -0.064  16.682 -1.6526  0.5422 -0.0886
 9130TIP3    H248806   0.059   0.040  16.577 -0.3185  1.1647  0.9125
 9131TIP3   OH248807   0.858   2.290  16.555  0.2905 -0.7978  0.4136
 9131TIP3    H148808   0.919   2.362  16.536 -0.5774  0.0898  0.8867
 9131TIP3    H248809   0.854   2.287  16.650 -0.9104 -0.3901  0.3888
 9132TIP3   OH248810   3.172   3.782  12.728  0.5362  0.2104  0.6622
 9132TIP3    H148811   3.222   3.836  12.789  0.5648 -0.7539  1.5208
 9132TIP3    H248812   3.083   3.783  12.764  0.1200  1.1284 -0.3209
 9133TIP3   OH248813   4.855   3.245  11.440  0.3234  0.2074 -0.0580
 9133TIP3    H148814   4.810   3.180  11.385  0.5970 -0.1124  0.0902
 9133TIP3    H248815   4.834   3.220  11.529  0.4847  0.2820  0.0016
 9134TIP3   OH248816   3.991   0.292  12.647 -0.3762 -0.4265  0.2465
 9134TIP3    H148817   4.068   0.237  12.660 -0.6021 -0.8955 -0.3664
 9134TIP3    H248818   3.988   0.307  12.552 -1.5297 -1.1199  0.1579
 9135TIP3   OH248819   6.153   6.794   1.680  0.0821  0.0157 -0.8280
 9135TIP3    H148820   6.247   6.776   1.680 -0.4821 -3.9583 -3.5463
 9135TIP3    H248821   6.131   6.810   1.589 -1.8350  2.0136 -0.1200
 9136TIP3   OH248822   1.232   3.922  13.210 -0.2588  0.4075  0.0469
 9136TIP3    H148823   1.294   3.850  13.220  0.5317  0.8947 -1.1424
 9136TIP3    H248824   1.148   3.885  13.237 -0.0222 -1.2110 -1.2745
 9137TIP3   OH248825   1.386   5.845   0.904  0.0136 -0.0964  0.1117
 9137TIP3    H148826   1.405   5.938   0.913  0.2901 -0.0894 -0.5245
 9137TIP3    H248827   1.302   5.833   0.950 -1.0833  0.8603 -1.5597
 9138TIP3   OH248828   0.262   0.247  11.955 -0.1966  0.4366  0.3413
 9138TIP3    H148829   0.216   0.232  11.872  0.2845  0.7801  0.0036
 9138TIP3    H248830   0.352   0.268  11.929 -0.5381  2.7803  0.8048
 9139TIP3   OH248831   6.377   4.605  15.088 -0.9330 -0.4110  0.5358
 9139TIP3    H148832   6.395   4.546  15.015 -0.8200 -0.4259  0.5756
 9139TIP3    H248833   6.285   4.590  15.110 -1.9975  1.9154 -1.7450
 9140TIP3   OH248834   0.571   4.425   3.647  0.3481 -0.3770  0.6789
 9140TIP3    H148835   0.562   4.351   3.587  0.9836 -0.3206  0.5053
 9140TIP3    H248836   0.601   4.497   3.592  1.3993 -0.4489  1.1252
 9141TIP3   OH248837   4.688   5.032   4.324 -0.4724  0.5175 -0.5672
 9141TIP3    H148838   4.699   5.005   4.415 -0.1060  3.0779  0.2235
 9141TIP3    H248839   4.776   5.058   4.296 -0.4937 -0.6476 -1.8461
 9142TIP3   OH248840   4.296   1.813  16.874  0.0023  0.5522  0.0995
 9142TIP3    H148841   4.316   1.720  16.868  0.6788  0.7608 -1.3478
 9142TIP3    H248842   4.209   1.821  16.834  0.3404  0.6462 -0.6387
 9143TIP3   OH248843   2.169   2.659  14.728 -0.0948  0.6100  0.3810
 9143TIP3    H148844   2.143   2.751  14.726  0.1963  0.6783 -0.7522
 9143TIP3    H248845   2.246   2.657  14.785 -0.3343  1.0010  0.7247
 9144TIP3   OH248846   3.572   4.561   1.162 -0.1611  0.0468 -0.6999
 9144TIP3    H148847   3.498   4.502   1.146 -0.8365  0.7762 -0.3644
 9144TIP3    H248848   3.566   4.626   1.091  0.5417 -0.2550 -1.0367
 9145TIP3   OH248849   1.438   6.267  14.827  0.0751 -0.1200 -0.1294
 9145TIP3    H148850   1.487   6.224  14.898 -1.6821  0.8714  1.7831
 9145TIP3    H248851   1.433   6.201  14.759 -1.8230 -2.7895  2.3541
 9146TIP3   OH248852   0.073   2.775  16.971  0.5943 -0.0071 -0.3993
 9146TIP3    H148853  -0.014   2.735  16.981  0.8029 -0.4629 -0.3834
 9146TIP3    H248854   0.087   2.777  16.877  0.1353  1.0165 -0.4597
 9147TIP3   OH248855   4.417   5.210  16.893 -0.5408  0.4047  0.3169
 9147TIP3    H148856   4.462   5.293  16.908  0.8501 -0.1516 -0.5996
 9147TIP3    H248857   4.473   5.145  16.936  0.3697 -0.4773 -2.0246
 9148TIP3   OH248858   6.699   4.326   5.840 -0.7590  0.2149  0.0985
 9148TIP3    H148859   6.737   4.360   5.921  1.6452 -0.8514 -0.4872
 9148TIP3    H248860   6.774   4.312   5.783 -1.6359 -4.4133 -0.3179
 9149TIP3   OH248861   5.525   5.029  16.557 -0.6500 -0.0030  0.0353
 9149TIP3    H148862   5.593   5.084  16.595 -0.6451 -0.6459  0.9998
 9149TIP3    H248863   5.454   5.089  16.537 -0.0546  0.5787 -0.3595
 9150TIP3   OH248864   1.158   2.616   0.757  0.0786 -0.7061  0.0327
 9150TIP3    H148865   1.130   2.695   0.710  0.1510 -1.8427 -2.0263
 9150TIP3    H248866   1.107   2.618   0.838  0.3331  1.6024  0.2253
 9151TIP3   OH248867   1.741   0.737  13.524  0.4658  0.6056 -0.3790
 9151TIP3    H148868   1.815   0.700  13.475  1.2878 -0.5549  1.6310
 9151TIP3    H248869   1.684   0.662  13.542 -0.8487  1.3562 -1.2126
 9152TIP3   OH248870   1.866   2.479  10.865 -0.1465 -0.3785  0.0746
 9152TIP3    H148871   1.957   2.503  10.851  0.3059 -1.7029  0.6233
 9152TIP3    H248872   1.836   2.448  10.780 -0.1009  0.0692 -0.1090
 9153TIP3   OH248873   4.852   6.249   1.751 -0.1434 -0.0070  0.1444
 9153TIP3    H148874   4.856   6.158   1.780  2.0415  0.0090  0.0767
 9153TIP3    H248875   4.873   6.246   1.657  2.2068  0.6852  0.5805
 9154TIP3   OH248876   2.639   0.495   6.265 -0.1033 -0.1442  0.0461
 9154TIP3    H148877   2.733   0.512   6.272 -0.0503 -0.4907  0.1700
 9154TIP3    H248878   2.615   0.531   6.179  0.6801 -2.4764 -1.2341
 9155TIP3   OH248879   4.368   4.456  11.545  0.4134  0.5454  0.2546
 9155TIP3    H148880   4.312   4.382  11.524 -0.6023  1.1863  0.6351
 9155TIP3    H248881   4.445   4.417  11.587 -0.8145 -0.1802  1.9138
 9156TIP3   OH248882   4.630   1.074  15.092  0.5072 -0.3898 -0.5208
 9156TIP3    H148883   4.717   1.090  15.053  0.2328 -0.8899 -1.3595
 9156TIP3    H248884   4.647   1.068  15.186  1.0834  1.6012 -0.4440
 9157TIP3   OH248885   0.091   3.365   1.927  0.4924 -0.0500 -0.0460
 9157TIP3    H148886   0.162   3.357   1.990  0.7298 -0.5891 -0.3763
 9157TIP3    H248887   0.011   3.350   1.979  0.6816 -0.4209  0.1392
 9158TIP3   OH248888   6.612   0.406   1.976 -0.7895  0.0035 -0.1591
 9158TIP3    H148889   6.655   0.490   1.961  2.2904 -1.5360 -0.6871
 9158TIP3    H248890   6.605   0.399   2.071 -0.2135  0.4486 -0.0832
 9159TIP3   OH248891   2.879   6.481  12.557 -0.2259 -0.5716  0.1053
 9159TIP3    H148892   2.798   6.500  12.509  0.0744 -1.0170 -0.5929
 9159TIP3    H248893   2.912   6.567  12.584 -0.6486 -0.3503 -0.0794
 9160TIP3   OH248894   5.122   5.593  15.363 -0.3954  0.7156  0.3680
 9160TIP3    H148895   5.123   5.660  15.295 -1.2994 -0.5574 -0.9653
 9160TIP3    H248896   5.078   5.635  15.437 -0.3240  1.7999 -0.1821
 9161TIP3   OH248897   5.100   0.853  15.435  0.1136  0.0678  0.0973
 9161TIP3    H148898   5.187   0.873  15.469  1.2458 -0.9460 -2.0374
 9161TIP3    H248899   5.076   0.929  15.382  1.0732 -0.8594 -1.7615
 9162TIP3   OH248900   1.492   2.642  14.935 -0.0083  0.5342 -0.5457
 9162TIP3    H148901   1.536   2.610  15.014 -0.4690  1.6297  0.1901
 9162TIP3    H248902   1.508   2.736  14.936 -2.9730  1.1240  0.2013
 9163TIP3   OH248903   6.429   0.415  12.288 -0.3280 -0.1317  0.2557
 9163TIP3    H148904   6.510   0.419  12.237 -0.7663  0.2940 -0.4116
 9163TIP3    H248905   6.459   0.402  12.378  0.4415 -1.4609 -0.1517
 9164TIP3   OH248906   4.245   0.983   0.484 -1.0209 -0.1110  0.3804
 9164TIP3    H148907   4.167   1.019   0.442 -1.9756 -1.1439  1.1882
 9164TIP3    H248908   4.213   0.906   0.531  0.9433 -2.1545 -1.3975
 9165TIP3   OH248909   1.054   3.314  14.236  0.3779  0.0283  0.3410
 9165TIP3    H148910   1.063   3.409  14.225 -0.1947  0.0701  0.2476
 9165TIP3    H248911   0.976   3.304  14.290 -0.5975 -0.4758 -1.1350
 9166TIP3   OH248912   5.372   0.479   1.218 -0.2490 -0.2990 -0.0356
 9166TIP3    H148913   5.317   0.400   1.217 -2.1097  0.6728  4.0867
 9166TIP3    H248914   5.456   0.449   1.252 -1.4654 -0.4561  3.1850
 9167TIP3   OH248915   6.490   3.203   3.913  0.7761 -0.1249 -0.7838
 9167TIP3    H148916   6.407   3.245   3.936 -0.6621 -2.7915 -0.6977
 9167TIP3    H248917   6.557   3.255   3.958 -0.9729  1.1810  0.4232
 9168TIP3   OH248918   6.689   6.100   2.533 -0.7661  0.1448 -0.8344
 9168TIP3    H148919   6.708   6.141   2.617 -0.4946  0.6489 -1.1313
 9168TIP3    H248920   6.770   6.053   2.511 -0.8907 -0.1105 -0.7397
 9169TIP3   OH248921   0.553   1.052   4.960 -0.0769  0.3944  0.7378
 9169TIP3    H148922   0.596   1.091   4.884 -2.1827  0.0267 -0.7281
 9169TIP3    H248923   0.604   0.972   4.977 -1.7694 -1.7602 -2.9474
 9170TIP3   OH248924   6.738   2.223   4.435 -0.1342  0.8265 -0.0505
 9170TIP3    H148925   6.808   2.161   4.417 -0.2281  1.0066 -1.1129
 9170TIP3    H248926   6.734   2.229   4.531  1.7956  1.3867  0.0412
 9171TIP3   OH248927   6.334   1.864  11.322  0.2466  0.2479 -0.2576
 9171TIP3    H148928   6.342   1.858  11.227  0.2795  1.0014 -0.3070
 9171TIP3    H248929   6.317   1.956  11.339  1.4451  0.3412  0.5445
 9172TIP3   OH248930   2.771   1.507  10.941 -0.0136 -0.0570 -0.6343
 9172TIP3    H148931   2.730   1.526  10.857 -1.8298 -1.0622 -0.0399
 9172TIP3    H248932   2.821   1.427  10.927 -0.4949 -0.3462 -0.7282
 9173TIP3   OH248933   0.478   2.253   6.069  0.0820  0.3893 -0.2219
 9173TIP3    H148934   0.490   2.340   6.107 -1.2549  1.5428 -2.2499
 9173TIP3    H248935   0.445   2.200   6.141 -0.7065  2.0149  0.6736
 9174TIP3   OH248936   3.754   4.882  12.758  0.0432  0.7068 -0.5784
 9174TIP3    H148937   3.766   4.971  12.725  1.5861  0.7839  0.0792
 9174TIP3    H248938   3.843   4.845  12.761 -0.3107 -0.1190  1.1220
 9175TIP3   OH248939   5.973   3.597   2.288 -1.0695 -0.1830 -0.1180
 9175TIP3    H148940   5.990   3.590   2.194 -0.7347  0.9123 -0.1578
 9175TIP3    H248941   6.056   3.573   2.329 -0.2541  2.1530 -0.2223
 9176TIP3   OH248942   3.922   3.937   1.932 -0.0577 -0.7293 -0.3896
 9176TIP3    H148943   3.911   3.898   1.845 -0.7221  1.5334 -1.4005
 9176TIP3    H248944   3.986   4.007   1.918 -2.3268  1.5891  0.2393
 9177TIP3   OH248945   3.258   2.305   3.863  0.6146 -0.0846 -0.1388
 9177TIP3    H148946   3.204   2.382   3.879 -0.2719 -0.3206 -1.7264
 9177TIP3    H248947   3.327   2.310   3.929 -0.9916  0.5455  1.5974
 9178TIP3   OH248948   5.258   3.738  12.341  0.2343 -0.7372  0.3816
 9178TIP3    H148949   5.201   3.815  12.343  0.0797 -0.7062 -1.9988
 9178TIP3    H248950   5.346   3.774  12.341  0.1615 -0.4583 -1.4844
 9179TIP3   OH248951   3.695   0.839  10.691  0.0870  0.2350 -0.0202
 9179TIP3    H148952   3.664   0.929  10.696  1.1695  0.5934  0.5321
 9179TIP3    H248953   3.776   0.838  10.742  1.3112 -0.5153 -1.8739
 9180TIP3   OH248954   0.289   2.414   3.355  0.6718  0.2420 -0.2053
 9180TIP3    H148955   0.296   2.509   3.367  0.0923  0.1743  0.8236
 9180TIP3    H248956   0.376   2.387   3.325  0.6935  1.1564 -1.0140
 9181TIP3   OH248957   6.712   1.914  14.994  0.4323  0.0354 -0.0921
 9181TIP3    H148958   6.757   1.995  15.020  1.0890 -0.6333  0.9673
 9181TIP3    H248959   6.782   1.849  14.986 -0.2217 -0.7668  0.4775
 9182TIP3   OH248960   4.243   5.020   5.535  0.3526  0.4974  0.5014
 9182TIP3    H148961   4.200   5.031   5.620  0.7093  0.3010  0.7061
 9182TIP3    H248962   4.335   5.005   5.556  0.0914 -1.8749  0.2136
 9183TIP3   OH248963   1.566   1.500  13.111  0.3664 -0.2357 -0.1254
 9183TIP3    H148964   1.548   1.562  13.182 -2.8797 -1.7664  0.5666
 9183TIP3    H248965   1.506   1.525  13.041  3.7433  1.4799 -2.7425
 9184TIP3   OH248966   0.305   2.151  15.316 -0.2311  0.0034  0.6534
 9184TIP3    H148967   0.369   2.092  15.355 -0.2981 -0.3074  0.2965
 9184TIP3    H248968   0.287   2.216  15.384 -2.0672 -1.8034  1.9731
 9185TIP3   OH248969   2.327   2.200  14.605  0.5625  0.8493 -0.6349
 9185TIP3    H148970   2.366   2.113  14.603 -0.1188  0.5510 -2.0177
 9185TIP3    H248971   2.332   2.227  14.697  0.9979 -0.5340 -0.2347
 9186TIP3   OH248972   4.268   6.120  13.778 -0.1496  0.1298 -0.2530
 9186TIP3    H148973   4.300   6.200  13.820 -1.6615  1.3631 -1.3554
 9186TIP3    H248974   4.173   6.124  13.787 -0.3152 -1.0619 -1.1721
 9187TIP3   OH248975   1.060   6.526   4.745 -0.5421  0.5217 -0.1008
 9187TIP3    H148976   0.983   6.472   4.731 -0.2432  0.1962 -0.5403
 9187TIP3    H248977   1.062   6.586   4.669 -0.7941  1.0599  0.3107
 9188TIP3   OH248978   5.487   2.733  11.532 -0.7589 -0.0120 -0.6297
 9188TIP3    H148979   5.459   2.810  11.581 -2.0298 -0.5149 -0.5237
 9188TIP3    H248980   5.562   2.699  11.582 -1.0320  0.3971  0.0788
 9189TIP3   OH248981   5.708   1.815   1.725  0.2027 -0.4056  0.3203
 9189TIP3    H148982   5.804   1.813   1.719  0.2420  0.9679  0.2891
 9189TIP3    H248983   5.678   1.814   1.634  0.2350  0.5633  0.2932
 9190TIP3   OH248984   5.157   5.557   2.757 -0.0768  0.2365  0.6383
 9190TIP3    H148985   5.247   5.590   2.765  2.6699 -5.6818 -0.5249
 9190TIP3    H248986   5.117   5.576   2.842  2.8476  1.7090  1.8261
 9191TIP3   OH248987   0.361   3.939  13.949  0.2046  0.4607  0.3547
 9191TIP3    H148988   0.425   3.978  14.008  1.3993 -0.6940 -0.1301
 9191TIP3    H248989   0.354   4.001  13.876  1.0985  0.4111  0.2145
 9192TIP3   OH248990   2.165   1.046  14.255  0.1177  0.2947 -0.3031
 9192TIP3    H148991   2.260   1.049  14.246 -0.0119  1.9769 -1.5434
 9192TIP3    H248992   2.141   0.955  14.238  1.5627 -0.3793  1.0404
 9193TIP3   OH248993   3.715   0.417   0.480 -0.1416  0.3790  0.1400
 9193TIP3    H148994   3.629   0.425   0.521 -0.2510  0.7695 -0.1599
 9193TIP3    H248995   3.716   0.328   0.443  0.7916 -0.8362  2.8415
 9194TIP3   OH248996   2.012   2.467  16.339 -0.8091 -0.2726 -0.1696
 9194TIP3    H148997   1.980   2.379  16.322 -0.1958 -0.6667  0.6242
 9194TIP3    H248998   1.937   2.524  16.322 -0.7756 -0.7708 -2.2528
 9195TIP3   OH248999   4.022   1.302   4.720  0.2434 -0.0243  0.8875
 9195TIP3    H149000   4.106   1.275   4.683  1.8582  2.7800  2.2098
 9195TIP3    H249001   3.969   1.326   4.644  1.6556  0.7860  0.1109
 9196TIP3   OH249002   1.361   0.380  10.858  0.1604  0.1137  0.1780
 9196TIP3    H149003   1.409   0.322  10.800 -1.5660 -0.0351 -1.1877
 9196TIP3    H249004   1.340   0.326  10.934  0.8505 -0.2506  0.1128
 9197TIP3   OH249005   0.425   2.018   5.797 -0.1605  0.1904  0.4763
 9197TIP3    H149006   0.343   2.066   5.809  0.7330  1.6995  0.9078
 9197TIP3    H249007   0.456   2.044   5.710  1.0695  1.6897  1.2927
 9198TIP3   OH249008   0.245   2.459  11.211 -0.0911  0.4027  1.0253
 9198TIP3    H149009   0.251   2.364  11.217 -0.4556  0.3722  0.9132
 9198TIP3    H249010   0.335   2.488  11.198 -0.1211 -0.0220 -0.2776
 9199TIP3   OH249011   5.635   4.544   0.299  0.4191  0.5572  0.1261
 9199TIP3    H149012   5.614   4.515   0.387  0.6846 -0.6751 -0.2051
 9199TIP3    H249013   5.678   4.469   0.258 -0.8072  0.6529 -1.4463
 9200TIP3   OH249014   5.055   3.963  15.774 -0.3839  0.5564  0.3721
 9200TIP3    H149015   5.101   3.917  15.845 -0.3565 -2.0593 -1.2267
 9200TIP3    H249016   4.965   3.933  15.780 -0.1591 -0.5725 -1.3039
 9201TIP3   OH249017   3.976   2.412   2.942 -0.6271 -0.1336  0.2240
 9201TIP3    H149018   3.938   2.398   3.029  1.1866  0.0898  1.1026
 9201TIP3    H249019   3.924   2.482   2.904 -0.9523  0.3220  1.4709
 9202TIP3   OH249020   4.464   3.984   2.246 -0.2406 -0.3788 -0.5930
 9202TIP3    H149021   4.510   4.002   2.327  0.7162 -0.0788 -1.1874
 9202TIP3    H249022   4.428   4.070   2.220 -1.3085 -0.6374 -0.0520
 9203TIP3   OH249023   2.528   4.050  13.983 -0.6357 -0.1823 -0.1911
 9203TIP3    H149024   2.460   4.085  14.042 -0.8170 -1.2447  0.2524
 9203TIP3    H249025   2.558   3.970  14.026  1.2827  0.5199 -0.1211
 9204TIP3   OH249026   2.743   1.212   1.376  0.5091 -0.2100 -0.1231
 9204TIP3    H149027   2.689   1.274   1.326  1.6225 -0.0356 -1.1531
 9204TIP3    H249028   2.822   1.260   1.398  1.5902 -1.3628 -1.3242
 9205TIP3   OH249029   6.279   1.988  16.915  0.1474 -0.4540  0.3214
 9205TIP3    H149030   6.203   2.046  16.907 -0.2580 -1.0104 -0.0445
 9205TIP3    H249031   6.340   2.035  16.971  1.0353  1.5653 -2.1448
 9206TIP3   OH249032   2.329   3.609  10.800  0.0564 -0.1258  0.7610
 9206TIP3    H149033   2.419   3.581  10.782 -0.1271 -0.2826  0.0434
 9206TIP3    H249034   2.310   3.673  10.732 -0.3838 -0.1110  0.8956
 9207TIP3   OH249035   2.297   0.509   0.688  0.5984  0.2127  0.3217
 9207TIP3    H149036   2.366   0.493   0.623  1.3235 -0.1873  1.1604
 9207TIP3    H249037   2.344   0.510   0.772 -0.5729 -1.2401  1.0405
 9208TIP3   OH249038   4.858   1.957   5.684 -0.0699 -0.2905 -0.2942
 9208TIP3    H149039   4.810   1.947   5.765  1.3155 -0.2147  0.5686
 9208TIP3    H249040   4.842   1.875   5.636  0.7800 -1.2450  0.9957
 9209TIP3   OH249041   2.560   0.977  10.254  0.3508  0.0445  0.0179
 9209TIP3    H149042   2.584   1.056  10.207  0.0483 -0.3701 -0.8678
 9209TIP3    H249043   2.631   0.915  10.236 -0.6275 -0.7058 -1.4105
 9210TIP3   OH249044   4.363   0.110  12.951  1.0152 -0.2123 -0.0975
 9210TIP3    H149045   4.284   0.130  12.901  1.0099 -1.3988 -0.5953
 9210TIP3    H249046   4.424   0.179  12.929  1.5477 -1.4610 -2.9626
 9211TIP3   OH249047   0.908   2.064  12.308  0.5188  0.9313  0.5739
 9211TIP3    H149048   0.996   2.027  12.315  0.9176  2.0992  3.3951
 9211TIP3    H249049   0.922   2.159  12.317 -0.8969  1.3185 -0.8976
 9212TIP3   OH249050   0.459   4.130   0.220 -0.6432 -0.0612  0.1532
 9212TIP3    H149051   0.499   4.046   0.243 -1.8118 -1.1779 -1.5963
 9212TIP3    H249052   0.373   4.128   0.262 -0.6145  0.3348  0.2382
 9213TIP3   OH249053   0.833   5.564   3.408  0.1449 -0.3235 -0.4927
 9213TIP3    H149054   0.902   5.540   3.470  1.6509  1.6419 -1.2694
 9213TIP3    H249055   0.797   5.481   3.378 -0.3133 -1.3743  2.5716
 9214TIP3   OH249056   1.400   6.712  11.289  0.4402 -0.5467  0.0135
 9214TIP3    H149057   1.450   6.660  11.353 -0.3472  0.0085  1.1267
 9214TIP3    H249058   1.329   6.653  11.262 -0.4676 -0.0946  1.2957
 9215TIP3   OH249059   3.196   0.597  12.058 -0.4540 -0.2514 -1.0162
 9215TIP3    H149060   3.284   0.569  12.033 -0.3989 -0.5280 -0.5413
 9215TIP3    H249061   3.192   0.689  12.033  0.1621 -0.0941 -0.5674
 9216TIP3   OH249062   2.204   1.956  15.890  0.1009 -0.2202  0.1344
 9216TIP3    H149063   2.220   2.004  15.971 -1.5591  0.4742  0.0925
 9216TIP3    H249064   2.180   2.024  15.826 -2.0390 -1.0295  0.0049
 9217TIP3   OH249065   1.228   6.477   0.945 -0.4161 -0.6524 -0.0472
 9217TIP3    H149066   1.317   6.451   0.921  0.0708  1.3691 -0.6188
 9217TIP3    H249067   1.238   6.558   0.993 -2.0239  0.8116 -1.9620
 9218TIP3   OH249068   0.680   2.504   5.196  0.1332 -0.7353  0.1718
 9218TIP3    H149069   0.745   2.480   5.130  0.9184 -1.2673  1.1054
 9218TIP3    H249070   0.705   2.453   5.273 -1.0555 -0.5013  0.7264
 9219TIP3   OH249071   5.429   5.258  11.239  0.6447 -0.1611  0.1565
 9219TIP3    H149072   5.474   5.290  11.162  2.3870  2.2872  2.0437
 9219TIP3    H249073   5.363   5.324  11.258  1.2289  0.0664  1.5520
 9220TIP3   OH249074   0.831   0.134   2.563 -0.1690 -0.6197  0.3979
 9220TIP3    H149075   0.744   0.148   2.525 -0.1400  0.2298  0.6263
 9220TIP3    H249076   0.836   0.197   2.634  1.1663  0.3103 -0.4870
 9221TIP3   OH249077   3.571   6.203  16.322 -0.0104  0.0272  0.3707
 9221TIP3    H149078   3.598   6.226  16.410  0.7544 -2.1877  0.7795
 9221TIP3    H249079   3.557   6.287  16.278  2.6353  1.2353  1.6517
 9222TIP3   OH249080   6.169   4.929   5.228 -0.4218  0.1307  0.4726
 9222TIP3    H149081   6.181   4.978   5.146  0.7232 -0.3593  0.3364
 9222TIP3    H249082   6.097   4.975   5.272 -0.4165  0.9819 -0.3650
 9223TIP3   OH249083   0.096   4.679   5.910 -0.3690 -0.3602  0.0993
 9223TIP3    H149084   0.036   4.676   5.836 -0.8977  1.5027  0.4074
 9223TIP3    H249085   0.051   4.632   5.980 -1.2366  0.5028  0.1409
 9224TIP3   OH249086   3.983   2.156   4.152  0.0409 -0.3493 -0.4254
 9224TIP3    H149087   4.043   2.083   4.166 -0.0370 -0.3820 -0.2507
 9224TIP3    H249088   3.897   2.122   4.178 -0.0225 -0.2475 -0.5008
 9225TIP3   OH249089   3.359   3.875  11.481 -0.9279 -0.0481  0.4349
 9225TIP3    H149090   3.331   3.784  11.486 -1.8786  0.3052  1.9937
 9225TIP3    H249091   3.284   3.921  11.443 -1.6725  0.5469  2.5322
 9226TIP3   OH249092   6.807   3.666   1.388  0.1325 -0.7707 -0.4653
 9226TIP3    H149093   6.737   3.707   1.439  0.9999  0.9120 -0.5227
 9226TIP3    H249094   6.801   3.573   1.409 -1.9375 -0.6484 -0.2936
 9227TIP3   OH249095   1.126   6.257   5.240  0.1827  0.1117 -0.3091
 9227TIP3    H149096   1.124   6.287   5.149  0.0876  0.8635 -0.0633
 9227TIP3    H249097   1.218   6.266   5.266  0.2336 -0.2236 -0.3673
 9228TIP3   OH249098   3.973   4.802   6.531 -0.2272 -0.3562  0.0921
 9228TIP3    H149099   4.055   4.781   6.487  0.2376 -0.5682  1.0383
 9228TIP3    H249100   3.964   4.897   6.519 -0.4502 -0.4995 -1.0049
 9229TIP3   OH249101   1.289   0.212   6.767 -0.7895  0.0155  0.3267
 9229TIP3    H149102   1.252   0.299   6.781 -0.0119  0.2987  0.6856
 9229TIP3    H249103   1.381   0.221   6.790  0.0039 -0.1648 -2.4530
 9230TIP3   OH249104   5.664   0.823  15.818  0.1514  0.0099 -0.3256
 9230TIP3    H149105   5.675   0.728  15.813  1.8516 -0.0122  1.9156
 9230TIP3    H249106   5.723   0.857  15.751 -2.2598 -0.4671 -2.8357
 9231TIP3   OH249107   5.711   4.071   1.870  0.1032  0.4206 -0.3706
 9231TIP3    H149108   5.787   4.015   1.881 -0.4190 -1.0261 -3.0965
 9231TIP3    H249109   5.747   4.159   1.857  1.0341  0.4454  1.8945
 9232TIP3   OH249110   1.982   5.465   5.469 -0.0227 -0.1660 -0.1672
 9232TIP3    H149111   1.891   5.459   5.441  0.0176 -0.1147 -0.3153
 9232TIP3    H249112   2.032   5.446   5.389  0.0952 -0.8883  0.0717
 9233TIP3   OH249113   1.407   3.520   2.476 -0.2513 -0.1524  0.6091
 9233TIP3    H149114   1.488   3.570   2.482  0.3141 -0.8154 -0.9768
 9233TIP3    H249115   1.347   3.578   2.430 -0.0492 -0.3917  0.0401
 9234TIP3   OH249116   6.063   0.825   2.845  0.0409  0.2063 -0.6775
 9234TIP3    H149117   5.991   0.889   2.844 -0.4675 -0.0918  2.8376
 9234TIP3    H249118   6.020   0.743   2.869  1.4561 -0.0876  0.9685
 9235TIP3   OH249119   0.382   1.253   3.464  0.0349 -0.0143  1.0056
 9235TIP3    H149120   0.322   1.201   3.411 -0.3874  2.1474 -0.8119
 9235TIP3    H249121   0.469   1.231   3.430 -0.2097  1.1040 -0.4824
 9236TIP3   OH249122   5.964   4.717   4.660 -0.1078 -0.1530 -1.2816
 9236TIP3    H149123   5.989   4.672   4.741 -0.0160  2.5525  0.2926
 9236TIP3    H249124   6.042   4.712   4.605  0.3243 -0.7910 -0.6365
 9237TIP3   OH249125   6.612   5.025  12.228 -0.2878 -0.2080 -0.4233
 9237TIP3    H149126   6.589   5.116  12.247 -1.8619 -0.3883 -1.3091
 9237TIP3    H249127   6.691   5.032  12.174 -0.0933  0.6099 -0.0571
 9238TIP3   OH249128   0.904   0.102   5.646  0.1001  0.1182  0.3126
 9238TIP3    H149129   0.833   0.095   5.710 -0.3215  0.7943 -0.0617
 9238TIP3    H249130   0.983   0.113   5.699  0.3699 -3.4070  0.8382
 9239TIP3   OH249131   5.976   3.769   3.038 -0.1818 -0.3518 -0.9850
 9239TIP3    H149132   6.023   3.816   2.968 -0.4272 -0.7464 -1.4206
 9239TIP3    H249133   5.906   3.722   2.993 -0.9376  0.1424 -0.3490
 9240TIP3   OH249134   6.509   2.469   0.151  0.2091 -0.0362 -0.0881
 9240TIP3    H149135   6.555   2.439   0.073  0.7951  1.0428 -0.1704
 9240TIP3    H249136   6.567   2.533   0.191 -0.7806  0.6198  0.3599
 9241TIP3   OH249137   5.659   1.444  16.671  0.1022  0.1752 -0.3197
 9241TIP3    H149138   5.623   1.424  16.584  0.5031  2.0507 -0.9705
 9241TIP3    H249139   5.584   1.435  16.730  0.1096 -2.4619 -0.5815
 9242TIP3   OH249140   4.953   5.747  11.319 -0.3749  0.7650  0.0422
 9242TIP3    H149141   4.993   5.687  11.256  1.4412  1.9542 -0.0171
 9242TIP3    H249142   4.941   5.829  11.270 -0.5040  1.1966  0.7849
 9243TIP3   OH249143   2.167   6.427   5.651 -0.2016  0.3024  0.3130
 9243TIP3    H149144   2.168   6.383   5.736 -2.5923 -0.5404  0.0016
 9243TIP3    H249145   2.151   6.519   5.672 -1.1151  0.0489  0.7967
 9244TIP3   OH249146   0.845   5.814  11.366 -0.2276  0.5942  0.3544
 9244TIP3    H149147   0.894   5.872  11.424 -0.1758  1.0635 -0.1545
 9244TIP3    H249148   0.844   5.730  11.412 -0.5642  1.0639  1.2459
 9245TIP3   OH249149   6.434   3.116  14.038  0.3231  0.3612  0.6441
 9245TIP3    H149150   6.390   3.071  13.966 -0.5641 -0.8380  1.8985
 9245TIP3    H249151   6.505   3.057  14.063 -0.9688 -0.5112  2.4286
 9246TIP3   OH249152   3.434   0.191  11.076 -0.2703  0.2578 -0.4377
 9246TIP3    H149153   3.415   0.200  10.983  0.3072 -3.8241 -1.1116
 9246TIP3    H249154   3.529   0.201  11.082 -0.4356  1.9653  0.0424
 9247TIP3   OH249155   3.025   3.480  14.735  0.5825 -0.5764 -0.2328
 9247TIP3    H149156   3.093   3.484  14.667  1.5661 -4.1256  0.3316
 9247TIP3    H249157   3.040   3.558  14.789  0.3454  1.8853 -3.4139
 9248TIP3   OH249158   1.551   1.495   1.198 -0.0963 -0.1167 -0.0450
 9248TIP3    H149159   1.499   1.571   1.172 -2.1262 -1.7812 -1.3205
 9248TIP3    H249160   1.565   1.506   1.292  0.7048  2.3540 -0.3899
 9249TIP3   OH249161   1.977   1.571  14.263  0.1564 -0.4203  0.3643
 9249TIP3    H149162   1.909   1.635  14.289  0.0051 -0.0090 -0.9724
 9249TIP3    H249163   1.938   1.524  14.190  1.4266  0.0124 -0.6082
 9250TIP3   OH249164   4.966   1.443  13.301  0.3512  0.2719 -0.1885
 9250TIP3    H149165   4.871   1.437  13.310  0.1538 -0.2518 -2.1433
 9250TIP3    H249166   5.000   1.368  13.350 -0.1267  1.0754  1.4595
 9251TIP3   OH249167   5.323   3.294  14.357 -0.6238 -0.0607  0.2275
 9251TIP3    H149168   5.392   3.284  14.423  0.6485  0.4406 -0.9926
 9251TIP3    H249169   5.258   3.349  14.400  0.1102  0.1399  1.1310
 9252TIP3   OH249170   5.694   4.450   2.017  0.0372 -0.5821  0.2435
 9252TIP3    H149171   5.711   4.375   2.073  2.5476 -0.0280  0.3637
 9252TIP3    H249172   5.716   4.419   1.929  0.6027 -0.1744  0.2307
 9253TIP3   OH249173   5.411   2.320  10.501  0.1239  0.0051 -0.2156
 9253TIP3    H149174   5.391   2.249  10.440  2.9341  1.1066 -2.6484
 9253TIP3    H249175   5.439   2.276  10.581 -0.7166 -1.5418 -0.7313
 9254TIP3   OH249176   0.742   2.819  14.601 -0.2037 -0.2355  0.0089
 9254TIP3    H149177   0.785   2.885  14.656  0.7202 -1.6123  0.9851
 9254TIP3    H249178   0.811   2.789  14.542 -0.7284 -0.0527 -0.7092
 9255TIP3   OH249179   6.319   5.969   4.350 -0.2888  0.1983 -0.5315
 9255TIP3    H149180   6.321   5.935   4.439 -0.1347 -1.3357 -1.0831
 9255TIP3    H249181   6.411   5.979   4.326 -0.2778 -1.1709 -1.1339
 9256TIP3   OH249182   5.474   2.775  12.205 -0.0057  0.0503 -0.7370
 9256TIP3    H149183   5.480   2.870  12.196 -0.8625  0.1892  0.0441
 9256TIP3    H249184   5.382   2.754  12.189  0.5139 -0.8799 -2.7492
 9257TIP3   OH249185   6.746   4.923   4.399 -0.6720  0.3376 -0.2743
 9257TIP3    H149186   6.830   4.968   4.405 -0.2823 -0.3281 -0.6022
 9257TIP3    H249187   6.681   4.993   4.407 -0.0881  1.0397 -1.3185
 9258TIP3   OH249188   0.057   5.767  12.492 -0.0035 -0.4336  0.3492
 9258TIP3    H149189  -0.023   5.792  12.540  0.0846  1.9725 -0.6334
 9258TIP3    H249190   0.025   5.741  12.406  0.0678 -2.2678  0.8436
 9259TIP3   OH249191   3.049   1.003   0.729 -0.0584  0.4898 -0.3060
 9259TIP3    H149192   3.034   0.967   0.642 -0.6415 -0.3177  0.1156
 9259TIP3    H249193   3.106   1.079   0.715  0.0237  0.2379 -1.3596
 9260TIP3   OH249194   1.022   4.924   4.790 -0.1599  0.6557 -0.3825
 9260TIP3    H149195   0.945   4.981   4.797 -2.4219 -2.2824  0.7103
 9260TIP3    H249196   1.013   4.882   4.705  0.1540  0.2111 -0.1993
 9261TIP3   OH249197   2.047   0.686  13.476  0.4582  0.7517 -0.0253
 9261TIP3    H149198   2.047   0.627  13.401  1.0489  0.0512  0.5094
 9261TIP3    H249199   2.124   0.660  13.527 -1.3366 -0.5522  2.1993
 9262TIP3   OH249200   6.188   2.473   1.900  0.0997  0.0380 -0.3874
 9262TIP3    H149201   6.271   2.432   1.922  0.2772 -0.9327 -2.6226
 9262TIP3    H249202   6.158   2.428   1.821 -0.2936  3.3595 -2.3497
 9263TIP3   OH249203   5.666   2.716  12.459 -0.1823  0.9956 -0.3017
 9263TIP3    H149204   5.629   2.770  12.389 -2.2933  1.1491  0.8648
 9263TIP3    H249205   5.655   2.626  12.429  0.5053  1.1007 -0.8969
 9264TIP3   OH249206   5.172   3.288  15.956  0.6332  0.1633  0.2109
 9264TIP3    H149207   5.165   3.205  16.003  2.6864  0.1270  0.5175
 9264TIP3    H249208   5.245   3.333  15.997 -0.6419  2.3202  0.2755
 9265TIP3   OH249209   4.731   5.623  16.373  0.0335  0.0074 -0.8030
 9265TIP3    H149210   4.818   5.649  16.343 -0.3519  1.3813 -0.7560
 9265TIP3    H249211   4.699   5.565  16.304  1.4888 -1.6234 -0.1964
 9266TIP3   OH249212   0.534   0.533   4.164 -0.2139  0.2373  0.4363
 9266TIP3    H149213   0.625   0.503   4.167  0.2215  1.2493 -1.2592
 9266TIP3    H249214   0.482   0.455   4.183  0.9839 -0.3822  1.3553
 9267TIP3   OH249215   4.172   6.266   4.859 -0.1338  0.1340 -0.3673
 9267TIP3    H149216   4.253   6.223   4.885  0.9014  1.0348 -1.9657
 9267TIP3    H249217   4.154   6.329   4.929  1.8076  1.5147 -1.0253
 9268TIP3   OH249218   4.538   4.172   0.800  0.5423 -0.4927 -0.0994
 9268TIP3    H149219   4.599   4.215   0.741 -0.7786  2.1757  0.3284
 9268TIP3    H249220   4.564   4.202   0.887 -1.8522  1.5050  0.0226
 9269TIP3   OH249221   4.419   3.862  13.072  0.1729  0.5799 -0.2382
 9269TIP3    H149222   4.444   3.860  13.165  1.3572  2.4751 -0.4474
 9269TIP3    H249223   4.373   3.780  13.058 -0.1110  0.2675  2.0509
 9270TIP3   OH249224   3.616   3.660  15.361  0.2612 -0.5766 -0.4124
 9270TIP3    H149225   3.548   3.606  15.320 -0.4422 -2.0039  2.3665
 9270TIP3    H249226   3.671   3.597  15.407  1.1925  0.8704  0.5365
 9271TIP3   OH249227   6.326   4.244  12.576  0.0605  0.3521  0.6554
 9271TIP3    H149228   6.290   4.284  12.655  1.3582 -1.0490  2.0150
 9271TIP3    H249229   6.371   4.166  12.607 -0.2674 -0.8115 -1.6029
 9272TIP3   OH249230   1.508   2.059  11.779 -0.4699 -0.7666 -0.4756
 9272TIP3    H149231   1.506   2.101  11.865  0.5865 -1.2422 -0.2020
 9272TIP3    H249232   1.584   2.098  11.735 -0.8158 -0.7592 -1.0675
 9273TIP3   OH249233   3.858   0.944  13.862  0.3564  0.2172 -0.2137
 9273TIP3    H149234   3.832   0.860  13.824 -2.8951  0.6854  0.6706
 9273TIP3    H249235   3.870   1.001  13.786 -0.2959 -0.3304 -0.7510
 9274TIP3   OH249236   0.730   5.949   1.590  0.0516  0.1372 -0.3351
 9274TIP3    H149237   0.698   5.962   1.680 -0.5964 -0.1929 -0.5144
 9274TIP3    H249238   0.750   6.037   1.559 -0.2886  0.3135 -0.0697
 9275TIP3   OH249239   2.367   1.113   4.683 -0.1842  0.6318  0.1222
 9275TIP3    H149240   2.285   1.162   4.670 -0.0440  1.3424  1.6277
 9275TIP3    H249241   2.435   1.180   4.683  0.2749  0.1667 -0.0806
 9276TIP3   OH249242   2.837   1.143  12.339 -0.1928  0.0142 -0.3701
 9276TIP3    H149243   2.908   1.198  12.374 -0.8248  0.7846 -0.2720
 9276TIP3    H249244   2.800   1.195  12.268  0.2865 -1.0250 -1.4048
 9277TIP3   OH249245   0.987   0.531  11.669 -0.1646  0.4175  0.2027
 9277TIP3    H149246   0.948   0.507  11.753 -0.0625  1.8546  0.6820
 9277TIP3    H249247   0.932   0.602  11.637 -0.4599 -0.3988 -1.1746
 9278TIP3   OH249248   3.315   0.571  11.113  0.1071  0.0456 -0.0575
 9278TIP3    H149249   3.375   0.602  11.044 -0.5450 -0.4213 -0.8609
 9278TIP3    H249250   3.228   0.587  11.077 -0.2703  1.0982  1.2708
 9279TIP3   OH249251   1.953   2.584   5.523 -0.3401  0.7897  0.4351
 9279TIP3    H149252   1.926   2.652   5.584  0.4091  1.5144 -0.0118
 9279TIP3    H249253   1.946   2.624   5.436 -1.1171 -0.1290  0.0530
 9280TIP3   OH249254   2.531   2.938   6.457  0.0807  0.2147 -0.5949
 9280TIP3    H149255   2.523   2.900   6.544  0.2665 -3.3128 -1.9524
 9280TIP3    H249256   2.625   2.936   6.438 -0.1220 -1.2239 -1.6545
 9281TIP3   OH249257   2.463   3.293  13.448 -0.4753 -0.8642 -0.1608
 9281TIP3    H149258   2.410   3.289  13.368  1.0096 -0.1895 -1.2232
 9281TIP3    H249259   2.459   3.204  13.483 -1.6950 -1.0065 -0.5980
 9282TIP3   OH249260   0.255   1.350  13.694 -0.2511 -0.0754  0.3730
 9282TIP3    H149261   0.300   1.380  13.773 -1.9211  1.1942  0.8854
 9282TIP3    H249262   0.255   1.425  13.635  1.8753 -1.2844 -1.3603
 9283TIP3   OH249263   5.252   3.606  15.589  0.1406 -0.3313  0.1815
 9283TIP3    H149264   5.166   3.571  15.615  0.6260  0.0078  2.4037
 9283TIP3    H249265   5.315   3.553  15.638  1.1657  0.2102 -0.5172
 9284TIP3   OH249266   2.340   0.847  11.073 -0.0423 -1.0064 -0.4007
 9284TIP3    H149267   2.348   0.765  11.024 -1.2324 -0.9178 -0.7865
 9284TIP3    H249268   2.409   0.903  11.037  0.8983 -1.8912 -0.0060
 9285TIP3   OH249269   5.235   0.743   2.786 -0.3026  0.1538 -0.0123
 9285TIP3    H149270   5.308   0.806   2.789  0.3453 -0.4178 -1.8311
 9285TIP3    H249271   5.275   0.659   2.810 -0.7037  0.0774  0.4034
 9286TIP3   OH249272   2.779   6.551   4.310  0.3532  0.0918 -0.6281
 9286TIP3    H149273   2.751   6.632   4.266  0.2358  0.7582  0.6005
 9286TIP3    H249274   2.750   6.481   4.253 -2.9265  0.7676  0.0027
 9287TIP3   OH249275   3.770   6.758  15.658  0.2172  0.1278 -0.5225
 9287TIP3    H149276   3.729   6.675  15.684  0.7811  0.0273  0.0925
 9287TIP3    H249277   3.857   6.755  15.699 -0.4158  1.8450  1.0996
 9288TIP3   OH249278   6.447   3.666   2.967 -0.6475 -0.1303 -0.2738
 9288TIP3    H149279   6.450   3.662   3.062 -2.4334 -0.7614 -0.2057
 9288TIP3    H249280   6.361   3.629   2.944 -1.0491  1.7025 -2.0176
 9289TIP3   OH249281   5.657   3.273  12.009  0.4312  0.7497 -0.0422
 9289TIP3    H149282   5.667   3.256  12.103  0.8415 -1.1121 -0.4024
 9289TIP3    H249283   5.745   3.263  11.973  0.3107  1.6334 -0.6201
 9290TIP3   OH249284   5.117   3.336   5.977  0.1676 -0.0827  0.1163
 9290TIP3    H149285   5.129   3.248   5.942 -0.0831  0.0738 -0.3579
 9290TIP3    H249286   5.205   3.376   5.973  0.2938 -0.3246  0.3882
 9291TIP3   OH249287   0.360   2.769  11.552  0.1447 -0.4962  0.6143
 9291TIP3    H149288   0.344   2.724  11.470 -2.7613 -0.0363  0.8220
 9291TIP3    H249289   0.396   2.854  11.526 -2.5767  0.4549 -0.4498
 9292TIP3   OH249290   1.152   2.272   2.219  0.3841 -0.2294 -0.8347
 9292TIP3    H149291   1.090   2.296   2.151 -0.8740  0.2947  0.4521
 9292TIP3    H249292   1.106   2.289   2.301  1.4808 -1.8023  0.1644
 9293TIP3   OH249293   6.104   1.990  14.157 -0.3384 -0.0501 -0.2427
 9293TIP3    H149294   6.080   1.901  14.131  0.5649 -0.6853  1.0328
 9293TIP3    H249295   6.093   1.992  14.252 -0.0897  1.1223 -0.2173
 9294TIP3   OH249296   5.041   0.772   4.006 -0.1153  0.1388 -0.5328
 9294TIP3    H149297   5.029   0.750   3.913  1.3729 -0.3143 -0.6526
 9294TIP3    H249298   5.003   0.697   4.053  0.7393 -0.4993 -0.8334
 9295TIP3   OH249299   0.427   5.983  12.147 -0.2268 -0.2170  0.5684
 9295TIP3    H149300   0.381   5.922  12.204 -0.5779  1.3305  2.0257
 9295TIP3    H249301   0.512   5.943  12.132 -0.1835 -0.7575  2.0769
 9296TIP3   OH249302   1.805   1.785   0.907 -0.6723  0.3339  0.3475
 9296TIP3    H149303   1.808   1.764   1.000 -0.5466  2.5948  0.9066
 9296TIP3    H249304   1.711   1.797   0.889 -0.8293 -1.4663 -0.1893
 9297TIP3   OH249305   2.340   3.340   4.268  0.2769 -0.1216  0.1857
 9297TIP3    H149306   2.348   3.426   4.309  0.5408  0.7121 -1.5308
 9297TIP3    H249307   2.247   3.319   4.274  0.2699  0.1024  0.9483
 9298TIP3   OH249308   1.130   3.905   2.782  0.2757 -0.0491  0.1710
 9298TIP3    H149309   1.135   4.000   2.791  2.3228 -0.2175  1.4217
 9298TIP3    H249310   1.068   3.877   2.850 -0.6938  0.3900 -0.5082
 9299TIP3   OH249311   4.802   5.562  17.053 -0.2206  0.3926  0.1726
 9299TIP3    H149312   4.761   5.603  16.976 -0.2453 -2.1789 -1.2792
 9299TIP3    H249313   4.731   5.555  17.117 -0.7260  0.6699 -0.3405
 9300TIP3   OH249314   6.233   3.181  11.525 -0.2082  0.2724  0.5345
 9300TIP3    H149315   6.239   3.180  11.429 -0.0113  3.6398  0.4046
 9300TIP3    H249316   6.140   3.167  11.544 -0.1382 -1.1847 -0.0461
 9301TIP3   OH249317   4.922   3.462  13.651 -0.2950 -0.3146  0.0303
 9301TIP3    H149318   4.971   3.386  13.683  0.9929  0.4827  0.0264
 9301TIP3    H249319   4.934   3.460  13.556  0.8241  0.5780  0.1305
 9302TIP3   OH249320   4.738   0.596  14.782 -0.4250 -0.2221  0.0707
 9302TIP3    H149321   4.717   0.614  14.690  0.0156  2.6596  0.4538
 9302TIP3    H249322   4.659   0.555  14.817 -1.8532  1.5744 -0.8589
 9303TIP3   OH249323   2.940   0.091   2.287  0.5538 -0.0897  0.3295
 9303TIP3    H149324   2.896   0.119   2.207  0.8036  0.5417  0.3991
 9303TIP3    H249325   3.019   0.046   2.257  0.5672  0.0094  0.2154
 9304TIP3   OH249326   4.792   4.142   5.373  0.0506 -0.5418 -0.0608
 9304TIP3    H149327   4.832   4.185   5.297  0.7320 -0.8034  0.1463
 9304TIP3    H249328   4.846   4.065   5.389 -1.5984 -1.9626 -0.9054
 9305TIP3   OH249329   6.512   0.491  14.007 -0.0284 -0.2120 -0.7949
 9305TIP3    H149330   6.542   0.444  14.084 -0.5033  1.2777  0.3552
 9305TIP3    H249331   6.592   0.528  13.969  0.0441  0.6219  0.1068
 9306TIP3   OH249332   2.191   5.574  14.976 -0.2096  0.5934  0.1212
 9306TIP3    H149333   2.274   5.534  15.004 -0.7178 -0.4069  0.2336
 9306TIP3    H249334   2.185   5.653  15.029  1.1041  1.1703 -0.5340
 9307TIP3   OH249335   3.340   3.956  12.862 -0.3067 -0.1182 -0.0010
 9307TIP3    H149336   3.329   4.037  12.913  1.0779  0.1876 -0.1312
 9307TIP3    H249337   3.416   3.913  12.902  0.2370 -0.3258 -1.2142
 9308TIP3   OH249338   2.965   2.977  14.092  0.4688 -0.2228  0.1500
 9308TIP3    H149339   2.897   3.044  14.093  0.8213  0.2914 -2.3877
 9308TIP3    H249340   3.024   3.004  14.021  2.0888 -1.8218  0.8081
 9309TIP3   OH249341   4.675   4.235  13.844  0.5214 -0.1270 -0.2523
 9309TIP3    H149342   4.674   4.304  13.911  0.4404 -1.6273  1.3832
 9309TIP3    H249343   4.756   4.250  13.796  1.7132 -0.2693  1.6262
 9310TIP3   OH249344   0.445   4.829   5.307 -0.0517 -0.1144 -0.4181
 9310TIP3    H149345   0.522   4.774   5.320 -0.1991 -0.2451 -0.1066
 9310TIP3    H249346   0.479   4.918   5.305 -0.0475 -0.0694  1.0377
 9311TIP3   OH249347   4.162   6.459  11.415 -0.5276 -0.0440  0.3190
 9311TIP3    H149348   4.129   6.413  11.492  3.0568 -0.7044  1.6824
 9311TIP3    H249349   4.182   6.389  11.353  2.0131 -0.2204  1.1913
 9312TIP3   OH249350   0.508   5.639   3.839  0.1668 -0.0426  0.2866
 9312TIP3    H149351   0.573   5.708   3.829  0.4087 -0.1918  0.8044
 9312TIP3    H249352   0.534   5.592   3.918 -1.2794  0.6643  1.2223
 9313TIP3   OH249353   5.938   0.203  12.483  0.0976 -0.0996 -0.3076
 9313TIP3    H149354   6.000   0.240  12.420 -0.7492  1.4905 -0.2572
 9313TIP3    H249355   5.852   0.230  12.451 -0.6586 -2.6897 -0.6538
 9314TIP3   OH249356   5.271   2.464   0.026 -0.3845 -0.7044 -0.0431
 9314TIP3    H149357   5.309   2.461  -0.061 -3.5820  3.3110 -1.9062
 9314TIP3    H249358   5.208   2.391   0.028 -1.8368  0.4080 -2.0785
 9315TIP3   OH249359   6.762   2.657  10.628  0.3554 -0.1462 -0.4849
 9315TIP3    H149360   6.696   2.693  10.687  0.4553 -0.1810 -0.3513
 9315TIP3    H249361   6.715   2.591  10.577  0.4362 -0.6386  0.0652
 9316TIP3   OH249362   3.662   2.435   3.469 -0.1115  0.1006  0.0977
 9316TIP3    H149363   3.587   2.461   3.523 -1.4164 -0.1664 -1.4986
 9316TIP3    H249364   3.627   2.367   3.411  1.9952 -1.7962  0.9117
 9317TIP3   OH249365   0.713   1.403   4.706 -0.0906  0.0803  0.3857
 9317TIP3    H149366   0.690   1.437   4.792 -5.3008  2.3673 -1.4940
 9317TIP3    H249367   0.765   1.472   4.665  0.9328 -0.2840  1.0245
 9318TIP3   OH249368   4.386   6.480   2.297 -0.1204 -0.4248 -0.1145
 9318TIP3    H149369   4.334   6.407   2.330 -0.6965  0.4064  0.8883
 9318TIP3    H249370   4.395   6.539   2.372  2.1269 -0.4471 -0.2987
 9319TIP3   OH249371   4.462   3.682  11.419  0.5908 -0.3224 -0.3838
 9319TIP3    H149372   4.421   3.727  11.493  1.7884  0.2731 -0.0712
 9319TIP3    H249373   4.430   3.729  11.342 -0.7288 -0.9966 -0.2782
 9320TIP3   OH249374   0.172   6.025  16.021 -0.3670 -0.4237 -0.0967
 9320TIP3    H149375   0.144   6.065  16.104  0.2113 -1.9951  0.8912
 9320TIP3    H249376   0.127   5.941  16.018  0.3832 -0.8095 -0.9016
 9321TIP3   OH249377   3.258   2.025   4.552  0.6606 -0.2388 -0.4654
 9321TIP3    H149378   3.238   2.080   4.628  0.4665 -2.7902  1.4454
 9321TIP3    H249379   3.173   2.005   4.514  0.5271 -1.1599  0.3000
 9322TIP3   OH249380   5.725   2.015  13.373  0.3283  0.1174  0.0191
 9322TIP3    H149381   5.700   2.098  13.413 -2.1462 -0.3826 -0.2849
 9322TIP3    H249382   5.794   1.980  13.429  1.8447  2.5735 -0.1634
 9323TIP3   OH249383   4.031   5.092   2.698 -0.3563 -0.8539  0.2502
 9323TIP3    H149384   3.942   5.064   2.718 -0.4526 -1.3005 -0.7786
 9323TIP3    H249385   4.070   5.111   2.784 -1.5419 -0.3132  0.6816
 9324TIP3   OH249386   2.006   0.228   5.534  0.8906  0.6601  0.2158
 9324TIP3    H149387   2.001   0.265   5.446 -0.3490  0.4521  0.1795
 9324TIP3    H249388   2.052   0.145   5.523  0.9629  0.7541 -0.1954
 9325TIP3   OH249389   1.567   2.538  11.973 -0.1758  0.2868 -0.6210
 9325TIP3    H149390   1.474   2.521  11.987 -1.1151  5.1728  0.7097
 9325TIP3    H249391   1.603   2.552  12.061  2.2686 -2.5815 -0.9853
 9326TIP3   OH249392   2.663   0.814   5.255 -0.3474  0.1152  0.1350
 9326TIP3    H149393   2.707   0.895   5.282 -0.2994 -0.4771  1.9817
 9326TIP3    H249394   2.649   0.766   5.337 -0.8969 -1.4920 -0.8558
 9327TIP3   OH249395   3.873   1.960  12.294 -0.1767  0.2625 -0.0307
 9327TIP3    H149396   3.955   1.913  12.276 -0.5597 -0.4949  0.1679
 9327TIP3    H249397   3.900   2.051  12.304  0.3931  0.3116 -1.8029
 9328TIP3   OH249398   2.252   2.444  12.776 -0.1690 -0.1106 -0.4126
 9328TIP3    H149399   2.347   2.436  12.765  0.1273  1.1403  0.8539
 9328TIP3    H249400   2.241   2.477  12.866 -1.7474  0.5765 -0.8120
 9329TIP3   OH249401   0.221   2.805   0.828  0.0299 -0.2079  0.1904
 9329TIP3    H149402   0.246   2.834   0.916 -0.4487  2.0759 -0.3477
 9329TIP3    H249403   0.126   2.821   0.824  0.3683  1.8875 -1.4096
 9330TIP3   OH249404   6.787   0.110   4.047  0.2679 -0.1264  0.0660
 9330TIP3    H149405   6.739   0.044   4.097 -1.9746  1.3606  0.0310
 9330TIP3    H249406   6.842   0.153   4.113 -0.7232  0.1009  0.7846
 9331TIP3   OH249407   1.812   5.251   1.865 -0.0102 -0.4213 -0.2489
 9331TIP3    H149408   1.784   5.228   1.954 -0.8516 -0.9424 -0.6296
 9331TIP3    H249409   1.814   5.346   1.864  0.1050 -0.4152  0.3564
 9332TIP3   OH249410   1.541   6.106  10.851  0.4380  0.0187 -0.2191
 9332TIP3    H149411   1.466   6.052  10.873 -0.9775  2.3117  0.9485
 9332TIP3    H249412   1.557   6.089  10.758  0.0245 -2.2692  0.0815
 9333TIP3   OH249413   1.833   0.601   3.416 -0.0571  0.7687  0.4854
 9333TIP3    H149414   1.780   0.584   3.495 -0.8266  1.6502  0.1719
 9333TIP3    H249415   1.836   0.696   3.409  0.3868  0.7025 -0.3037
 9334TIP3   OH249416   5.773   1.580  12.827 -0.1862  0.1362 -0.2921
 9334TIP3    H149417   5.708   1.558  12.761  1.3906  2.9439 -3.0223
 9334TIP3    H249418   5.801   1.495  12.862 -0.4538 -1.6227 -3.9148
 9335TIP3   OH249419   3.674   3.387   0.560 -0.9625  0.4468  0.0851
 9335TIP3    H149420   3.703   3.478   0.551  1.6073 -0.4388 -1.5411
 9335TIP3    H249421   3.651   3.361   0.471  1.0419 -1.2984  0.0317
 9336TIP3   OH249422   5.491   4.283   5.437 -0.0452  0.9109  0.1832
 9336TIP3    H149423   5.575   4.329   5.428 -0.9771  2.9876  1.4657
 9336TIP3    H249424   5.515   4.197   5.473  1.5307  1.4437  0.4769
 9337TIP3   OH249425   2.844   0.848   5.534  0.2533 -0.2798  0.2445
 9337TIP3    H149426   2.922   0.866   5.481 -1.3946  1.3758 -1.8271
 9337TIP3    H249427   2.834   0.925   5.590  1.0106 -1.2608  1.7938
 9338TIP3   OH249428   6.336   6.001  14.240  0.4332  0.0793  0.2247
 9338TIP3    H149429   6.366   5.915  14.214 -0.0222 -0.2240  0.6748
 9338TIP3    H249430   6.377   6.017  14.325  1.0754  0.6116 -0.1736
 9339TIP3   OH249431   0.441   1.332   5.846  0.4253 -0.1375 -0.1484
 9339TIP3    H149432   0.464   1.305   5.935 -0.5425  0.8041  0.4172
 9339TIP3    H249433   0.363   1.387   5.857  0.9869  0.9792 -1.4511
 9340TIP3   OH249434   5.105   5.001   2.031 -0.2197  0.2430  0.2585
 9340TIP3    H149435   5.034   5.065   2.020  0.8021  1.8294  2.3154
 9340TIP3    H249436   5.179   5.038   1.984 -0.0171 -0.0980  0.3052
 9341TIP3   OH249437   1.572   5.308  12.486  0.5141  0.5673  0.5274
 9341TIP3    H149438   1.626   5.229  12.486  0.5388  0.5532  2.1977
 9341TIP3    H249439   1.489   5.282  12.525 -0.6274  0.6935 -1.6322
 9342TIP3   OH249440   6.712   4.807   0.252 -0.2482  0.0007  0.3967
 9342TIP3    H149441   6.627   4.839   0.223 -0.0388 -0.5042 -0.8783
 9342TIP3    H249442   6.775   4.868   0.212 -0.0105  0.8818  2.0245
 9343TIP3   OH249443   2.405   2.665   2.336  0.4633 -0.3680  0.0217
 9343TIP3    H149444   2.330   2.693   2.283  0.9511  0.4033 -0.2920
 9343TIP3    H249445   2.383   2.691   2.425  1.0866  1.5067 -0.3208
 9344TIP3   OH249446   3.244   1.158  12.636  0.0174  0.2294 -0.6295
 9344TIP3    H149447   3.159   1.194  12.664  0.3758  1.7954 -1.4070
 9344TIP3    H249448   3.300   1.165  12.713 -0.7861 -1.7218  0.1866
 9345TIP3   OH249449   3.090   4.373  16.380  0.2229 -0.4602  0.3636
 9345TIP3    H149450   3.047   4.395  16.297  1.4754 -0.2187 -0.2420
 9345TIP3    H249451   3.165   4.432  16.385  0.2484 -0.5692  1.6160
 9346TIP3   OH249452   2.680   0.718   6.429 -0.2979 -0.2289  0.1581
 9346TIP3    H149453   2.658   0.661   6.355 -0.5162  0.3070 -0.2003
 9346TIP3    H249454   2.608   0.780   6.433  1.7735  2.6712 -2.1278
 9347TIP3   OH249455   3.161   1.445   1.738 -0.5607  0.5434  0.7877
 9347TIP3    H149456   3.166   1.538   1.761  0.1972  0.8070 -0.3672
 9347TIP3    H249457   3.195   1.440   1.649  1.7346 -1.1491  1.6310
 9348TIP3   OH249458   5.433   3.589   1.577  0.7998  0.5481  0.0107
 9348TIP3    H149459   5.339   3.602   1.578  0.9587  1.7756  1.2331
 9348TIP3    H249460   5.448   3.526   1.506 -1.1141 -1.2403  1.0866
 9349TIP3   OH249461   1.178   0.681  17.040 -0.6646  0.5963 -0.2871
 9349TIP3    H149462   1.218   0.619  16.978 -1.3639 -0.9928  0.7797
 9349TIP3    H249463   1.094   0.641  17.063 -1.6304  2.4798 -0.3309
 9350TIP3   OH249464   2.862   0.445   1.330  0.2137 -0.2700  0.1383
 9350TIP3    H149465   2.867   0.539   1.344 -2.6162 -0.2361  1.6970
 9350TIP3    H249466   2.936   0.409   1.379  2.5199  1.1347 -2.0628
 9351TIP3   OH249467   4.268   1.645  14.752  0.4953  0.0753 -0.4278
 9351TIP3    H149468   4.232   1.589  14.821  0.6863 -4.6555 -3.7437
 9351TIP3    H249469   4.192   1.684  14.710 -0.0075 -1.1880 -0.7134
 9352TIP3   OH249470   0.671   6.706  15.926 -0.0232 -0.2356 -0.3310
 9352TIP3    H149471   0.646   6.690  15.835  2.4703  0.8442 -1.2898
 9352TIP3    H249472   0.662   6.801  15.937  0.1361 -0.2966  0.4063
 9353TIP3   OH249473   2.349   0.535  15.098  0.1750  0.7501  0.0771
 9353TIP3    H149474   2.347   0.590  15.177  1.1645  0.2136  0.4995
 9353TIP3    H249475   2.362   0.446  15.132 -3.1810 -0.0790 -0.4591
 9354TIP3   OH249476   2.344   4.069   2.358  0.2979 -0.0209 -0.0312
 9354TIP3    H149477   2.313   3.979   2.368  0.0953  0.1163  0.6007
 9354TIP3    H249478   2.437   4.059   2.336  0.5965 -0.3619  1.3068
 9355TIP3   OH249479   3.833   1.738   5.274 -0.7210 -0.6574 -0.5827
 9355TIP3    H149480   3.822   1.661   5.329 -0.3042 -0.1878  0.1654
 9355TIP3    H249481   3.766   1.728   5.206 -0.1398 -2.0833 -0.9764
 9356TIP3   OH249482   4.906   3.867  11.544  0.1944  0.1352  0.3637
 9356TIP3    H149483   4.826   3.844  11.497  0.7947  0.4163 -0.8106
 9356TIP3    H249484   4.955   3.922  11.484  0.7902  0.8745  1.4844
 9357TIP3   OH249485   3.706   5.847   1.989 -0.0564  0.3575  0.3747
 9357TIP3    H149486   3.789   5.821   2.029  0.0022  0.1921  0.1446
 9357TIP3    H249487   3.653   5.876   2.063 -0.0532 -0.2231  0.6097
 9358TIP3   OH249488   5.072   6.655   2.777 -0.1716 -0.1690 -0.0165
 9358TIP3    H149489   5.081   6.746   2.807 -0.1609  0.6959 -2.4529
 9358TIP3    H249490   4.994   6.622   2.822 -0.3579  1.1467  0.6603
 9359TIP3   OH249491   1.522   1.971  11.152  0.3639  0.4552  0.1168
 9359TIP3    H149492   1.521   2.063  11.128  1.7764  0.5248  0.2355
 9359TIP3    H249493   1.460   1.929  11.092  0.0397  1.3987 -0.2179
 9360TIP3   OH249494   5.970   2.171  12.375 -0.4620  0.1822 -0.4779
 9360TIP3    H149495   5.878   2.148  12.388  0.2937 -3.0578  0.0450
 9360TIP3    H249496   5.992   2.226  12.450 -1.5807 -0.4284  0.3227
 9361TIP3   OH249497   5.719   0.518  16.459  0.6162  0.4877 -0.3499
 9361TIP3    H149498   5.646   0.556  16.410  0.8924  0.6962 -0.6047
 9361TIP3    H249499   5.681   0.442  16.503  0.4298  0.1221 -1.1255
 9362TIP3   OH249500   0.285   5.815  12.631 -0.5397  0.3403 -0.1552
 9362TIP3    H149501   0.199   5.790  12.596 -2.0256  1.8430  2.1470
 9362TIP3    H249502   0.302   5.750  12.699  0.1520  0.0660 -0.5852
 9363TIP3   OH249503   6.060   6.180   0.676 -0.4935  0.6552  0.0144
 9363TIP3    H149504   6.072   6.261   0.727 -1.7945  1.4226 -0.8621
 9363TIP3    H249505   6.105   6.198   0.593 -0.5453  0.3589 -0.0768
 9364TIP3   OH249506   4.903   0.073  11.109  0.1158  0.3190  0.4303
 9364TIP3    H149507   4.845   0.015  11.159  1.8900 -1.0498  1.0015
 9364TIP3    H249508   4.880   0.161  11.138 -1.1584 -0.2234  1.1655
 9365TIP3   OH249509   1.209   2.079  11.034  0.2832  0.2317  0.4252
 9365TIP3    H149510   1.149   2.130  10.980  1.9602  1.5755 -0.2720
 9365TIP3    H249511   1.296   2.103  11.002  1.2045 -1.8391  1.2036
 9366TIP3   OH249512   4.896   4.065   4.129 -0.3865  0.0252 -0.0310
 9366TIP3    H149513   4.891   4.136   4.193 -0.5793 -1.6355  1.9014
 9366TIP3    H249514   4.968   4.009   4.160 -1.2980 -1.4984 -0.5187
 9367TIP3   OH249515   6.820   5.959   1.933  0.1143 -0.0373 -0.0295
 9367TIP3    H149516   6.740   5.958   1.880 -0.1112  0.0722  0.3076
 9367TIP3    H249517   6.824   5.871   1.970 -0.0265  0.0606  0.2178
 9368TIP3   OH249518   1.045   2.784  16.042  0.2730  0.0451 -0.0130
 9368TIP3    H149519   0.997   2.755  16.119  2.3796  0.6926  1.6645
 9368TIP3    H249520   1.063   2.703  15.994 -1.5792 -0.3032 -0.1916
 9369TIP3   OH249521   6.168   6.491   5.282 -0.4905  0.0833 -0.6238
 9369TIP3    H149522   6.157   6.401   5.250 -0.4660  1.0965 -3.8713
 9369TIP3    H249523   6.080   6.530   5.275 -0.2316  0.6931 -0.5487
 9370TIP3   OH249524   3.214   5.658  15.926  0.3287  0.2682  0.5003
 9370TIP3    H149525   3.256   5.572  15.925  1.5487  0.7569  2.6321
 9370TIP3    H249526   3.169   5.662  16.011 -1.9093  0.7991 -0.6288
 9371TIP3   OH249527   2.939   3.014   4.484  0.7008 -0.0512 -0.0150
 9371TIP3    H149528   2.874   3.077   4.514 -1.2380 -0.2258 -3.3297
 9371TIP3    H249529   2.930   2.939   4.544 -1.1879  0.5040  0.4471
 9372TIP3   OH249530   3.804   2.940  14.611 -0.0860  0.0557 -0.0706
 9372TIP3    H149531   3.753   2.896  14.544 -1.0552  0.9865  0.0216
 9372TIP3    H249532   3.890   2.898  14.608 -0.4961 -0.7459 -1.0399
 9373TIP3   OH249533   5.314   1.814  15.029  0.4740  0.0614  0.5631
 9373TIP3    H149534   5.251   1.874  15.068 -0.0683  0.1579 -0.4290
 9373TIP3    H249535   5.344   1.858  14.949  0.5847 -0.6844  0.1834
 9374TIP3   OH249536   4.417   2.390  14.789 -0.1733  0.3882  0.2019
 9374TIP3    H149537   4.437   2.442  14.711  1.2288  1.3366  1.1418
 9374TIP3    H249538   4.439   2.300  14.765 -0.6662  0.5262 -0.7909
 9375TIP3   OH249539   4.887   1.326  11.700  0.4203 -0.4768  0.0842
 9375TIP3    H149540   4.970   1.355  11.663  0.0840  0.8355  0.3180
 9375TIP3    H249541   4.910   1.280  11.780  1.2611 -4.2629 -2.0783
 9376TIP3   OH249542   3.319   1.192   1.359 -0.7654 -0.1477  0.1518
 9376TIP3    H149543   3.333   1.260   1.425  1.1082  0.4421 -0.7723
 9376TIP3    H249544   3.255   1.230   1.298  0.1227  0.7531 -0.2526
 9377TIP3   OH249545   2.432   0.597  16.277 -0.2911  0.1274 -0.2038
 9377TIP3    H149546   2.524   0.601  16.304 -0.4834  3.1809  0.3244
 9377TIP3    H249547   2.430   0.529  16.210  2.0894 -0.8768  0.6243
 9378TIP3   OH249548   3.268   4.652  12.973  0.5753 -0.1161 -0.2871
 9378TIP3    H149549   3.174   4.664  12.959  0.5097 -0.0900  0.1621
 9378TIP3    H249550   3.275   4.629  13.066  0.8798 -1.4997 -0.6304
 9379TIP3   OH249551   1.692   4.883   0.957  0.0762  0.0016  0.2015
 9379TIP3    H149552   1.727   4.797   0.981 -3.1907 -1.7477 -0.6680
 9379TIP3    H249553   1.757   4.919   0.897  0.8687 -2.5980 -0.6456
 9380TIP3   OH249554   1.733   2.605   1.256 -0.1873  0.5761 -0.5118
 9380TIP3    H149555   1.762   2.514   1.258 -0.0912  0.5644  3.2022
 9380TIP3    H249556   1.813   2.655   1.238  0.3883  0.0610  0.5417
 9381TIP3   OH249557   0.286   0.692   2.711  0.3142 -0.5362  0.2189
 9381TIP3    H149558   0.231   0.754   2.759 -1.1098 -1.7457  0.2195
 9381TIP3    H249559   0.376   0.713   2.738 -0.2327  0.7009  1.1495
 9382TIP3   OH249560   5.098   3.650  11.767 -0.0540 -0.1370 -0.7207
 9382TIP3    H149561   5.129   3.601  11.691 -0.1985  1.1467 -1.6421
 9382TIP3    H249562   5.172   3.707  11.790 -0.0026 -0.5317  0.1233
 9383TIP3   OH249563   6.386   5.559  14.654 -0.6575 -0.5197 -0.1482
 9383TIP3    H149564   6.430   5.482  14.620  0.2310 -0.1670  0.1743
 9383TIP3    H249565   6.374   5.616  14.578  1.3184  0.2685  0.0766
 9384TIP3   OH249566   2.493   2.361   0.127 -0.3965 -0.4163  0.1447
 9384TIP3    H149567   2.567   2.311   0.162  0.3696 -1.4009 -2.6640
 9384TIP3    H249568   2.510   2.369   0.034 -2.7149  1.3689 -0.2392
 9385TIP3   OH249569   5.299   3.700  11.083  0.8654 -0.4487  0.2662
 9385TIP3    H149570   5.270   3.781  11.041 -0.8246 -0.8992  0.4736
 9385TIP3    H249571   5.277   3.631  11.020  0.5863 -0.9055  0.8532
 9386TIP3   OH249572   3.341   5.062  11.277 -0.2711 -0.3236  0.6066
 9386TIP3    H149573   3.274   5.041  11.343  0.3265 -0.6596  1.1161
 9386TIP3    H249574   3.310   5.144  11.238 -0.1616  0.4150  1.9782
 9387TIP3   OH249575   6.523   6.674  12.298  0.0642 -0.0753  0.2051
 9387TIP3    H149576   6.512   6.760  12.339  2.1166  0.1963  0.2640
 9387TIP3    H249577   6.435   6.637  12.299 -1.1135  2.4141 -0.7547
 9388TIP3   OH249578   5.445   5.867  16.009 -0.3296  0.0340 -0.3908
 9388TIP3    H149579   5.524   5.882  16.060 -0.1423  0.9191 -0.9094
 9388TIP3    H249580   5.458   5.782  15.967  0.5315  0.3551 -0.7892
 9389TIP3   OH249581   4.858   4.582   4.942  0.3747  0.4675  0.3463
 9389TIP3    H149582   4.817   4.531   5.011 -0.9491  1.1734  0.1295
 9389TIP3    H249583   4.952   4.567   4.952  0.1224 -0.4373  1.4873
 9390TIP3   OH249584   2.002   6.434  16.111  0.3117 -0.4659  0.2621
 9390TIP3    H149585   2.068   6.452  16.178 -1.2664 -0.6917  1.9567
 9390TIP3    H249586   1.976   6.344  16.128  1.5516 -1.3848 -2.2319
 9391TIP3   OH249587   6.486   6.637   0.053 -0.3123  0.3067 -0.4635
 9391TIP3    H149588   6.502   6.688  -0.027  1.0752 -1.0046 -1.0648
 9391TIP3    H249589   6.416   6.577   0.028  0.2152 -0.1970 -0.7605
 9392TIP3   OH249590   0.752   3.616  15.735 -0.3756 -0.0225  0.7707
 9392TIP3    H149591   0.708   3.673  15.798 -1.1114  0.8601 -0.4966
 9392TIP3    H249592   0.837   3.596  15.775 -0.8478  0.4565  2.0477
 9393TIP3   OH249593   1.360   3.850   0.012  0.4905 -0.4617 -0.8557
 9393TIP3    H149594   1.455   3.841   0.018  0.4615 -0.9539 -1.0641
 9393TIP3    H249595   1.334   3.782  -0.050  0.0696  0.0803 -1.2946
 9394TIP3   OH249596   0.398   2.359   1.142 -0.5060 -0.4647 -0.3166
 9394TIP3    H149597   0.395   2.409   1.223 -1.6554 -3.0470  1.3830
 9394TIP3    H249598   0.491   2.353   1.120 -0.1939  0.4847  0.6727
 9395TIP3   OH249599   2.051   5.220   0.764 -0.1127  0.1606 -0.1963
 9395TIP3    H149600   2.129   5.169   0.787 -0.4516 -0.7905 -1.0670
 9395TIP3    H249601   2.008   5.168   0.696  0.5525  2.5000 -2.5865
 9396TIP3   OH249602   0.941   5.575  14.180 -0.0827  0.0161 -0.4982
 9396TIP3    H149603   0.893   5.581  14.262  1.0930  1.4138  0.1378
 9396TIP3    H249604   0.875   5.554  14.114 -1.3056  0.4477  0.5572
 9397TIP3   OH249605   6.397   1.770   4.604  0.3468 -0.2510  0.1323
 9397TIP3    H149606   6.447   1.689   4.597  1.1328  0.1936  0.4603
 9397TIP3    H249607   6.462   1.836   4.629 -0.6052  0.1210  1.7661
 9398TIP3   OH249608   0.212   2.245   1.645 -0.2182  0.4846  0.5575
 9398TIP3    H149609   0.283   2.244   1.581  1.1580  2.0083  1.9739
 9398TIP3    H249610   0.134   2.224   1.594  1.0811 -0.1566 -1.2554
 9399TIP3   OH249611   3.661   0.206  15.168 -0.9082  0.0750  0.6692
 9399TIP3    H149612   3.572   0.192  15.134 -0.0387 -0.1077 -1.7005
 9399TIP3    H249613   3.667   0.147  15.243 -1.3270 -3.5132 -1.8663
 9400TIP3   OH249614   1.193   2.452   0.178  0.4626  0.4601  0.1549
 9400TIP3    H149615   1.162   2.381   0.234 -0.1733  0.4541 -0.1921
 9400TIP3    H249616   1.151   2.530   0.213  1.6470  0.7822  0.9220
 9401TIP3   OH249617   5.769   2.811  14.930 -0.0545 -0.3555 -0.0276
 9401TIP3    H149618   5.830   2.803  14.857 -0.6821 -0.1967 -0.5863
 9401TIP3    H249619   5.691   2.852  14.891  0.2808  1.5191  1.1057
 9402TIP3   OH249620   6.564   6.773  15.018 -0.3146 -0.5476  0.0565
 9402TIP3    H149621   6.573   6.841  15.085 -0.0377 -1.5800  1.0977
 9402TIP3    H249622   6.496   6.806  14.960 -0.3345  0.5201  0.6531
 9403TIP3   OH249623   5.664   0.217   1.331 -0.3900 -0.8406  0.5044
 9403TIP3    H149624   5.686   0.300   1.374 -2.9485  0.1429  0.0758
 9403TIP3    H249625   5.641   0.158   1.403  0.1911 -0.8017  0.7326
 9404TIP3   OH249626   0.659   1.340   3.408  0.1196  0.5739 -0.3573
 9404TIP3    H149627   0.699   1.257   3.434 -1.0911 -0.1734 -0.7765
 9404TIP3    H249628   0.727   1.405   3.421  0.9487 -0.4234  0.4233
 9405TIP3   OH249629   3.095   5.281   3.083  0.0428  0.1106  0.0348
 9405TIP3    H149630   3.187   5.309   3.079 -0.2359  1.3563  1.4458
 9405TIP3    H249631   3.090   5.227   3.162 -0.2676 -0.7529 -0.5529
 9406TIP3   OH249632   2.355   4.765  15.032  0.0314  0.2129  0.5470
 9406TIP3    H149633   2.426   4.795  15.089 -0.9666  0.4232  1.7426
 9406TIP3    H249634   2.379   4.676  15.007 -0.1457 -0.4274  2.4866
 9407TIP3   OH249635   1.120   0.133   0.738  0.4175 -0.2529 -0.1263
 9407TIP3    H149636   1.181   0.085   0.682  0.8000 -0.1615  0.2135
 9407TIP3    H249637   1.164   0.215   0.759  0.4717 -0.4724  0.6726
 9408TIP3   OH249638   4.845   6.178  14.299  0.1675  0.0106 -0.4058
 9408TIP3    H149639   4.777   6.194  14.364  0.1052 -0.9403 -0.2299
 9408TIP3    H249640   4.797   6.152  14.220  0.3318 -2.4463  0.2156
 9409TIP3   OH249641   3.705   3.256   5.250  0.0924  0.3107 -0.3146
 9409TIP3    H149642   3.683   3.254   5.157  0.8285 -1.0873 -0.4865
 9409TIP3    H249643   3.630   3.216   5.293 -1.2779  2.9329 -0.0018
 9410TIP3   OH249644   2.096   5.426  10.969 -0.5500  0.2429  0.1039
 9410TIP3    H149645   2.092   5.423  10.874 -1.6841  0.9030  0.1187
 9410TIP3    H249646   2.070   5.515  10.992 -1.4500 -0.2497  1.0805
 9411TIP3   OH249647   1.007   6.619   6.778  0.4041 -0.2605  0.2190
 9411TIP3    H149648   1.021   6.702   6.731  0.8700 -1.5515 -2.0550
 9411TIP3    H249649   0.947   6.642   6.849  1.4611  2.2483  0.4038
 9412TIP3   OH249650   4.787   6.726  15.061  0.1860 -0.4842  0.2253
 9412TIP3    H149651   4.731   6.803  15.045 -2.6427 -2.5063 -0.4296
 9412TIP3    H249652   4.823   6.740  15.148 -0.0789  1.6525  0.0430
 9413TIP3   OH249653   6.155   3.741  17.050  0.3642 -0.0853  0.0806
 9413TIP3    H149654   6.246   3.770  17.046  0.0139  1.1944  0.8062
 9413TIP3    H249655   6.112   3.788  16.978  0.2764 -0.7235 -0.2923
 9414TIP3   OH249656   2.118   4.551   3.483 -0.1482 -0.1069 -0.7901
 9414TIP3    H149657   2.083   4.627   3.530  1.0364  0.1595 -0.3016
 9414TIP3    H249658   2.040   4.501   3.458 -0.9098  0.8337 -0.3975
 9415TIP3   OH249659   1.754   0.503  16.828  0.5644 -0.3636  0.0280
 9415TIP3    H149660   1.761   0.597  16.812  0.4742 -0.3924 -0.1764
 9415TIP3    H249661   1.689   0.472  16.765 -1.5455 -0.0695  1.9258
 9416TIP3   OH249662   2.484   3.897  13.550 -0.0793 -0.0183 -0.0408
 9416TIP3    H149663   2.442   3.898  13.465  1.7170 -0.5320 -0.9955
 9416TIP3    H249664   2.543   3.822  13.547  2.4239  1.7808  0.3662
 9417TIP3   OH249665   6.729   1.643  16.018  0.5281 -0.1844  0.4107
 9417TIP3    H149666   6.758   1.690  15.939 -2.0925  2.2758  0.7488
 9417TIP3    H249667   6.742   1.707  16.089  0.1370 -1.2951  1.5068
 9418TIP3   OH249668   1.540   3.973  15.218 -0.2538 -0.4930  0.3822
 9418TIP3    H149669   1.630   3.977  15.251  0.7013 -1.3222 -1.8826
 9418TIP3    H249670   1.486   4.000  15.292  1.9200  1.2327  1.4596
 9419TIP3   OH249671   0.392   4.543  14.005  0.1599  0.1207 -0.0154
 9419TIP3    H149672   0.450   4.547  13.929 -1.0221  1.6045 -0.9150
 9419TIP3    H249673   0.438   4.592  14.073  0.9426 -0.6588  0.0269
 9420TIP3   OH249674   6.800   1.435  13.932 -0.5406  0.1302  0.0264
 9420TIP3    H149675   6.829   1.525  13.951 -1.9150  0.3229  1.4269
 9420TIP3    H249676   6.856   1.380  13.987 -0.3485  0.1884 -0.1073
 9421TIP3   OH249677   4.819   4.169  13.267 -0.1826 -0.4336  0.1725
 9421TIP3    H149678   4.813   4.087  13.219 -0.3417 -0.8345  0.8682
 9421TIP3    H249679   4.767   4.155  13.347 -1.0607  0.6710 -0.1624
 9422TIP3   OH249680   2.019   5.530   0.792  0.6815  0.4052 -0.0115
 9422TIP3    H149681   2.063   5.446   0.780  0.6144  0.6113 -1.9666
 9422TIP3    H249682   2.082   5.584   0.840  1.5994 -0.0743 -0.6553
 9423TIP3   OH249683   4.848   1.943  10.785  0.4271  0.2983  0.2390
 9423TIP3    H149684   4.887   1.886  10.720  2.2495  1.4615  0.2479
 9423TIP3    H249685   4.890   2.028  10.772 -1.0723  1.2541  1.2238
 9424TIP3   OH249686   6.306   5.073  13.405 -0.2817  0.0669  0.2168
 9424TIP3    H149687   6.315   5.046  13.313 -0.1413  1.1447 -0.1035
 9424TIP3    H249688   6.395   5.065  13.440 -0.3312 -0.3291  0.2530
 9425TIP3   OH249689   2.841   1.655   5.461 -0.5669 -1.2064 -0.5068
 9425TIP3    H149690   2.915   1.691   5.510 -0.6595 -1.9679  0.2290
 9425TIP3    H249691   2.879   1.586   5.407 -0.8366 -2.2015  0.5289
 9426TIP3   OH249692   5.059   6.381  16.543 -0.1652  0.0101 -0.1233
 9426TIP3    H149693   5.047   6.391  16.637  0.2948  1.0525 -0.1637
 9426TIP3    H249694   5.000   6.309  16.519 -2.0263  1.2210  0.5922
 9427TIP3   OH249695   2.862   6.463  10.794  0.0663 -0.5383 -0.3629
 9427TIP3    H149696   2.836   6.514  10.870  0.1308 -0.0413 -0.6717
 9427TIP3    H249697   2.951   6.432  10.815  1.5476  2.4689 -1.6182
 9428TIP3   OH249698   1.795   4.567  10.545 -0.1224  0.4218 -0.3749
 9428TIP3    H149699   1.827   4.515  10.471  0.2132  0.2433 -0.1102
 9428TIP3    H249700   1.701   4.572  10.532 -0.2724 -0.9418  0.0166
 9429TIP3   OH249701   2.624   2.643  13.851 -0.1907 -0.0448 -0.1727
 9429TIP3    H149702   2.627   2.719  13.909 -1.2077 -1.1180  1.3686
 9429TIP3    H249703   2.530   2.629  13.835  0.0495  0.1361 -2.0144
 9430TIP3   OH249704   5.645   4.997   1.011  0.1795  0.0454 -0.2208
 9430TIP3    H149705   5.680   5.066   0.954  2.5381 -1.5234 -0.8284
 9430TIP3    H249706   5.589   4.944   0.954  0.1778  0.1578 -0.3234
 9431TIP3   OH249707   3.294   2.017  11.270 -0.4229 -0.1265  0.3278
 9431TIP3    H149708   3.257   2.105  11.258 -3.1402 -0.8859  2.2334
 9431TIP3    H249709   3.298   1.980  11.182 -0.8939  1.2776 -0.3118
 9432TIP3   OH249710   5.261   1.958  15.335  0.4611 -0.1421 -0.6765
 9432TIP3    H149711   5.334   1.897  15.329  1.9255  1.6643 -2.5437
 9432TIP3    H249712   5.276   2.022  15.265 -2.5960  0.6654 -0.7584
 9433TIP3   OH249713   6.461   6.449   3.096 -0.1094  0.3462  0.2484
 9433TIP3    H149714   6.505   6.534   3.095 -0.6291  0.6383 -1.3447
 9433TIP3    H249715   6.401   6.453   3.022 -0.0177 -1.4817  0.0305
 9434TIP3   OH249716   3.052   6.157  14.198  0.3214  0.0661 -0.1982
 9434TIP3    H149717   3.000   6.080  14.220 -1.4858  1.2512 -0.0735
 9434TIP3    H249718   3.120   6.161  14.265 -0.3627 -0.7032  0.5580
 9435TIP3   OH249719   2.293   2.414   0.333 -0.5957  0.7210 -0.5595
 9435TIP3    H149720   2.227   2.472   0.295 -1.2445 -0.0502 -0.6472
 9435TIP3    H249721   2.371   2.427   0.279 -0.2282  2.6402  0.3672
 9436TIP3   OH249722   6.185   4.474  13.884 -0.5903  0.4756 -0.1519
 9436TIP3    H149723   6.105   4.518  13.909 -0.4885 -0.2720  1.6335
 9436TIP3    H249724   6.159   4.382  13.872 -0.0577  0.2765  0.1915
 9437TIP3   OH249725   4.228   2.464  15.417  0.0639 -0.0987 -0.8496
 9437TIP3    H149726   4.223   2.541  15.474 -0.5880 -1.7168  1.4277
 9437TIP3    H249727   4.317   2.465  15.383  1.0825  0.0506  1.6067
 9438TIP3   OH249728   2.097   4.848  14.218  0.1549 -0.5339 -0.4082
 9438TIP3    H149729   2.116   4.882  14.306  1.3796  0.0581 -0.8806
 9438TIP3    H249730   2.001   4.853  14.211  0.1585  1.2362  0.1909
 9439TIP3   OH249731   2.508   3.648  13.205  0.8338 -0.4357 -0.1318
 9439TIP3    H149732   2.458   3.594  13.145 -0.8015  1.3190 -0.4607
 9439TIP3    H249733   2.591   3.665  13.160  0.6355 -1.1844 -0.7874
 9440TIP3   OH249734   0.878   5.924  14.278 -0.1047 -0.1494 -0.1958
 9440TIP3    H149735   0.814   5.994  14.264  0.7752  1.0029  1.1642
 9440TIP3    H249736   0.871   5.904  14.372  0.1534 -1.3894 -0.4313
 9441TIP3   OH249737   0.136   2.747  13.130 -0.4918 -0.2407 -0.3486
 9441TIP3    H149738   0.095   2.834  13.131  1.3578  0.6702 -0.4797
 9441TIP3    H249739   0.129   2.719  13.038  0.0207  0.3340 -0.5692
 9442TIP3   OH249740   4.622   5.301   0.438 -0.1913 -0.0204 -0.9400
 9442TIP3    H149741   4.576   5.357   0.375 -0.7851  0.8335  0.2190
 9442TIP3    H249742   4.653   5.361   0.505 -2.1134 -1.1891  1.1341
 9443TIP3   OH249743   2.427   6.181   4.200  0.9488  0.5320  0.4633
 9443TIP3    H149744   2.385   6.260   4.236 -0.5005  0.1155 -0.2267
 9443TIP3    H249745   2.444   6.203   4.109  0.3789  0.0071  0.2216
 9444TIP3   OH249746   3.560   1.454  11.040  0.1332  0.1161 -0.5276
 9444TIP3    H149747   3.467   1.444  11.020 -0.1804 -0.8078  1.1872
 9444TIP3    H249748   3.569   1.544  11.072 -0.0501  0.3842 -1.2140
 9445TIP3   OH249749   4.480   6.460  12.998  0.1514 -0.1979 -0.2905
 9445TIP3    H149750   4.395   6.423  12.974 -0.5110  0.4521  0.9623
 9445TIP3    H249751   4.482   6.457  13.094  1.1253  0.7037 -0.2606
 9446TIP3   OH249752   5.376   5.230  13.655  0.3433  0.4512  0.2354
 9446TIP3    H149753   5.424   5.312  13.665 -0.7173  1.2336 -0.7821
 9446TIP3    H249754   5.341   5.234  13.566  0.1823 -1.0700  0.2038
 9447TIP3   OH249755   1.993   2.354   1.478  0.4974 -0.6811  0.2687
 9447TIP3    H149756   2.027   2.267   1.499 -0.3388 -0.8316  1.0416
 9447TIP3    H249757   1.983   2.397   1.563 -2.6541 -1.1816  0.2647
 9448TIP3   OH249758   5.097   1.655   4.783 -0.1518  0.5250 -0.5063
 9448TIP3    H149759   5.180   1.613   4.805 -1.2859 -1.6693 -0.0873
 9448TIP3    H249760   5.066   1.609   4.705 -0.1761  2.4987 -1.6943
 9449TIP3   OH249761   2.268   5.014   0.390  0.2034 -0.0984 -0.5488
 9449TIP3    H149762   2.356   5.030   0.354  0.9129 -0.8744  0.7737
 9449TIP3    H249763   2.232   5.102   0.405  0.2150  0.2384 -2.2937
 9450TIP3   OH249764   3.412   5.249  13.871 -0.3351  0.1677 -0.0734
 9450TIP3    H149765   3.348   5.179  13.881  0.9258 -1.1157 -0.6791
 9450TIP3    H249766   3.472   5.218  13.804 -0.2726  2.2649 -1.0550
 9451TIP3   OH249767   2.006   0.955  11.788 -0.2796  0.1459  0.8967
 9451TIP3    H149768   1.949   1.018  11.745 -1.6289 -1.5228  0.1389
 9451TIP3    H249769   2.083   0.950  11.731 -1.3366 -0.8305 -0.5150
 9452TIP3   OH249770   6.402   6.043   1.027 -0.0434  0.0653 -0.9538
 9452TIP3    H149771   6.482   5.992   1.040 -1.1015 -1.5328 -0.4907
 9452TIP3    H249772   6.332   5.989   1.062 -1.0979  2.4663  0.9785
 9453TIP3   OH249773   2.018   4.424   5.489 -0.4374 -0.1309 -0.6555
 9453TIP3    H149774   2.007   4.389   5.400 -1.9391 -1.6523  0.0717
 9453TIP3    H249775   1.969   4.506   5.489 -1.1061 -0.5196 -1.0218
 9454TIP3   OH249776   3.106   3.313   0.997  0.0394 -0.1644  0.0937
 9454TIP3    H149777   3.148   3.254   0.935  1.3847 -0.7542  1.5213
 9454TIP3    H249778   3.120   3.400   0.960  0.4164 -0.5375 -0.6543
 9455TIP3   OH249779   0.104   5.412   1.409 -0.1385  0.1833  0.7126
 9455TIP3    H149780   0.128   5.436   1.498  0.6389 -0.5907  0.7293
 9455TIP3    H249781   0.090   5.317   1.413  1.1554 -0.0755 -0.2452
 9456TIP3   OH249782   5.173   2.103  14.841 -0.1994 -0.1765 -0.6619
 9456TIP3    H149783   5.159   2.149  14.758 -1.4452 -1.5419 -1.2475
 9456TIP3    H249784   5.085   2.085  14.873  0.2343 -2.3918 -0.6143
 9457TIP3   OH249785   6.427   0.581  14.648 -0.0405 -1.0700  1.1226
 9457TIP3    H149786   6.386   0.661  14.614  2.7758 -0.2587 -0.6914
 9457TIP3    H249787   6.450   0.531  14.570  0.8713 -2.2743  2.1272
 9458TIP3   OH249788   3.621   4.674   0.669 -0.0483  0.3582  0.1208
 9458TIP3    H149789   3.611   4.760   0.710  0.4028 -0.1978  1.4403
 9458TIP3    H249790   3.589   4.687   0.579 -0.7240  1.6952  0.5227
 9459TIP3   OH249791   5.980   5.591  12.173  0.1378 -0.4406  0.2657
 9459TIP3    H149792   6.045   5.646  12.217  0.3058  0.0583 -0.5905
 9459TIP3    H249793   6.032   5.523  12.131 -0.0002 -0.7495  0.5933
 9460TIP3   OH249794   2.930   2.452  12.020  0.2169 -0.3101  0.2910
 9460TIP3    H149795   3.014   2.441  12.065 -0.0265 -0.7967  0.6301
 9460TIP3    H249796   2.890   2.529  12.061  0.9853  0.6155 -0.6378
 9461TIP3   OH249797   2.927   3.407  15.739  0.2865  0.2866 -0.2397
 9461TIP3    H149798   2.866   3.477  15.762  2.2063  2.4530 -1.3145
 9461TIP3    H249799   2.959   3.374  15.822  0.5936  1.8705  0.2982
 9462TIP3   OH249800   5.202   3.176  12.979 -0.4580 -0.2064 -0.4345
 9462TIP3    H149801   5.129   3.115  12.995 -2.2280  1.6269 -1.0751
 9462TIP3    H249802   5.193   3.242  13.047 -0.5248  1.0082 -1.5874
 9463TIP3   OH249803   2.943   2.488  12.638 -0.2057 -0.1992 -0.3443
 9463TIP3    H149804   2.917   2.426  12.569  0.8837  1.5159 -2.4397
 9463TIP3    H249805   3.038   2.478  12.644 -0.1468  0.5576  0.0234
 9464TIP3   OH249806   1.753   1.323  12.679 -0.3667 -0.1509 -0.2790
 9464TIP3    H149807   1.781   1.252  12.737  0.4230  0.7551  0.4828
 9464TIP3    H249808   1.744   1.281  12.593 -0.0843 -1.2002  0.1791
 9465TIP3   OH249809   0.067   1.847   1.993 -0.5540 -0.3784  0.6900
 9465TIP3    H149810   0.052   1.942   1.990 -1.2677 -0.5084 -0.3543
 9465TIP3    H249811   0.162   1.838   2.005 -0.3187  0.4753 -0.3607
 9466TIP3   OH249812   2.823   4.390   1.623  0.0118 -0.2217 -0.2603
 9466TIP3    H149813   2.887   4.459   1.637  1.0688 -0.7113 -2.3097
 9466TIP3    H249814   2.748   4.435   1.582 -1.0652  0.3549  2.1622
 9467TIP3   OH249815   4.018   2.536  16.656 -0.5578 -0.1858  0.2915
 9467TIP3    H149816   4.031   2.478  16.580  0.0979  1.4107 -0.8884
 9467TIP3    H249817   3.958   2.603  16.624  1.6305  1.9253  0.3007
 9468TIP3   OH249818   2.067   6.713  11.132  0.4473  0.3519  0.1965
 9468TIP3    H149819   2.088   6.805  11.114 -0.4920  0.3873 -0.8341
 9468TIP3    H249820   1.991   6.694  11.076 -1.5563 -0.0854  2.8493
 9469TIP3   OH249821   0.001   1.963  16.082  0.2880 -0.0815  0.5619
 9469TIP3    H149822   0.006   1.921  15.995 -0.3147 -0.0785  0.5218
 9469TIP3    H249823  -0.090   1.993  16.088 -0.5882 -2.7241  2.4107
 9470TIP3   OH249824   0.701   3.830  15.064  0.1878 -0.2666  0.2596
 9470TIP3    H149825   0.754   3.910  15.065  0.4417 -0.4321  0.2464
 9470TIP3    H249826   0.636   3.843  15.133  0.2064 -0.0346  0.2351
 9471TIP3   OH249827   6.407   0.041  11.390 -0.0320 -0.3621 -0.2768
 9471TIP3    H149828   6.416   0.114  11.329  0.4806  0.7523  1.0667
 9471TIP3    H249829   6.329  -0.006  11.361 -0.1045  0.4372 -1.4465
 9472TIP3   OH249830   0.763   4.438  15.182  0.2457 -0.1897  0.2154
 9472TIP3    H149831   0.739   4.395  15.100  2.7247 -4.6975  1.5318
 9472TIP3    H249832   0.844   4.485  15.161  0.3044 -0.4490 -0.1531
 9473TIP3   OH249833   1.201   3.834   1.554 -0.4988 -0.2976  0.2349
 9473TIP3    H149834   1.284   3.854   1.510 -1.1308  2.5715  0.1288
 9473TIP3    H249835   1.138   3.823   1.483 -0.5523 -0.8270  0.3574
 9474TIP3   OH249836   2.835   5.810   0.527  0.1788 -0.3334 -0.0311
 9474TIP3    H149837   2.817   5.719   0.554  0.8413 -0.5080 -0.1707
 9474TIP3    H249838   2.881   5.801   0.443  4.7641 -0.1125  2.1808
 9475TIP3   OH249839   2.755   6.656  15.536 -0.1066 -0.0267 -0.2458
 9475TIP3    H149840   2.836   6.706  15.525  0.0336 -0.3032 -0.5058
 9475TIP3    H249841   2.747   6.606  15.455 -0.8287  0.4117 -0.4557
 9476TIP3   OH249842   6.176   6.086  16.447 -0.5773  1.1454  0.0887
 9476TIP3    H149843   6.103   6.090  16.510  0.5434  0.0438  1.5401
 9476TIP3    H249844   6.237   6.153  16.477  0.0214  0.5273  0.2935
 9477TIP3   OH249845   1.486   0.046   2.391  0.1790  0.3853 -0.2545
 9477TIP3    H149846   1.563   0.036   2.448  1.1125 -0.6810 -1.6417
 9477TIP3    H249847   1.503  -0.013   2.318 -1.7255  0.5571 -0.8740
 9478TIP3   OH249848   2.778   1.039  11.108  0.1897  0.1281  0.4006
 9478TIP3    H149849   2.820   0.960  11.075  0.5541  0.8629 -0.9840
 9478TIP3    H249850   2.686   1.030  11.083  0.8000  1.5965 -2.8639
 9479TIP3   OH249851   4.438   3.783  11.977  0.3225  0.7150 -0.3574
 9479TIP3    H149852   4.345   3.808  11.972  0.9490  3.7725  0.9868
 9479TIP3    H249853   4.436   3.691  12.005 -2.4386  1.7605  4.0307
 9480TIP3   OH249854   5.956   4.532   1.713  0.1304 -0.7408  0.1605
 9480TIP3    H149855   5.997   4.617   1.729 -1.6267  0.0528  0.6869
 9480TIP3    H249856   6.018   4.486   1.657  0.5169  1.4127 -1.3151
 9481TIP3   OH249857   4.981   4.086   1.742  0.3581  0.2298  0.9009
 9481TIP3    H149858   5.017   4.122   1.823  2.0080  0.2092  0.2053
 9481TIP3    H249859   5.005   3.993   1.743  1.6696  0.5205 -0.2471
 9482TIP3   OH249860   3.649   3.128   2.612  0.4255 -0.4069 -0.0619
 9482TIP3    H149861   3.702   3.051   2.633 -0.2240 -1.1548 -1.0855
 9482TIP3    H249862   3.687   3.198   2.665  1.8942 -1.1145 -0.1271
 9483TIP3   OH249863   5.098   6.548   3.867  0.3934 -0.4832 -0.3215
 9483TIP3    H149864   5.087   6.515   3.956 -0.2827  1.6843  0.4660
 9483TIP3    H249865   5.190   6.574   3.863  0.1031  0.7402  0.2871
 9484TIP3   OH249866   2.513   1.649  14.466 -1.6042 -0.0017  0.4636
 9484TIP3    H149867   2.504   1.557  14.492 -2.2053 -0.0826 -0.0062
 9484TIP3    H249868   2.607   1.667  14.470 -1.5349 -0.4826  1.0801
 9485TIP3   OH249869   4.188   4.917   3.692  0.3064 -0.0700  0.4031
 9485TIP3    H149870   4.239   4.991   3.659  0.4443  0.3317  1.4746
 9485TIP3    H249871   4.099   4.933   3.661  0.2131  0.8754  1.1415
 9486TIP3   OH249872   0.837   3.009  13.699  0.3668  0.0066 -0.6463
 9486TIP3    H149873   0.754   3.038  13.738  1.0364  1.4313 -0.2322
 9486TIP3    H249874   0.821   3.012  13.605  0.0505  0.6533 -0.5827
 9487TIP3   OH249875   2.921   4.740   5.448 -0.6463  0.5621  0.3427
 9487TIP3    H149876   3.002   4.786   5.424 -0.6981  0.4976  0.0352
 9487TIP3    H249877   2.930   4.722   5.541  0.4715 -0.9999 -0.0420
 9488TIP3   OH249878   1.446   5.198  11.234  0.3614 -0.3856  0.2349
 9488TIP3    H149879   1.527   5.151  11.214 -0.2331 -1.7388  0.9004
 9488TIP3    H249880   1.424   5.243  11.152  1.4680 -0.4696 -0.1269
 9489TIP3   OH249881   1.060   1.258  15.796 -0.9420  0.0289 -0.0171
 9489TIP3    H149882   1.023   1.190  15.852 -0.1197 -0.3369  0.1036
 9489TIP3    H249883   1.140   1.218  15.761 -1.1632  0.4376 -1.0349
 9490TIP3   OH249884   4.260   4.290  15.287 -0.0219 -0.1601  0.1687
 9490TIP3    H149885   4.238   4.198  15.273 -0.9160  0.0956 -0.2362
 9490TIP3    H249886   4.331   4.289  15.350  2.5911 -1.2940 -2.5513
 9491TIP3   OH249887   2.487   2.605  11.832 -0.1129  0.7136  0.4266
 9491TIP3    H149888   2.552   2.627  11.766  0.9574 -0.3130  1.1165
 9491TIP3    H249889   2.418   2.559  11.783  0.8966 -0.4799  0.0718
 9492TIP3   OH249890   2.132   5.260  11.789 -0.7051 -0.0660  0.2662
 9492TIP3    H149891   2.130   5.283  11.882  0.9134 -0.0129  0.3036
 9492TIP3    H249892   2.169   5.172  11.786  0.6935  0.5207 -0.4062
 9493TIP3   OH249893   3.665   4.139   5.119 -0.2351  0.4811  0.1568
 9493TIP3    H149894   3.581   4.096   5.138 -0.3994  0.1405 -1.2302
 9493TIP3    H249895   3.727   4.067   5.111 -0.5737  0.3904 -2.5050
 9494TIP3   OH249896   0.259   1.868  12.259  0.6012  0.3431 -0.8896
 9494TIP3    H149897   0.272   1.962  12.271 -0.4857  0.4397 -0.2862
 9494TIP3    H249898   0.193   1.845  12.325  0.9408 -0.8646 -0.9501
 9495TIP3   OH249899   3.103   4.878   3.048  0.0712  0.1677  0.0024
 9495TIP3    H149900   3.117   4.972   3.031  1.1826 -0.0726 -0.4942
 9495TIP3    H249901   3.118   4.836   2.963 -1.2388 -0.3944  0.0283
 9496TIP3   OH249902   6.053   1.781  11.424 -0.4141 -0.3178 -0.5203
 9496TIP3    H149903   5.969   1.816  11.395 -0.0219  0.6213 -0.5622
 9496TIP3    H249904   6.096   1.855  11.467  0.2720 -0.8692 -0.2351
 9497TIP3   OH249905   0.563   1.635  16.356  0.1568 -0.2510  0.2582
 9497TIP3    H149906   0.566   1.562  16.293 -3.8295  0.6459 -1.2935
 9497TIP3    H249907   0.532   1.709  16.305 -2.3368  0.7920  3.0297
 9498TIP3   OH249908   4.502   2.034   0.457  0.2486  0.2430 -0.0911
 9498TIP3    H149909   4.420   2.004   0.416  0.1603  0.5125 -0.1131
 9498TIP3    H249910   4.561   2.049   0.384 -0.5341  2.6585 -0.3121
 9499TIP3   OH249911   1.992   2.837  12.289  0.1919  0.3069 -0.3531
 9499TIP3    H149912   1.967   2.832  12.197  0.7571 -0.4004 -0.4725
 9499TIP3    H249913   2.003   2.746  12.316 -0.2868  0.4953  0.5050
 9500TIP3   OH249914   1.908   3.543  12.255 -0.1433  0.3936  0.1784
 9500TIP3    H149915   1.853   3.557  12.332 -0.3409 -1.3594  0.3936
 9500TIP3    H249916   1.974   3.481  12.284 -1.0605 -1.4183 -1.4216
 9501TIP3   OH249917   1.216   2.118  15.087 -0.4944 -0.0953 -0.2065
 9501TIP3    H149918   1.121   2.111  15.075 -0.3154  0.2611 -2.0022
 9501TIP3    H249919   1.226   2.153  15.176 -2.0329 -0.0313 -0.0284
 9502TIP3   OH249920   5.130   4.327  16.899 -0.1251 -0.5321  0.9010
 9502TIP3    H149921   5.051   4.311  16.847  0.0838  0.7059  0.1627
 9502TIP3    H249922   5.124   4.419  16.924  2.2117  0.3114 -1.2057
 9503TIP3   OH249923   0.714   2.491   5.654  0.4305  0.2931  0.4129
 9503TIP3    H149924   0.756   2.495   5.740  2.4837 -0.2500 -0.5100
 9503TIP3    H249925   0.703   2.398   5.637  1.6609  0.3146 -0.6309
 9504TIP3   OH249926   3.490   1.598  15.703 -0.6432 -0.4155  0.2826
 9504TIP3    H149927   3.446   1.663  15.758 -0.5815  0.3553 -0.5503
 9504TIP3    H249928   3.422   1.534  15.682 -1.3362  0.6138 -0.7669
 9505TIP3   OH249929   4.771   0.463  15.669 -0.3706 -0.3241 -0.5882
 9505TIP3    H149930   4.860   0.431  15.655  0.0055  0.2872  0.3185
 9505TIP3    H249931   4.751   0.437  15.759 -1.2455 -0.7540 -0.8969
 9506TIP3   OH249932   6.710   0.632  13.864  0.1035 -0.1540  0.1309
 9506TIP3    H149933   6.678   0.713  13.903  0.3463 -0.1826  0.3911
 9506TIP3    H249934   6.799   0.653  13.835  0.2510 -0.3961  0.4114
 9507TIP3   OH249935   0.885   0.824   5.797 -0.1101  0.2320  0.2164
 9507TIP3    H149936   0.958   0.794   5.852 -0.4283  0.5434  0.8100
 9507TIP3    H249937   0.864   0.748   5.743  0.5044  0.0645  0.1975
 9508TIP3   OH249938   6.436   5.178  13.794  0.2731 -0.0917  0.1140
 9508TIP3    H149939   6.482   5.100  13.826  0.3883 -0.3976 -0.7831
 9508TIP3    H249940   6.366   5.144  13.739  0.5885  0.4466 -0.6316
 9509TIP3   OH249941   0.670   6.107   2.406 -0.1015  0.0027 -0.7483
 9509TIP3    H149942   0.719   6.075   2.482  0.7001  1.4800 -0.5998
 9509TIP3    H249943   0.628   6.029   2.370 -1.0936 -0.6522  1.6187
 9510TIP3   OH249944   3.092   6.061  15.360  0.4323 -0.4909  0.3636
 9510TIP3    H149945   3.029   6.130  15.339  2.0937  1.1289  0.2957
 9510TIP3    H249946   3.094   6.005  15.282 -0.3389 -0.1038  0.0568
 9511TIP3   OH249947   1.008   6.600  11.094  0.0239 -0.0762  0.1197
 9511TIP3    H149948   0.981   6.539  11.163 -0.1984 -1.0325 -0.7831
 9511TIP3    H249949   0.932   6.655  11.078  0.4918  1.0583  1.5345
 9512TIP3   OH249950   3.104   4.256   5.149 -0.0513 -0.0113 -0.4893
 9512TIP3    H149951   3.054   4.177   5.170  0.6739  0.1802  2.3734
 9512TIP3    H249952   3.152   4.233   5.069 -0.5733 -2.1366 -0.2659
 9513TIP3   OH249953   4.702   1.022   4.503  0.4887  0.2499 -0.1521
 9513TIP3    H149954   4.706   1.110   4.539  1.4921  0.6992 -1.3141
 9513TIP3    H249955   4.628   1.024   4.442  1.1867  0.6057 -0.9897
 9514TIP3   OH249956   1.510   5.081   4.657 -0.3512  0.4846 -0.0101
 9514TIP3    H149957   1.518   4.986   4.650 -0.1586  0.4983  0.0184
 9514TIP3    H249958   1.416   5.096   4.670 -0.4854  0.3427 -0.7285
 9515TIP3   OH249959   0.422   1.333   1.537 -0.2328 -0.2971  0.1170
 9515TIP3    H149960   0.346   1.382   1.567  0.2195  0.8230 -0.5329
 9515TIP3    H249961   0.430   1.356   1.445  1.4732  0.3811  0.4060
 9516TIP3   OH249962   4.050   5.797  12.781  0.4853  0.2639  0.6128
 9516TIP3    H149963   3.955   5.810  12.773  0.3985 -0.2520  0.7853
 9516TIP3    H249964   4.087   5.880  12.752 -0.0124  0.4053  0.3585
 9517TIP3   OH249965   0.437   1.605  16.800  0.0643  0.2499  0.5671
 9517TIP3    H149966   0.367   1.664  16.771 -1.2738 -1.7575 -0.6144
 9517TIP3    H249967   0.515   1.635  16.753 -1.2478 -0.6510 -2.4736
 9518TIP3   OH249968   4.065   3.901  15.794 -0.3810  0.4152 -0.0104
 9518TIP3    H149969   4.095   3.864  15.877  1.3651  1.8772  0.0681
 9518TIP3    H249970   4.043   3.992  15.815  0.4815  0.9175 -1.2108
 9519TIP3   OH249971   2.775   2.395  14.183  0.2240 -0.3450 -0.7635
 9519TIP3    H149972   2.727   2.322  14.222  0.4655  0.1100  0.4224
 9519TIP3    H249973   2.760   2.386  14.089 -2.9218  0.2737 -0.4209
 9520TIP3   OH249974   0.740   0.838  12.399 -0.2291  0.2159  0.3203
 9520TIP3    H149975   0.700   0.776  12.460  1.3606  0.1648  1.3555
 9520TIP3    H249976   0.677   0.910  12.395 -0.7180 -0.1168  1.4394
 9521TIP3   OH249977   2.939   0.888  10.953  0.8695 -0.4806  0.2602
 9521TIP3    H149978   3.027   0.890  10.916  0.0976  0.3287 -1.6931
 9521TIP3    H249979   2.881   0.892  10.877 -0.8538 -0.2833  1.5206
 9522TIP3   OH249980   2.854   2.845   0.260  0.2984 -0.0202 -0.0574
 9522TIP3    H149981   2.789   2.896   0.309 -2.3384 -2.1222 -1.0770
 9522TIP3    H249982   2.847   2.757   0.297  2.9691 -0.2406  0.0649
 9523TIP3   OH249983   1.740   5.459   0.382  0.2948 -0.2649 -0.6387
 9523TIP3    H149984   1.724   5.445   0.289  0.8546 -2.7587 -0.4136
 9523TIP3    H249985   1.676   5.526   0.407  0.0694  0.3792 -2.7663
 9524TIP3   OH249986   0.825   5.048  11.790 -0.3766  0.1930  0.4140
 9524TIP3    H149987   0.858   5.081  11.706 -2.4822  0.6848 -0.2864
 9524TIP3    H249988   0.786   5.125  11.832 -0.4418 -0.2994  1.2843
 9525TIP3   OH249989   2.772   5.416   2.390  0.4907 -0.5322 -0.4224
 9525TIP3    H149990   2.681   5.422   2.417  0.4865  0.5615 -0.6530
 9525TIP3    H249991   2.806   5.340   2.437 -1.1081 -2.3419 -2.0158
 9526TIP3   OH249992   1.814   0.694   4.580 -0.0343  0.4281  0.2712
 9526TIP3    H149993   1.785   0.781   4.608 -0.9919 -0.3502  1.8367
 9526TIP3    H249994   1.909   0.702   4.574  0.0115  1.2708  1.6264
 9527TIP3   OH249995   5.684   1.831  14.815 -0.2639 -0.3847  0.2501
 9527TIP3    H149996   5.747   1.800  14.880 -1.5028  0.0832  1.7546
 9527TIP3    H249997   5.612   1.867  14.868 -0.5002  1.7056 -1.3921
 9528TIP3   OH249998   1.409   5.760  13.497 -0.2750 -0.2123 -0.1022
 9528TIP3    H149999   1.415   5.855  13.489  1.5369 -0.1093  1.5823
 9528TIP3    H250000   1.482   5.737  13.555  1.0110 -2.8980 -2.5245
 9529TIP3   OH250001   4.852   6.179  15.589  0.3338  0.0575  0.5275
 9529TIP3    H150002   4.947   6.171  15.589  0.2808 -0.8909 -0.9240
 9529TIP3    H250003   4.821   6.100  15.545 -1.1812 -0.0919  1.7734
 9530TIP3   OH250004   4.275   4.216  12.161  0.1317 -0.1083 -0.1544
 9530TIP3    H150005   4.194   4.177  12.128  0.0492 -1.0132  1.0382
 9530TIP3    H250006   4.270   4.205  12.256  1.7337 -0.3663 -0.0709
 9531TIP3   OH250007   2.209   5.845  16.354 -0.1698 -0.2624  0.3040
 9531TIP3    H150008   2.226   5.828  16.447 -1.5896 -0.9631  0.4647
 9531TIP3    H250009   2.157   5.770  16.325  0.3969 -0.1376 -1.1177
 9532TIP3   OH250010   2.281   1.573  16.543  0.4400  0.4594 -0.2012
 9532TIP3    H150011   2.290   1.490  16.495  2.7211  0.8717 -0.6059
 9532TIP3    H250012   2.311   1.639  16.481  3.0958  1.0687  1.6046
 9533TIP3   OH250013   0.018   4.241   1.347  0.4321  0.5664  0.0613
 9533TIP3    H150014   0.086   4.180   1.320 -0.3394  0.2528 -1.2582
 9533TIP3    H250015   0.063   4.304   1.404  1.9952  0.8130 -1.3640
 9534TIP3   OH250016   5.622   4.099  16.714  0.3423 -0.2730 -0.1084
 9534TIP3    H150017   5.649   4.112  16.623 -1.5231 -2.7688 -1.1304
 9534TIP3    H250018   5.538   4.145  16.720 -0.2566 -1.3464 -0.1056
 9535TIP3   OH250019   4.843   0.608  11.964  0.4762  0.6326  0.2922
 9535TIP3    H150020   4.911   0.577  11.904  0.3382  0.2807  0.3139
 9535TIP3    H250021   4.881   0.685  12.006  0.7591  0.5960  0.1057
 9536TIP3   OH250022   6.455   4.814  16.191 -0.9912  0.0825  0.3086
 9536TIP3    H150023   6.500   4.803  16.275 -0.0230 -0.7557 -0.3076
 9536TIP3    H250024   6.522   4.848  16.132 -1.2529 -0.8120 -0.5249
 9537TIP3   OH250025   5.513   1.648   1.862  1.1320 -0.4499  0.6719
 9537TIP3    H150026   5.501   1.677   1.952  0.9566  0.6524  0.3040
 9537TIP3    H250027   5.572   1.713   1.823 -0.6541  0.4765 -0.6629
 9538TIP3   OH250028   6.193   1.147  13.597 -0.6792 -0.0324 -0.7189
 9538TIP3    H150029   6.175   1.212  13.529 -0.1012 -0.0757 -0.9226
 9538TIP3    H250030   6.219   1.068  13.549  3.9510  1.0919 -0.5651
 9539TIP3   OH250031   0.435   4.169  16.452  0.3940  0.0814 -0.3764
 9539TIP3    H150032   0.355   4.121  16.473 -0.4267  1.9662  1.1432
 9539TIP3    H250033   0.421   4.204  16.364 -0.2979  0.0771 -0.2690
 9540TIP3   OH250034   4.715   2.493  13.439  0.4140 -0.0769  0.3221
 9540TIP3    H150035   4.629   2.474  13.475 -0.2358  0.6395 -0.8005
 9540TIP3    H250036   4.738   2.579  13.475 -1.6494  2.2190 -3.2042
 9541TIP3   OH250037   0.426   2.132   4.403  0.6092  0.0792  0.1125
 9541TIP3    H150038   0.454   2.213   4.447 -0.0197  0.4565 -0.1657
 9541TIP3    H250039   0.449   2.146   4.311  0.2148  0.0815  0.0107
 9542TIP3   OH250040   1.803   4.365  16.155 -0.6392 -0.2159 -0.1288
 9542TIP3    H150041   1.713   4.395  16.140 -0.7631  0.4211  1.6783
 9542TIP3    H250042   1.850   4.442  16.185  0.8941 -0.2333 -2.2168
 9543TIP3   OH250043   4.258   2.014  11.845 -0.1195  0.0351  0.1272
 9543TIP3    H150044   4.271   2.063  11.764  1.9138 -1.4104 -0.5083
 9543TIP3    H250045   4.221   1.930  11.816 -0.4229 -0.0671  0.8054
 9544TIP3   OH250046   2.538   3.894  11.717 -0.1214  0.0204  0.7244
 9544TIP3    H150047   2.614   3.856  11.673  0.2750  2.0984 -0.5037
 9544TIP3    H250048   2.471   3.898  11.649 -0.3787  0.8035  1.0151
 9545TIP3   OH250049   0.217   4.213   5.124  0.4841  0.1148  0.0489
 9545TIP3    H150050   0.299   4.240   5.165  1.0820 -2.5498  0.8130
 9545TIP3    H250051   0.241   4.137   5.071 -1.8195 -2.5518  2.4626
 9546TIP3   OH250052   5.876   4.071   2.507  0.2135  0.6730  0.2311
 9546TIP3    H150053   5.885   3.986   2.464 -0.0749  0.4502  0.6109
 9546TIP3    H250054   5.965   4.108   2.505  0.2259  0.6232 -0.4566
 9547TIP3   OH250055   4.767   4.961  15.852 -0.3280  0.0344  0.2119
 9547TIP3    H150056   4.687   4.922  15.816  0.3722  1.2076 -2.8942
 9547TIP3    H250057   4.735   5.022  15.919 -1.8239 -1.1278  0.6463
 9548TIP3   OH250058   3.842   1.590  16.114  0.1607 -0.7225  0.1156
 9548TIP3    H150059   3.755   1.554  16.098 -0.2403  0.4913 -0.6164
 9548TIP3    H250060   3.900   1.541  16.056 -0.7550  1.3467 -2.7914
 9549TIP3   OH250061   6.409   6.547   3.400  0.1292  0.0950 -0.0772
 9549TIP3    H150062   6.389   6.464   3.357  1.0334  0.2836 -0.9046
 9549TIP3    H250063   6.416   6.611   3.329 -0.5023  0.8798  0.5415
 9550TIP3   OH250064   1.420   0.061   6.005  0.3055 -0.1212 -0.1785
 9550TIP3    H150065   1.379   0.020   6.081 -0.2144  0.1757 -0.2939
 9550TIP3    H250066   1.513   0.063   6.026  0.4669 -2.0662 -0.4960
 9551TIP3   OH250067   3.644   2.887  12.955 -0.1721  0.1791 -0.0578
 9551TIP3    H150068   3.614   2.824  12.890 -0.2686 -0.7018  0.8155
 9551TIP3    H250069   3.730   2.854  12.983  0.0366  0.7505 -0.0158
 9552TIP3   OH250070   2.922   0.540  12.176  0.0418  0.1303 -0.3081
 9552TIP3    H150071   2.836   0.580  12.189 -1.1353 -1.8491 -1.4934
 9552TIP3    H250072   2.950   0.516  12.265 -1.6330 -1.0623 -0.0367
 9553TIP3   OH250073   2.539   0.853  15.111  0.2528 -0.0852 -0.2896
 9553TIP3    H150074   2.561   0.940  15.144 -0.9383  0.1715 -0.1083
 9553TIP3    H250075   2.515   0.804  15.189  3.0769 -1.3238 -0.0820
 9554TIP3   OH250076   2.419   2.691   5.665  0.2238  0.6251 -0.3963
 9554TIP3    H150077   2.408   2.625   5.734  2.2138 -0.4141 -0.9964
 9554TIP3    H250078   2.344   2.678   5.608 -1.6055  1.6595  1.6127
 9555TIP3   OH250079   4.774   4.025  11.016 -0.1521  0.2913 -0.1670
 9555TIP3    H150080   4.860   3.992  11.045 -0.9202  0.1647  2.2040
 9555TIP3    H250081   4.758   3.980  10.933  2.1937  0.5632 -0.8454
 9556TIP3   OH250082   0.355   5.132  16.239  0.2488 -0.2450  1.3396
 9556TIP3    H150083   0.375   5.105  16.150  0.6067  0.8871  1.0552
 9556TIP3    H250084   0.260   5.125  16.247  0.3041 -1.2649  1.1923
 9557TIP3   OH250085   5.997   6.186   2.397  0.6061  0.8160 -0.3873
 9557TIP3    H150086   6.087   6.205   2.422 -0.1077  2.6722  0.9875
 9557TIP3    H250087   5.947   6.196   2.478 -0.6760 -1.6125 -0.7937
 9558TIP3   OH250088   4.186   6.351   1.119 -0.4229 -0.4182 -0.2994
 9558TIP3    H150089   4.116   6.343   1.183 -0.1515 -0.3246  0.0096
 9558TIP3    H250090   4.237   6.427   1.148 -0.4600 -0.2014 -0.7822
 9559TIP3   OH250091   5.278   3.675  14.081  0.3479 -0.2008 -0.5870
 9559TIP3    H150092   5.196   3.704  14.121  0.6795 -0.5814  0.3828
 9559TIP3    H250093   5.328   3.755  14.067  0.6269 -0.1372  0.6669
 9560TIP3   OH250094   4.500   3.679   0.737 -0.6564  0.0168  0.1009
 9560TIP3    H150095   4.550   3.695   0.817  0.9432 -0.9793 -0.6523
 9560TIP3    H250096   4.426   3.625   0.765 -0.4725  0.2080  0.9993
 9561TIP3   OH250097   0.572   3.819  15.401 -0.7575  0.2333  0.1185
 9561TIP3    H150098   0.542   3.886  15.340 -0.9834  1.8756  1.9273
 9561TIP3    H250099   0.594   3.867  15.480  0.4039 -1.7022  1.0459
 9562TIP3   OH250100   0.349   1.808  13.205 -0.2650 -0.0425 -0.1432
 9562TIP3    H150101   0.254   1.819  13.198 -0.3890 -0.5143  0.6144
 9562TIP3    H250102   0.362   1.775  13.294  0.7809  1.9822  0.5154
 9563TIP3   OH250103   6.143   1.756   4.489  0.1895  0.7235  0.0979
 9563TIP3    H150104   6.215   1.805   4.530 -1.3514  2.3245  1.0367
 9563TIP3    H250105   6.182   1.715   4.413  2.3677  0.5545  1.2339
 9564TIP3   OH250106   3.812   1.856   2.870 -0.1878 -0.0977  0.1535
 9564TIP3    H150107   3.831   1.948   2.853 -1.5602 -0.0784 -1.5425
 9564TIP3    H250108   3.883   1.808   2.828 -0.2771  0.1632 -0.3002
 9565TIP3   OH250109   3.752   0.347   0.856  0.3019 -0.1474 -0.2495
 9565TIP3    H150110   3.693   0.409   0.899  0.7994  0.0553  0.1607
 9565TIP3    H250111   3.825   0.336   0.918  0.7306 -0.3363 -0.7736
 9566TIP3   OH250112   5.736   4.503  13.749 -0.3488 -0.5492  0.3937
 9566TIP3    H150113   5.673   4.569  13.719  1.9285  1.3503 -0.4887
 9566TIP3    H250114   5.767   4.462  13.669  1.2282  0.2147  0.5782
 9567TIP3   OH250115   3.675   1.291  11.265  0.7613 -0.2942 -0.6276
 9567TIP3    H150116   3.621   1.326  11.194  0.8263  0.1969 -0.4379
 9567TIP3    H250117   3.654   1.347  11.340 -0.0143 -1.3940 -0.0102
 9568TIP3   OH250118   1.037   2.743   5.853 -0.3857  0.1100  0.1609
 9568TIP3    H150119   1.081   2.783   5.928  1.2098 -2.1911  0.5246
 9568TIP3    H250120   1.102   2.745   5.783 -0.9978 -0.0201 -0.4199
 9569TIP3   OH250121   1.538   5.088  12.166  0.2066 -0.1979 -0.2384
 9569TIP3    H150122   1.619   5.037  12.167 -0.2159 -0.8848 -0.2879
 9569TIP3    H250123   1.565   5.175  12.135  0.7982 -0.6363 -0.9988
 9570TIP3   OH250124   6.427   5.469  11.527  0.4368 -0.5067  0.3099
 9570TIP3    H150125   6.475   5.386  11.521  0.3021 -0.6535  1.1054
 9570TIP3    H250126   6.492   5.536  11.505  1.1131 -0.6813  1.6495
 9571TIP3   OH250127   4.560   4.719   4.512  0.1618 -0.4100 -0.1557
 9571TIP3    H150128   4.629   4.680   4.458 -0.1004 -1.8734  0.5124
 9571TIP3    H250129   4.579   4.688   4.601 -0.4192  0.5174  0.3074
 9572TIP3   OH250130   5.396   4.859   2.914 -0.3921  0.4930  0.1892
 9572TIP3    H150131   5.424   4.881   3.003  2.0227  0.8890 -0.5684
 9572TIP3    H250132   5.452   4.913   2.858 -0.4594 -1.1790 -1.6058
 9573TIP3   OH250133   2.481   2.780   4.771  0.3288  0.0127 -0.1909
 9573TIP3    H150134   2.491   2.712   4.837 -1.3203 -0.2997 -0.2378
 9573TIP3    H250135   2.426   2.846   4.812  2.5614  1.7919  0.1586
 9574TIP3   OH250136   6.076   3.827   0.252 -0.0016  0.5335 -0.1382
 9574TIP3    H150137   6.011   3.864   0.193 -1.5562 -1.6733  0.0916
 9574TIP3    H250138   6.144   3.793   0.194 -1.0022 -0.6748 -0.6286
 9575TIP3   OH250139   0.252   1.097   2.008 -0.8014  0.1215 -0.7701
 9575TIP3    H150140   0.172   1.135   1.972 -0.3045  1.7322 -0.2197
 9575TIP3    H250141   0.260   1.013   1.962 -1.8895  0.6809 -2.0629
 9576TIP3   OH250142   4.480   3.644   3.359 -0.5642  0.6665  0.0010
 9576TIP3    H150143   4.440   3.598   3.433  2.1718 -0.7762  0.7209
 9576TIP3    H250144   4.562   3.677   3.394 -0.0319  1.5180 -1.9522
 9577TIP3   OH250145   3.539   4.204  14.618 -0.2661  0.1880 -0.2509
 9577TIP3    H150146   3.498   4.261  14.553 -0.2998 -0.7953 -1.1329
 9577TIP3    H250147   3.466   4.155  14.656 -0.1561  0.1263 -0.1219
 9578TIP3   OH250148   2.105   0.531   0.208  0.3579 -0.1632  0.0083
 9578TIP3    H150149   2.134   0.622   0.202  2.7537 -0.9267 -1.4685
 9578TIP3    H250150   2.122   0.506   0.299 -0.0137  0.7598  0.3413
 9579TIP3   OH250151   6.283   5.560  12.339  0.1551  0.0947  0.1133
 9579TIP3    H150152   6.354   5.524  12.392 -0.4255  0.8899  1.4964
 9579TIP3    H250153   6.323   5.631  12.289  0.2942  0.7238  1.1005
 9580TIP3   OH250154   4.298   0.760  12.836 -0.0351  0.4367 -0.6046
 9580TIP3    H150155   4.234   0.743  12.905  1.2660 -0.0420  0.5428
 9580TIP3    H250156   4.288   0.853  12.816 -0.4505  0.5830  0.2401
 9581TIP3   OH250157   4.272   3.884  12.279 -0.4668 -0.0970 -0.0907
 9581TIP3    H150158   4.286   3.798  12.318 -0.9078  0.1523  0.6399
 9581TIP3    H250159   4.206   3.870  12.212  0.0553 -0.4688 -0.5352
 9582TIP3   OH250160   1.256   1.053  15.985 -0.2180  0.3413 -0.4798
 9582TIP3    H150161   1.333   1.110  15.991  0.0525 -0.1368  1.4187
 9582TIP3    H250162   1.291   0.968  15.958 -0.4412  0.7141 -2.0107
 9583TIP3   OH250163   6.084   1.329  11.645 -0.1337  0.1666 -0.1526
 9583TIP3    H150164   6.033   1.382  11.705 -0.1680  1.7168 -1.4921
 9583TIP3    H250165   6.169   1.373  11.639  1.9352 -2.9030  2.8231
 9584TIP3   OH250166   4.245   5.236  16.071 -0.2750  0.4202  0.0682
 9584TIP3    H150167   4.194   5.226  15.990  2.2249 -1.3704 -1.4115
 9584TIP3    H250168   4.241   5.150  16.113 -1.3401  1.2649  1.8384
 9585TIP3   OH250169   5.769   5.345  15.197 -0.2107  0.2784 -0.0662
 9585TIP3    H150170   5.683   5.382  15.176 -0.0925  0.4461 -0.2556
 9585TIP3    H250171   5.827   5.381  15.131  0.0840  0.4765  0.2988
 9586TIP3   OH250172   5.781   5.835  11.160 -0.2375 -0.1322 -0.8174
 9586TIP3    H150173   5.808   5.760  11.213 -1.5073 -0.3917 -0.4937
 9586TIP3    H250174   5.738   5.796  11.084  1.4346  0.2436 -2.0103
 9587TIP3   OH250175   4.032   5.036   4.866 -0.4020  0.3713  0.7145
 9587TIP3    H150176   4.127   5.037   4.863 -0.4019  1.0006  0.6680
 9587TIP3    H250177   4.004   5.020   4.776 -0.3424 -0.4989  0.8454
 9588TIP3   OH250178   1.672   6.395  16.950  0.4841 -0.6468  0.2903
 9588TIP3    H150179   1.758   6.374  16.986  1.0787 -1.7117 -1.5984
 9588TIP3    H250180   1.610   6.368  17.017  1.5235 -2.6145  0.5263
 9589TIP3   OH250181   6.303   6.633  13.105 -0.3026  0.1042  0.4353
 9589TIP3    H150182   6.304   6.636  13.201 -1.5460 -1.2999  0.5234
 9589TIP3    H250183   6.212   6.655  13.081  0.0013  0.4713 -0.4314
 9590TIP3   OH250184   1.072   0.053  12.810 -0.3098  0.2547 -0.0490
 9590TIP3    H150185   1.058   0.069  12.904 -0.8206 -0.8901  0.0842
 9590TIP3    H250186   1.145   0.111  12.787 -1.0526  1.5298  0.7375
 9591TIP3   OH250187   1.620   0.308  14.445  0.0705  0.4848  0.1666
 9591TIP3    H150188   1.690   0.326  14.507  0.4165 -1.6228  0.4879
 9591TIP3    H250189   1.663   0.303  14.360  0.3433 -0.7774  0.3596
 9592TIP3   OH250190   3.470   4.865   5.072 -0.6901 -0.2857 -0.2331
 9592TIP3    H150191   3.520   4.926   5.126  0.7808 -1.0128 -0.7206
 9592TIP3    H250192   3.391   4.912   5.048  0.5928  1.5939 -0.9685
 9593TIP3   OH250193   4.777   0.138   6.141 -0.0036  0.1064  0.1443
 9593TIP3    H150194   4.754   0.115   6.231  0.2095  1.2980  0.5266
 9593TIP3    H250195   4.706   0.194   6.111 -0.4477 -0.8807 -0.7076
 9594TIP3   OH250196   4.158   5.163  12.148 -0.1426 -0.0728 -0.4810
 9594TIP3    H150197   4.154   5.138  12.241  2.1968  1.0692 -0.0067
 9594TIP3    H250198   4.247   5.195  12.135 -0.8915  1.3606 -2.7383
 9595TIP3   OH250199   5.072   0.968  13.583 -0.1422  0.5321  0.1503
 9595TIP3    H150200   4.994   1.005  13.625 -0.5427  0.7437 -0.7722
 9595TIP3    H250201   5.042   0.936  13.499  0.6613  0.1012  0.0165
 9596TIP3   OH250202   1.506   3.743  16.670  0.3007  0.1882  0.0746
 9596TIP3    H150203   1.575   3.681  16.693  0.2225  0.0698 -0.0108
 9596TIP3    H250204   1.504   3.744  16.574  2.6890  2.9399 -0.0814
 9597TIP3   OH250205   4.174   5.360   5.800 -0.3263  0.5403  0.2949
 9597TIP3    H150206   4.268   5.343   5.795  0.0142  1.9536  1.2943
 9597TIP3    H250207   4.152   5.342   5.892 -0.9763  0.4824  0.1287
 9598TIP3   OH250208   6.167   4.165   1.857 -0.3302  0.4630 -0.3452
 9598TIP3    H150209   6.091   4.208   1.897 -1.0063  0.7598 -1.8668
 9598TIP3    H250210   6.140   4.073   1.848  0.6141 -0.0619  1.7066
 9599TIP3   OH250211   1.078   4.475  11.615  0.3639  0.2212 -0.3697
 9599TIP3    H150212   1.040   4.561  11.598  1.1685  0.3497 -1.6200
 9599TIP3    H250213   1.140   4.490  11.686 -0.7993  0.2984  0.6644
 9600TIP3   OH250214   5.991   5.007  16.005  0.2923  0.1582 -0.3564
 9600TIP3    H150215   5.911   5.017  15.954 -0.1203 -2.7943 -0.4437
 9600TIP3    H250216   5.961   4.988  16.093  0.8255 -1.4258 -0.4822
 9601TIP3   OH250217   4.489   0.158   3.283 -0.2849  1.0192 -0.3191
 9601TIP3    H150218   4.529   0.225   3.337  2.7036 -0.2791 -0.6767
 9601TIP3    H250219   4.471   0.086   3.343  1.8362  0.0710 -0.7220
 9602TIP3   OH250220   6.763   6.641  13.839 -0.5082 -0.0501  0.0689
 9602TIP3    H150221   6.843   6.606  13.878 -0.7992  0.2566  0.9884
 9602TIP3    H250222   6.755   6.596  13.755  2.4921  2.4005 -1.7684
 9603TIP3   OH250223   4.198   0.116  14.248 -0.5504 -0.0247 -0.1096
 9603TIP3    H150224   4.201   0.040  14.191 -0.8024 -1.1386  1.2953
 9603TIP3    H250225   4.131   0.173  14.210 -2.4777 -1.8551  0.3616
 9604TIP3   OH250226   2.023   6.049   5.824  0.3534  0.6421  0.0029
 9604TIP3    H150227   2.005   6.123   5.767  0.4485  1.7699  1.3982
 9604TIP3    H250228   1.939   6.025   5.862  0.5732  1.1194  0.8183
 9605TIP3   OH250229   6.587   2.832  11.513  0.0062 -0.1054  0.1871
 9605TIP3    H150230   6.637   2.888  11.454 -0.1776 -0.0463  0.0853
 9605TIP3    H250231   6.652   2.771  11.549  0.0073 -0.6097 -0.6309
 9606TIP3   OH250232   1.208   3.282  12.957 -0.8972 -0.0595  0.4151
 9606TIP3    H150233   1.174   3.195  12.935  1.8935 -1.1497 -0.0112
 9606TIP3    H250234   1.236   3.274  13.048 -0.3849  0.2795  0.2931
 9607TIP3   OH250235   6.021   3.057   4.389  0.3191 -0.2446 -0.2398
 9607TIP3    H150236   5.929   3.033   4.379  0.6818 -1.9707  0.1890
 9607TIP3    H250237   6.052   3.073   4.300 -0.3857  0.3352 -0.3888
 9608TIP3   OH250238   1.786   1.438  14.693 -0.3263  0.1676 -0.2149
 9608TIP3    H150239   1.811   1.422  14.603 -0.5990 -0.4769 -0.1799
 9608TIP3    H250240   1.828   1.521  14.715  0.7052 -0.2427 -0.5626
 9609TIP3   OH250241   0.780   0.303   5.931 -0.4540 -0.0320 -0.2098
 9609TIP3    H150242   0.737   0.324   5.849 -1.7539 -2.1138 -0.1432
 9609TIP3    H250243   0.796   0.387   5.973 -1.0688  0.9830 -1.9361
 9610TIP3   OH250244   3.395   5.352   2.528 -0.0196 -0.2630  0.3147
 9610TIP3    H150245   3.324   5.312   2.578  1.2951 -0.7418  1.8815
 9610TIP3    H250246   3.430   5.420   2.586  0.1545  0.6795 -0.8487
 9611TIP3   OH250247   6.587   5.647   4.066 -0.5144 -0.1395  0.2465
 9611TIP3    H150248   6.643   5.578   4.099 -2.7174 -2.5792 -0.7885
 9611TIP3    H250249   6.644   5.699   4.008  1.6630  0.2020  2.5278
 9612TIP3   OH250250   1.065   2.829  17.081 -0.1004  0.3604  0.0670
 9612TIP3    H150251   1.128   2.852  17.149  0.6526  0.0763 -0.5310
 9612TIP3    H250252   0.983   2.815  17.129  0.3580  0.4014  0.8852
 9613TIP3   OH250253   5.222   3.823   4.020 -0.8081  0.1677  0.1298
 9613TIP3    H150254   5.214   3.873   4.102  0.8689  0.5780  0.0824
 9613TIP3    H250255   5.299   3.768   4.033 -1.0129 -0.3916 -0.8783
 9614TIP3   OH250256   5.788   3.752   4.458 -0.3159 -0.4111  0.3957
 9614TIP3    H150257   5.736   3.832   4.452 -1.5903 -1.2796 -0.5385
 9614TIP3    H250258   5.811   3.732   4.367  0.1601 -1.0100  0.6415
 9615TIP3   OH250259   4.717   3.691   4.975 -0.3611  1.1674 -0.6304
 9615TIP3    H150260   4.759   3.612   4.941  0.1528  0.2645  1.8530
 9615TIP3    H250261   4.788   3.755   4.981  0.1931  0.4548  1.1630
 9616TIP3   OH250262   6.620   5.894   1.068 -0.1759 -0.2347  0.5694
 9616TIP3    H150263   6.623   5.862   1.158 -2.0036 -1.1027  0.3624
 9616TIP3    H250264   6.699   5.858   1.027 -0.3864 -1.5448  1.2800
 9617TIP3   OH250265   0.529   5.556  16.316 -0.0763  0.0060  0.6631
 9617TIP3    H150266   0.548   5.566  16.409  2.1843 -2.7004  0.6158
 9617TIP3    H250267   0.603   5.597  16.271 -0.0398 -0.6355  0.1194
 9618TIP3   OH250268   2.522   0.208   3.160 -0.2727  0.0185 -0.1376
 9618TIP3    H150269   2.551   0.219   3.251 -1.1041 -0.6892  0.2246
 9618TIP3    H250270   2.429   0.231   3.161  0.1581  2.0447 -1.2459
 9619TIP3   OH250271   5.271   0.183   5.161  0.7619  0.4141  0.1685
 9619TIP3    H150272   5.296   0.226   5.079  1.1619  1.8468  1.0039
 9619TIP3    H250273   5.261   0.255   5.223 -0.6120 -0.5626  1.1137
 9620TIP3   OH250274   3.752   0.864  17.004  0.3282  0.2435 -0.3190
 9620TIP3    H150275   3.684   0.798  16.989 -0.2013  0.6739  0.1338
 9620TIP3    H250276   3.739   0.928  16.934  0.1437  0.4203 -0.1260
 9621TIP3   OH250277   1.452   3.846   0.814  0.2252  0.3259 -0.3323
 9621TIP3    H150278   1.371   3.861   0.864  1.0318 -1.0507  1.5027
 9621TIP3    H250279   1.500   3.928   0.820  0.0703  0.3446  0.7357
 9622TIP3   OH250280   5.228   0.876   0.423 -0.0940  0.3947  0.0414
 9622TIP3    H150281   5.288   0.808   0.392  0.4766  0.1216  1.6379
 9622TIP3    H250282   5.283   0.954   0.430 -0.7121  1.0255 -1.6332
 9623TIP3   OH250283   0.028   3.800   6.816  0.1881 -0.0044 -0.6413
 9623TIP3    H150284   0.085   3.870   6.785  1.2366 -0.1033  0.9884
 9623TIP3    H250285   0.070   3.720   6.786  0.4073 -0.0362 -0.2559
 9624TIP3   OH250286   6.618   6.707   0.277  0.0019 -0.3769 -0.6138
 9624TIP3    H150287   6.656   6.628   0.314 -0.2474 -0.3321 -0.2559
 9624TIP3    H250288   6.583   6.680   0.193  0.8257 -0.4178 -0.9495
 9625TIP3   OH250289   3.522   1.689  11.282  0.1484  0.5719  0.4375
 9625TIP3    H150290   3.427   1.688  11.272  0.0710 -0.7879  1.0539
 9625TIP3    H250291   3.548   1.780  11.264 -1.1988  0.8354 -0.2521
 9626TIP3   OH250292   2.891   3.642  15.898 -0.5906 -0.4401  0.4803
 9626TIP3    H150293   2.941   3.568  15.932  2.0275  0.3316 -1.4036
 9626TIP3    H250294   2.937   3.719  15.931 -2.5382  0.4298  1.3733
 9627TIP3   OH250295   6.271   5.908  12.457  0.2201  0.0940 -0.4621
 9627TIP3    H150296   6.204   5.853  12.418  0.5408  0.0453 -0.9495
 9627TIP3    H250297   6.257   5.994  12.417 -0.8056  0.5984  0.9020
 9628TIP3   OH250298   2.599   0.613  14.380  0.3598  0.1113 -0.3462
 9628TIP3    H150299   2.602   0.684  14.444  0.5641 -0.6968  0.5657
 9628TIP3    H250300   2.611   0.656  14.296  1.3074  1.0597  0.2543
 9629TIP3   OH250301   2.566   0.629  15.897 -0.0014 -0.1085  0.0192
 9629TIP3    H150302   2.584   0.723  15.906  0.9653 -0.2603 -0.2351
 9629TIP3    H250303   2.624   0.587  15.961  1.3186 -0.6742 -1.4653
 9630TIP3   OH250304   2.240   3.097  13.759 -0.6791  1.0355  0.2140
 9630TIP3    H150305   2.222   3.017  13.710  3.3946 -0.0556  0.1274
 9630TIP3    H250306   2.217   3.168  13.700 -2.0903 -0.1062 -0.6534
 9631TIP3   OH250307   1.980   4.262  13.116  0.1999  0.1284 -0.6613
 9631TIP3    H150308   1.969   4.246  13.022  0.9696  0.5629 -0.8291
 9631TIP3    H250309   2.006   4.178  13.152 -1.0909 -0.3011 -0.6571
 9632TIP3   OH250310   6.401   1.097  14.029  0.1330 -0.5186  0.0823
 9632TIP3    H150311   6.370   1.111  14.119 -1.2514  1.1264 -0.6055
 9632TIP3    H250312   6.379   1.178  13.983  1.3694 -1.0944 -1.6104
 9633TIP3   OH250313   4.105   3.049   3.550  0.3508 -0.2738  0.5772
 9633TIP3    H150314   4.113   2.983   3.620  2.0799 -1.3838 -0.6055
 9633TIP3    H250315   4.045   3.009   3.487 -1.7707  1.0183  1.6554
 9634TIP3   OH250316   6.005   4.667  11.708 -0.1401 -0.4667  0.1788
 9634TIP3    H150317   6.079   4.721  11.738 -0.0532  0.7994 -2.1386
 9634TIP3    H250318   6.030   4.578  11.733  1.8861  0.0111  0.0633
 9635TIP3   OH250319   1.075   0.790   5.520 -0.5455 -0.4990  0.3495
 9635TIP3    H150320   1.016   0.714   5.524 -0.0070 -0.8690  2.1535
 9635TIP3    H250321   1.021   0.863   5.550 -1.5347  0.2321 -2.8755
 9636TIP3   OH250322   5.337   0.465  14.708  0.2105 -0.1868 -0.2469
 9636TIP3    H150323   5.361   0.421  14.789  2.1430  0.9935 -0.1100
 9636TIP3    H250324   5.269   0.527  14.733 -0.8628 -1.4166 -0.0085
 9637TIP3   OH250325   2.482   1.663   1.484 -0.9222 -0.3876 -0.7853
 9637TIP3    H150326   2.404   1.623   1.444 -1.9268  0.4106  0.3002
 9637TIP3    H250327   2.530   1.590   1.521 -0.3912 -1.0555 -2.6744
 9638TIP3   OH250328   1.672   1.452  11.607  0.2787 -0.0253  0.1584
 9638TIP3    H150329   1.610   1.440  11.680  0.1173 -0.0401  0.0206
 9638TIP3    H250330   1.616   1.475  11.533  0.5010  0.6606  0.1941
 9639TIP3   OH250331   0.311   0.942   6.650  0.0604  0.5593 -0.0152
 9639TIP3    H150332   0.399   0.932   6.613 -0.2159  0.9469 -0.8057
 9639TIP3    H250333   0.322   1.006   6.720  0.9196 -1.4661  1.8113
 9640TIP3   OH250334   0.066   6.555  12.683  0.0208 -0.5689  0.3428
 9640TIP3    H150335   0.023   6.571  12.599 -2.6698 -2.0577  1.3256
 9640TIP3    H250336   0.098   6.465  12.677  0.2999 -0.5000  0.7284
 9641TIP3   OH250337   3.393   4.011   0.860 -0.1107  0.6524  0.7978
 9641TIP3    H150338   3.450   4.083   0.831  0.0013 -0.2639 -1.5059
 9641TIP3    H250339   3.429   3.934   0.816 -1.9510 -0.2889  0.8756
 9642TIP3   OH250340   4.648   0.604   6.184 -0.2594  0.2375 -0.0123
 9642TIP3    H150341   4.648   0.520   6.229  0.5411  0.4335  0.3726
 9642TIP3    H250342   4.690   0.664   6.245  0.6011  0.5636 -0.9028
 9643TIP3   OH250343   3.347   3.843  14.329  0.3074  0.5034  0.2454
 9643TIP3    H150344   3.328   3.931  14.295 -0.3640  0.6929  1.0645
 9643TIP3    H250345   3.266   3.817  14.373 -0.1479 -1.2898 -1.4889
 9644TIP3   OH250346   6.093   2.664  13.358  0.0929 -0.0497  0.3280
 9644TIP3    H150347   6.129   2.692  13.442  0.4374 -0.5594  0.3523
 9644TIP3    H250348   6.156   2.695  13.293 -1.7368  3.2543 -0.0823
 9645TIP3   OH250349   5.732   4.713  12.581  0.1569 -0.4708  0.1626
 9645TIP3    H150350   5.689   4.647  12.636 -0.5093 -1.0310 -0.9743
 9645TIP3    H250351   5.807   4.743  12.632 -0.8081 -0.4858  1.6372
 9646TIP3   OH250352   2.629   6.497  12.911 -0.2082  0.2192 -0.3223
 9646TIP3    H150353   2.604   6.545  12.832  0.1773  0.1529 -0.4865
 9646TIP3    H250354   2.674   6.420  12.878 -0.1075  0.1572 -0.0376
 9647TIP3   OH250355   1.786   2.677  11.146  0.9163 -0.5386 -0.1870
 9647TIP3    H150356   1.876   2.697  11.172  0.3135 -0.5107  2.0563
 9647TIP3    H250357   1.739   2.664  11.228 -0.8343 -1.9697 -1.3356
 9648TIP3   OH250358   2.354   1.278  13.953  0.3432 -0.0098  0.6307
 9648TIP3    H150359   2.442   1.299  13.922 -0.1563  0.9034 -0.2528
 9648TIP3    H250360   2.346   1.325  14.035 -0.1411  1.9458 -0.4747
 9649TIP3   OH250361   2.253   3.026   2.795 -0.1424 -0.0380 -0.1763
 9649TIP3    H150362   2.265   2.939   2.832  0.6913 -0.0473 -0.4349
 9649TIP3    H250363   2.336   3.045   2.751  0.2279  1.4887  1.0941
 9650TIP3   OH250364   6.226   0.095   4.430 -0.2363 -0.4456 -0.0574
 9650TIP3    H150365   6.281   0.079   4.507  0.4600  1.4916 -0.0920
 9650TIP3    H250366   6.282   0.073   4.356  0.9453  2.3337 -0.1298
 9651TIP3   OH250367   2.410   0.748   0.352 -0.0446  0.5238 -0.1236
 9651TIP3    H150368   2.469   0.823   0.347 -2.3238  2.4886  0.3516
 9651TIP3    H250369   2.343   0.766   0.285 -1.8115  0.0561  1.4386
 9652TIP3   OH250370   4.279   3.332  14.831 -0.7414 -0.0863 -0.4870
 9652TIP3    H150371   4.232   3.270  14.776  0.1410 -1.6369  0.4459
 9652TIP3    H250372   4.221   3.345  14.907 -1.2858  0.8886 -1.0516
 9653TIP3   OH250373   5.544   3.632   0.068  0.0894  0.7749  0.0879
 9653TIP3    H150374   5.529   3.700   0.002 -0.4096  0.1170 -0.5001
 9653TIP3    H250375   5.462   3.583   0.070  0.4420  0.1938  0.5051
 9654TIP3   OH250376   5.015   4.144  14.973 -0.0910 -0.4223 -0.7974
 9654TIP3    H150377   5.081   4.157  14.905  1.5747 -1.3058  0.5625
 9654TIP3    H250378   5.014   4.049  14.988  1.0542 -0.1006  1.7402
 9655TIP3   OH250379   4.634   5.316   1.588  0.2938  0.4381 -0.1039
 9655TIP3    H150380   4.673   5.357   1.511 -0.0648  0.8807 -0.0536
 9655TIP3    H250381   4.664   5.225   1.585  2.4742  1.0591  0.6655
 9656TIP3   OH250382   0.349   0.082  16.632  0.0862  0.1837  0.1215
 9656TIP3    H150383   0.337   0.177  16.628  1.0199  0.4132  1.7434
 9656TIP3    H250384   0.263   0.048  16.658 -0.2636  0.5785 -0.5054
 9657TIP3   OH250385   0.672   2.327  16.353 -0.4150 -0.0197  0.2032
 9657TIP3    H150386   0.737   2.333  16.424 -1.4659  1.8598  1.0848
 9657TIP3    H250387   0.624   2.246  16.371 -0.0981 -0.0083  1.1550
 9658TIP3   OH250388   3.246   6.076   3.702 -0.1388 -0.1458  0.0186
 9658TIP3    H150389   3.267   6.168   3.720 -0.1853  0.3387 -2.0797
 9658TIP3    H250390   3.295   6.027   3.767  1.8727  1.2708 -0.3312
 9659TIP3   OH250391   5.077   6.504   1.812 -0.0170  0.1213 -0.0809
 9659TIP3    H150392   5.148   6.534   1.869  0.2351  0.1846 -0.4238
 9659TIP3    H250393   5.059   6.415   1.841 -0.3934  0.4061  0.5828
 9660TIP3   OH250394   2.164   6.170   2.691 -0.3899 -0.7859  0.1399
 9660TIP3    H150395   2.214   6.228   2.748  1.1289 -1.6260 -0.2820
 9660TIP3    H250396   2.116   6.113   2.751 -0.4592 -0.3016  0.5509
 9661TIP3   OH250397   4.062   3.680  10.260 -0.4025  0.2929 -0.1807
 9661TIP3    H150398   4.059   3.776  10.262  3.0042  0.4962  1.8181
 9661TIP3    H250399   4.154   3.659  10.244 -1.2647 -2.7339 -1.8844
 9662TIP3   OH250400   2.286   2.417   2.073 -0.0547  0.1656  0.3582
 9662TIP3    H150401   2.236   2.354   2.125  0.9621 -0.6133  0.4254
 9662TIP3    H250402   2.298   2.374   1.988  0.9550  0.1062  0.5207
 9663TIP3   OH250403   5.875   4.435  14.550  0.2709  0.7360  0.6329
 9663TIP3    H150404   5.965   4.428  14.517  0.2344 -1.2691  0.8329
 9663TIP3    H250405   5.879   4.403  14.640 -0.8854 -0.8998  0.1474
 9664TIP3   OH250406   3.188   0.144   4.381  0.3891  0.5460  0.3183
 9664TIP3    H150407   3.142   0.166   4.461 -0.2043  0.9573 -0.1290
 9664TIP3    H250408   3.132   0.079   4.338  1.4447 -0.8642  0.9562
 9665TIP3   OH250409   5.739   0.011  14.437 -0.1799 -0.4180  0.0039
 9665TIP3    H150410   5.804  -0.009  14.370 -1.6588 -1.0583 -1.2838
 9665TIP3    H250411   5.669  -0.052  14.422 -1.2886  0.5136  1.1035
 9666TIP3   OH250412   0.069   0.223   0.780 -0.2714  0.4097 -0.2317
 9666TIP3    H150413   0.127   0.175   0.720  1.4508  0.7584  1.0539
 9666TIP3    H250414  -0.016   0.224   0.737  0.2974 -1.4904 -1.4971
 9667TIP3   OH250415   4.572   6.025  15.966  0.5232  0.3169  0.0137
 9667TIP3    H150416   4.502   6.075  16.007 -0.5453  0.4834 -1.8927
 9667TIP3    H250417   4.605   5.968  16.035 -0.7947  0.9593  1.2185
 9668TIP3   OH250418   0.809   0.555   6.054  0.0819 -0.4118  0.4194
 9668TIP3    H150419   0.842   0.533   6.142  1.1735 -2.5086 -0.4542
 9668TIP3    H250420   0.877   0.611   6.017  1.4359 -2.4702 -0.3566
 9669TIP3   OH250421   2.571   4.605  14.577  0.1729  0.3210  0.1670
 9669TIP3    H150422   2.665   4.590  14.585  0.3246  1.3523  0.5078
 9669TIP3    H250423   2.533   4.566  14.656  0.2889 -0.2640 -0.0645
 9670TIP3   OH250424   3.591   2.486   2.737 -0.2549  0.3158 -0.2504
 9670TIP3    H150425   3.556   2.398   2.726 -0.7064  0.4696 -0.0611
 9670TIP3    H250426   3.567   2.532   2.656 -0.1445  0.3069 -0.2884
 9671TIP3   OH250427   1.250   0.867  11.269 -0.0213  0.3859  0.3033
 9671TIP3    H150428   1.186   0.909  11.212 -0.5675  1.1082  1.4202
 9671TIP3    H250429   1.334   0.905  11.244  0.1839 -1.2221 -1.7988
 9672TIP3   OH250430   5.875   5.235  12.089 -0.3218  0.2875 -0.2897
 9672TIP3    H150431   5.902   5.298  12.023  0.8806  1.6515  1.4171
 9672TIP3    H250432   5.956   5.193  12.117 -0.8709 -0.6353 -0.0350
 9673TIP3   OH250433   2.883   5.355  10.991 -0.2600 -0.6766  0.6371
 9673TIP3    H150434   2.875   5.263  10.968 -0.1443 -0.1037 -1.8921
 9673TIP3    H250435   2.967   5.382  10.954 -0.4315  0.5215  1.0775
 9674TIP3   OH250436   0.423   2.069   3.062 -0.1130 -0.6726  0.5597
 9674TIP3    H150437   0.405   2.020   3.142  0.9369 -1.8860  0.0955
 9674TIP3    H250438   0.406   2.006   2.991 -4.0506  1.2167 -0.4482
 9675TIP3   OH250439   4.758   3.847   2.116  0.4564 -0.1428  0.2143
 9675TIP3    H150440   4.710   3.889   2.045 -0.1561 -1.5722 -0.2326
 9675TIP3    H250441   4.708   3.869   2.195  0.7681  0.8818  0.1412
 9676TIP3   OH250442   5.370   5.981  13.185 -0.0566  0.2266 -0.0830
 9676TIP3    H150443   5.313   6.034  13.130 -0.3309 -1.0813 -1.1249
 9676TIP3    H250444   5.316   5.956  13.260 -0.1180  0.8753  0.0933
 9677TIP3   OH250445   5.770   6.156  16.566 -0.2374 -0.1572 -0.2715
 9677TIP3    H150446   5.815   6.241  16.560  0.3415 -0.5475 -2.2687
 9677TIP3    H250447   5.679   6.178  16.588  0.1378  0.8874  0.3105
 9678TIP3   OH250448   3.789   4.923  16.821  0.1977 -0.2852 -0.2265
 9678TIP3    H150449   3.837   4.853  16.776 -1.4357 -0.3793 -1.9058
 9678TIP3    H250450   3.764   4.884  16.905  0.9850 -1.0323 -0.3200
 9679TIP3   OH250451   3.119   3.014  11.756  0.0524  0.2986 -0.2147
 9679TIP3    H150452   3.172   3.080  11.711 -1.6035  0.9956 -1.2424
 9679TIP3    H250453   3.182   2.961  11.804  1.4804  2.3527  0.2974
 9680TIP3   OH250454   2.728   5.112   3.464  0.0330  0.6038  0.5571
 9680TIP3    H150455   2.739   5.146   3.375  1.8979  2.2249  1.3279
 9680TIP3    H250456   2.642   5.143   3.491 -1.8265 -2.1933 -1.5222
 9681TIP3   OH250457   1.386   4.478   0.834  0.3853  0.2034 -0.4411
 9681TIP3    H150458   1.361   4.441   0.919 -1.8322  1.2258 -0.5654
 9681TIP3    H250459   1.392   4.573   0.850 -0.5818  0.4661 -1.4997
 9682TIP3   OH250460   5.727   0.115  12.770  0.4093  0.6378 -0.0805
 9682TIP3    H150461   5.680   0.106  12.687  0.4669 -0.4500 -0.0058
 9682TIP3    H250462   5.795   0.047  12.766  1.1291  1.3072  0.3872
 9683TIP3   OH250463   4.703   6.536   2.263 -0.0267  0.3662  0.2108
 9683TIP3    H150464   4.690   6.627   2.288 -1.3612  0.6478 -1.3609
 9683TIP3    H250465   4.616   6.496   2.272  0.8588 -1.2291  2.5417
 9684TIP3   OH250466   2.113   0.015   2.326 -0.1099  0.3726  0.4981
 9684TIP3    H150467   2.185   0.057   2.278  0.7378 -0.3260  1.1060
 9684TIP3    H250468   2.140   0.021   2.418 -1.6147  1.5282  0.8991
 9685TIP3   OH250469   6.042   6.137  15.489  0.0068 -0.4752  0.4453
 9685TIP3    H150470   6.032   6.189  15.409 -3.0928 -2.5569 -0.7129
 9685TIP3    H250471   5.968   6.163  15.544 -1.1209 -2.9170  0.1902
 9686TIP3   OH250472   5.859   0.499   5.350 -0.4671 -0.2473 -0.2083
 9686TIP3    H150473   5.801   0.556   5.401  0.0712 -0.0274  0.1673
 9686TIP3    H250474   5.828   0.508   5.260  0.1277  1.3336 -0.2960
 9687TIP3   OH250475   5.620   6.099   4.538 -0.3276 -0.2901  0.4859
 9687TIP3    H150476   5.680   6.134   4.604 -0.8178  0.8950  0.3261
 9687TIP3    H250477   5.536   6.090   4.584 -0.6186  0.3455  0.1013
 9688TIP3   OH250478   5.713   3.390  15.230  0.4513  0.4305  0.6125
 9688TIP3    H150479   5.697   3.328  15.158  0.7711 -0.1499  1.0401
 9688TIP3    H250480   5.697   3.476  15.190  0.7154  0.1267 -0.1852
 9689TIP3   OH250481   5.774   6.702   5.492 -0.3400 -0.8868  0.1365
 9689TIP3    H150482   5.794   6.772   5.553 -0.0297  1.1885 -2.1748
 9689TIP3    H250483   5.683   6.677   5.512 -0.8371  0.9599  0.3320
 9690TIP3   OH250484   5.383   1.990  10.451  0.3786 -0.3576 -0.0635
 9690TIP3    H150485   5.338   1.929  10.509  1.0694  0.3253  1.2331
 9690TIP3    H250486   5.312   2.035  10.404 -0.1629 -1.3516 -0.2200
 9691TIP3   OH250487   3.196   1.451  16.685 -0.3048 -0.1868  0.0694
 9691TIP3    H150488   3.225   1.391  16.754 -0.9121 -0.8871 -0.2754
 9691TIP3    H250489   3.143   1.516  16.730 -0.3902 -0.4269  0.3137
 9692TIP3   OH250490   6.144   4.699  15.479  0.3509  0.0587 -0.1742
 9692TIP3    H150491   6.069   4.699  15.420 -1.6864  0.2329  2.2152
 9692TIP3    H250492   6.191   4.618  15.458  0.4366  0.6883 -2.7647
 9693TIP3   OH250493   4.340   5.227  12.961  0.1238  0.0713  0.1927
 9693TIP3    H150494   4.340   5.182  13.046 -0.0040 -0.8830 -0.3018
 9693TIP3    H250495   4.425   5.272  12.958 -0.9656  2.5082  2.0262
 9694TIP3   OH250496   0.373   2.582  14.561 -0.3706  0.3013  0.3829
 9694TIP3    H150497   0.307   2.554  14.498  0.0716  1.2220 -0.5144
 9694TIP3    H250498   0.456   2.577  14.514 -0.1094  1.5979  0.6642
 9695TIP3   OH250499   3.255   6.566  13.342 -0.3005  0.3131  0.0640
 9695TIP3    H150500   3.331   6.510  13.325  0.6520  1.9905 -1.6475
 9695TIP3    H250501   3.242   6.562  13.437  2.8441  1.0708  0.6279
 9696TIP3   OH250502   1.675   5.166  10.437 -0.4348 -0.5159  0.6787
 9696TIP3    H150503   1.719   5.228  10.380 -0.7816  0.0874  1.0604
 9696TIP3    H250504   1.702   5.190  10.525 -1.5349 -0.1065  0.9241
 9697TIP3   OH250505   0.137   1.763   6.220 -0.1170 -0.6041 -0.2768
 9697TIP3    H150506   0.137   1.858   6.225  0.8612 -0.5291 -1.2916
 9697TIP3    H250507   0.071   1.735   6.284  0.1625  0.7146  0.6159
 9698TIP3   OH250508   4.924   5.814   3.592 -0.3179  0.5329  0.2690
 9698TIP3    H150509   4.875   5.879   3.642 -1.1795 -0.0913  0.2458
 9698TIP3    H250510   4.892   5.730   3.623  1.3509  0.0705  0.8699
 9699TIP3   OH250511   0.396   1.522  12.289 -0.3137 -0.3143 -0.4656
 9699TIP3    H150512   0.484   1.557  12.298  0.0896 -1.1892 -0.9210
 9699TIP3    H250513   0.380   1.521  12.194 -1.3574  1.1319 -0.3434
 9700TIP3   OH250514   2.157   0.040  11.370 -1.0536  0.5515  0.2251
 9700TIP3    H150515   2.106   0.009  11.445 -1.7826  0.1993 -0.4030
 9700TIP3    H250516   2.151  -0.031  11.306  0.1090  0.5683  0.0737
 9701TIP3   OH250517   3.187   2.158  16.724  0.3194  0.1869 -0.1014
 9701TIP3    H150518   3.256   2.109  16.680 -1.4306 -1.5778 -1.0621
 9701TIP3    H250519   3.200   2.249  16.697  0.4014 -0.5678 -2.8690
 9702TIP3   OH250520   6.538   5.172   2.590  0.0636 -0.8637  0.1993
 9702TIP3    H150521   6.485   5.101   2.627 -2.3085  0.9778  0.5960
 9702TIP3    H250522   6.543   5.151   2.497  1.6302 -2.8222  0.6544
 9703TIP3   OH250523   5.321   4.792  14.642 -0.0280  0.5404  0.2504
 9703TIP3    H150524   5.320   4.736  14.720  0.1534  0.2335  0.0344
 9703TIP3    H250525   5.249   4.759  14.588 -0.3375  0.9362  0.4109
 9704TIP3   OH250526   4.360   5.897  14.858  0.2399 -0.1383  0.7442
 9704TIP3    H150527   4.295   5.888  14.928 -0.3368 -0.1070  0.2238
 9704TIP3    H250528   4.314   5.943  14.789  1.2617  1.2204  0.9189
 9705TIP3   OH250529   1.818   2.171   4.989  0.3387  0.5975 -0.2421
 9705TIP3    H150530   1.859   2.161   5.075  0.8438  0.0913 -0.5342
 9705TIP3    H250531   1.759   2.096   4.982  0.6624  0.3669 -0.5320
 9706TIP3   OH250532   1.911   4.406   0.993 -0.2328  0.5230 -0.0179
 9706TIP3    H150533   1.956   4.329   0.958 -1.9580 -0.5104 -0.0933
 9706TIP3    H250534   1.980   4.471   1.004  2.3065 -2.3853  4.4545
 9707TIP3   OH250535   3.092   1.338   2.214 -0.2214 -0.6039 -0.0836
 9707TIP3    H150536   3.020   1.386   2.255 -0.1668  0.2892 -0.9814
 9707TIP3    H250537   3.164   1.344   2.277 -0.1456  0.7178 -0.2620
 9708TIP3   OH250538   4.637   2.281   0.671  0.5132 -0.9066  0.4868
 9708TIP3    H150539   4.595   2.363   0.698  1.0394 -0.3438 -0.3849
 9708TIP3    H250540   4.618   2.273   0.578 -1.2086 -2.7991  0.9310
 9709TIP3   OH250541   6.813   6.220  13.755 -0.4766 -0.8286  0.1265
 9709TIP3    H150542   6.744   6.189  13.814 -0.9857  0.4052  0.2210
 9709TIP3    H250543   6.794   6.313  13.744  0.8794 -0.5845 -0.2729
 9710TIP3   OH250544   5.027   1.269   0.993 -0.2281 -0.7953 -0.0792
 9710TIP3    H150545   5.009   1.276   1.087  1.2198  0.9979  0.1231
 9710TIP3    H250546   5.021   1.175   0.974  2.4682 -1.6409  2.4803
 9711TIP3   OH250547   2.689   3.891   4.815  0.4054 -0.0208 -0.9282
 9711TIP3    H150548   2.680   3.796   4.812  0.7617 -0.0395 -1.6741
 9711TIP3    H250549   2.599   3.923   4.824  0.3188 -0.4324 -0.2691
 9712TIP3   OH250550   1.109   2.128   6.334  0.4414  1.2010 -0.2301
 9712TIP3    H150551   1.030   2.146   6.385 -1.1546 -1.0017 -1.6962
 9712TIP3    H250552   1.174   2.101   6.400 -0.8545  0.5564  0.8540
 9713TIP3   OH250553   1.900   6.515  13.750  0.3159  0.3556  0.4340
 9713TIP3    H150554   1.890   6.430  13.791 -2.0408  0.3368 -0.0787
 9713TIP3    H250555   1.928   6.495  13.661 -0.8513  0.0512  0.1191
 9714TIP3   OH250556   3.513   3.628  16.731 -0.1398  0.0543  0.2470
 9714TIP3    H150557   3.574   3.623  16.804  0.5846  0.9837 -0.2697
 9714TIP3    H250558   3.561   3.590  16.657 -1.8774 -3.6350  0.7989
 9715TIP3   OH250559   5.413   2.076   5.551  0.5453 -0.3863  0.3437
 9715TIP3    H150560   5.437   1.985   5.566 -2.0089 -1.3464 -0.8613
 9715TIP3    H250561   5.343   2.093   5.614  1.5337  1.0592  1.1179
 9716TIP3   OH250562   1.404   1.096  16.865  0.0298  0.6888  0.0563
 9716TIP3    H150563   1.408   1.038  16.788  1.1990  1.4334 -0.4647
 9716TIP3    H250564   1.337   1.160  16.843 -0.2459  0.3942  0.0257
 9717TIP3   OH250565   0.869   5.858  15.422 -0.0348 -0.5845  0.0240
 9717TIP3    H150566   0.901   5.869  15.512  0.2102 -0.3708 -0.0880
 9717TIP3    H250567   0.774   5.857  15.430 -0.0307  0.1459  0.2103
 9718TIP3   OH250568   2.081   4.169  16.723  0.8157 -0.0704 -0.0752
 9718TIP3    H150569   2.077   4.086  16.771  0.4087  0.2873  0.5120
 9718TIP3    H250570   2.099   4.142  16.632  0.2407 -0.8381  0.0225
 9719TIP3   OH250571   5.258   3.856   6.598 -0.0242  0.5361  0.6246
 9719TIP3    H150572   5.175   3.903   6.587 -1.2576 -1.6152  0.0795
 9719TIP3    H250573   5.321   3.924   6.623 -1.7541  2.3775  0.2783
 9720TIP3   OH250574   5.354   2.870   4.074  0.6854  0.0461  0.1002
 9720TIP3    H150575   5.387   2.880   4.164  1.5406  1.1040 -0.3109
 9720TIP3    H250576   5.433   2.861   4.021  0.1778 -0.9220 -0.5225
 9721TIP3   OH250577   2.016   2.198  11.320  0.2218  0.2890  0.2226
 9721TIP3    H150578   1.980   2.110  11.334 -0.1181  0.4761  0.5379
 9721TIP3    H250579   1.942   2.248  11.285  0.4267  0.4393  0.0050
 9722TIP3   OH250580   6.547   1.271   4.949  0.3933 -0.4487 -0.4117
 9722TIP3    H150581   6.602   1.265   5.027 -0.6901  0.2730  0.4448
 9722TIP3    H250582   6.525   1.364   4.943  1.8578 -0.1837 -2.6065
 9723TIP3   OH250583   3.054   6.724  14.588 -0.4640 -0.1006  0.1130
 9723TIP3    H150584   3.020   6.748  14.502  0.3843  1.8324  0.2635
 9723TIP3    H250585   3.033   6.798  14.644 -0.7007 -1.1800  1.5226
 9724TIP3   OH250586   6.728   1.176  11.253  0.2804 -0.3155  0.6442
 9724TIP3    H150587   6.644   1.134  11.236  0.4612  0.0022 -1.3924
 9724TIP3    H250588   6.789   1.129  11.195  1.2840  0.1920  1.2632
 9725TIP3   OH250589   1.367   6.006   1.892  0.1845 -0.8649  0.1256
 9725TIP3    H150590   1.304   5.990   1.962  0.7106 -0.0925  0.7977
 9725TIP3    H250591   1.397   5.919   1.866  1.2401 -1.1277  2.0387
 9726TIP3   OH250592   2.552   6.210  10.978 -0.5137 -0.0905  0.2718
 9726TIP3    H150593   2.612   6.283  10.994 -0.4712  0.3041 -1.4249
 9726TIP3    H250594   2.478   6.226  11.036 -0.3842  1.1677  0.1210
 9727TIP3   OH250595   4.416   1.413  14.810 -0.4714  0.1231  0.2558
 9727TIP3    H150596   4.374   1.337  14.770 -1.4842  0.1723  1.1730
 9727TIP3    H250597   4.371   1.488  14.773  0.7436  0.3267 -0.8934
 9728TIP3   OH250598   4.109   6.511   1.493  0.1872  0.0903 -0.0501
 9728TIP3    H150599   4.086   6.561   1.414 -1.5570 -0.5820 -0.0130
 9728TIP3    H250600   4.090   6.571   1.565 -0.2956 -0.0328 -0.0707
 9729TIP3   OH250601   0.418   5.566   3.353 -0.3043  0.1346  0.8177
 9729TIP3    H150602   0.455   5.652   3.331  1.9973 -1.0134 -0.1778
 9729TIP3    H250603   0.401   5.570   3.447  3.6166  0.4759  1.6902
 9730TIP3   OH250604   6.620   5.831  13.600 -0.3882  0.2020 -0.4743
 9730TIP3    H150605   6.559   5.838  13.526 -0.1878 -0.5008 -0.7172
 9730TIP3    H250606   6.661   5.745  13.589  1.6183  1.1711 -1.0720
 9731TIP3   OH250607   1.707   0.566   4.892  0.0928  0.1473 -0.0951
 9731TIP3    H150608   1.767   0.500   4.858 -0.4799 -0.4797  0.0925
 9731TIP3    H250609   1.733   0.577   4.984 -0.1752 -0.2244  0.0223
 9732TIP3   OH250610   1.478   0.845   4.447  0.0298  0.1579 -0.0770
 9732TIP3    H150611   1.441   0.895   4.374  0.4953  0.1289 -0.3388
 9732TIP3    H250612   1.564   0.886   4.463  1.1588 -1.5438 -1.3882
 9733TIP3   OH250613   1.296   0.161   4.316  0.6007 -0.0830 -0.2691
 9733TIP3    H150614   1.353   0.150   4.393  0.1156 -0.3845  0.0500
 9733TIP3    H250615   1.274   0.072   4.289  0.1101  0.0300 -0.2582
 9734TIP3   OH250616   2.155   5.636  15.500 -0.3164  0.1904 -0.5573
 9734TIP3    H150617   2.088   5.569  15.489 -1.0805  0.5817  1.3606
 9734TIP3    H250618   2.107   5.718  15.499  0.3113  0.5627 -0.4888
 9735TIP3   OH250619   5.070   2.919  13.304  0.2074 -0.9436  0.0657
 9735TIP3    H150620   5.026   2.860  13.242 -0.1745 -2.9099  2.0842
 9735TIP3    H250621   4.998   2.965  13.347  0.3474 -1.1596  0.5277
 9736TIP3   OH250622   2.647   2.305  10.903 -0.5108 -0.4329 -0.2006
 9736TIP3    H150623   2.705   2.243  10.860 -0.6195  0.8904 -2.3651
 9736TIP3    H250624   2.593   2.250  10.961  1.8323 -1.8535  0.7884
 9737TIP3   OH250625   3.370   3.726   3.412  0.1792 -0.4043 -0.3103
 9737TIP3    H150626   3.316   3.735   3.490  1.6846 -0.5203  0.7944
 9737TIP3    H250627   3.387   3.816   3.384  2.3948 -0.1395  1.5443
 9738TIP3   OH250628   1.431   5.759   3.561  0.2616 -0.5123  0.0922
 9738TIP3    H150629   1.441   5.698   3.488 -0.2706 -1.0827  0.4831
 9738TIP3    H250630   1.408   5.703   3.636  1.2307  0.0149  0.7977
 9739TIP3   OH250631   4.295   1.964  13.364  0.0096  0.6827 -0.5961
 9739TIP3    H150632   4.325   1.996  13.449  2.0482  0.5963 -1.2328
 9739TIP3    H250633   4.235   1.892  13.385 -1.0833  1.9254  0.7700
 9740TIP3   OH250634   4.252   3.611  17.013 -0.1823  0.3989 -0.0011
 9740TIP3    H150635   4.208   3.689  17.047 -2.5552 -1.1976  0.8199
 9740TIP3    H250636   4.182   3.560  16.972  1.6534 -0.4218 -2.2977
 9741TIP3   OH250637   4.280   4.982   1.046  0.1185 -0.6594 -0.2018
 9741TIP3    H150638   4.322   4.934   0.975  1.8297 -1.3273  1.1857
 9741TIP3    H250639   4.339   5.056   1.063 -0.2322 -0.5425  0.5541
 9742TIP3   OH250640   5.785   2.061  11.033 -0.5508  0.0597 -0.0726
 9742TIP3    H150641   5.723   1.996  11.000 -1.9779  1.0039  0.6224
 9742TIP3    H250642   5.807   2.115  10.956 -0.2619 -0.5174 -0.4020
 9743TIP3   OH250643   2.120   2.303  10.718 -0.1481  0.2264 -0.7225
 9743TIP3    H150644   2.036   2.260  10.731  0.4233 -0.2738  1.6952
 9743TIP3    H250645   2.180   2.233  10.695  0.0437  0.2788 -0.3761
 9744TIP3   OH250646   1.117   5.289  11.360 -0.1068  0.1306 -0.0384
 9744TIP3    H150647   1.208   5.275  11.387 -0.5533 -0.0815  1.4792
 9744TIP3    H250648   1.067   5.226  11.411 -1.2274  1.0696  0.0707
 9745TIP3   OH250649   6.007   5.271   5.046 -0.0971 -0.6368 -0.0079
 9745TIP3    H150650   5.997   5.189   4.997  1.7055 -0.5495 -0.6039
 9745TIP3    H250651   6.100   5.291   5.040 -0.3260  0.9142  1.0376
 9746TIP3   OH250652   6.695   2.678   1.227 -0.4100  0.8408 -0.0610
 9746TIP3    H150653   6.656   2.652   1.143 -2.0576 -1.0706  1.2062
 9746TIP3    H250654   6.776   2.627   1.232 -1.4213 -0.8064  0.4311
 9747TIP3   OH250655   5.544   5.040   5.053  0.4835  0.0950  0.5568
 9747TIP3    H150656   5.577   4.960   5.012 -2.9713 -1.0568 -0.3161
 9747TIP3    H250657   5.558   5.026   5.147 -1.1949 -2.2485  0.5525
 9748TIP3   OH250658   0.031   2.390   1.829  0.3876 -0.5810 -0.1164
 9748TIP3    H150659  -0.022   2.437   1.764  0.2481 -1.5904 -0.7595
 9748TIP3    H250660   0.091   2.337   1.777  1.4836 -0.0940  0.6051
 9749TIP3   OH250661   3.313   0.343  16.692 -0.3018  0.0019  0.3689
 9749TIP3    H150662   3.233   0.300  16.720 -0.3213  1.1468  2.2029
 9749TIP3    H250663   3.284   0.427  16.655  0.0200  0.3724  0.9386
 9750TIP3   OH250664   6.173   6.225  15.937 -0.4155 -0.5256 -0.4274
 9750TIP3    H150665   6.136   6.138  15.924 -0.3407 -0.2832 -2.8606
 9750TIP3    H250666   6.210   6.223  16.025 -0.8803 -2.7643 -0.2242
 9751TIP3   OH250667   3.710   3.927   6.190  0.4314 -0.1153  0.8024
 9751TIP3    H150668   3.674   3.994   6.249  1.3337  0.0105  1.2307
 9751TIP3    H250669   3.689   3.844   6.233 -1.5103 -0.1928 -0.1875
 9752TIP3   OH250670   5.886   0.393   2.863 -0.0054  0.4114 -0.2435
 9752TIP3    H150671   5.879   0.303   2.833 -0.3276  0.8094 -1.4366
 9752TIP3    H250672   5.833   0.397   2.942 -2.0325  0.1049 -1.5210
 9753TIP3   OH250673   5.314   2.961  15.800  0.1392 -0.1675  0.8658
 9753TIP3    H150674   5.334   2.868  15.800 -1.6906 -0.6329 -0.7406
 9753TIP3    H250675   5.235   2.968  15.853  0.2806  0.4650  0.9960
 9754TIP3   OH250676   5.409   4.964  16.946 -0.0680  0.5800 -0.4688
 9754TIP3    H150677   5.342   4.972  16.878 -0.1719 -0.2017 -0.4732
 9754TIP3    H250678   5.385   5.031  17.011 -0.6105  0.5951 -0.6729
 9755TIP3   OH250679   0.547   6.296  13.180 -0.2891  0.3741  0.4383
 9755TIP3    H150680   0.566   6.320  13.090  2.0247 -0.0578  0.7396
 9755TIP3    H250681   0.521   6.379  13.221 -1.0428  0.6333 -0.5359
 9756TIP3   OH250682   4.187   1.242  11.448  0.0622 -0.5892 -0.1634
 9756TIP3    H150683   4.181   1.256  11.542  0.5331  0.7514 -0.3124
 9756TIP3    H250684   4.103   1.273  11.414  0.1115 -0.5408 -0.2411
 9757TIP3   OH250685   2.863   3.741  14.530 -0.4469  0.2188 -0.4575
 9757TIP3    H150686   2.867   3.737  14.626 -1.4479  0.7575 -0.3716
 9757TIP3    H250687   2.792   3.680  14.507  0.5773 -0.8169 -0.9595
 9758TIP3   OH250688   6.152   2.006  12.990  0.4127 -0.5864  0.1374
 9758TIP3    H150689   6.120   2.003  12.900 -1.1194  1.9166  0.4847
 9758TIP3    H250690   6.246   1.992  12.982  0.9985  3.0736 -2.4400
 9759TIP3   OH250691   5.294   4.794   3.376  0.0918 -0.1569  0.6021
 9759TIP3    H150692   5.330   4.879   3.349 -2.7482  0.9147 -0.1392
 9759TIP3    H250693   5.205   4.794   3.341 -0.7329 -2.5451  2.4786
 9760TIP3   OH250694   2.273   4.175  13.647 -0.0693  0.0716 -0.1663
 9760TIP3    H150695   2.355   4.159  13.693  1.3489  2.4248 -1.6495
 9760TIP3    H250696   2.237   4.088  13.630  0.6031 -0.9336  3.0197
 9761TIP3   OH250697   2.899   2.889   4.722 -0.0061  0.2967  0.4156
 9761TIP3    H150698   2.812   2.919   4.746 -0.1846  0.4158 -0.3596
 9761TIP3    H250699   2.955   2.916   4.795 -0.6131  0.2223  0.9145
 9762TIP3   OH250700   6.164   4.035   0.410  0.2672 -0.2184  0.8844
 9762TIP3    H150701   6.224   3.998   0.475  1.2174 -1.5482 -0.6603
 9762TIP3    H250702   6.108   3.962   0.386  0.4350  0.0392 -0.3354
 9763TIP3   OH250703   2.561   0.111   3.675 -0.4422  0.3649  0.3280
 9763TIP3    H150704   2.575   0.083   3.584  0.9354 -0.5418  0.7891
 9763TIP3    H250705   2.518   0.037   3.717  0.0819  0.2804  0.7226
 9764TIP3   OH250706   3.694   3.321   1.668  0.7549  0.0443  0.2710
 9764TIP3    H150707   3.788   3.331   1.686  0.8559 -1.4234  0.7613
 9764TIP3    H250708   3.681   3.226   1.669 -0.7748  0.2442  0.3686
 9765TIP3   OH250709   4.876   1.042   2.919 -0.0325 -0.1050 -0.5730
 9765TIP3    H150710   4.903   0.959   2.880  0.0008 -0.3278 -0.0858
 9765TIP3    H250711   4.796   1.021   2.967 -0.7823  0.4293 -1.5499
 9766TIP3   OH250712   0.369   3.181  11.938  0.0791  0.4661 -0.1955
 9766TIP3    H150713   0.310   3.127  11.990 -0.1255 -1.0718 -1.8904
 9766TIP3    H250714   0.443   3.199  11.996 -0.7995  0.1059  1.0771
 9767TIP3   OH250715   0.243   5.873   0.568  0.2429 -0.2249 -0.2164
 9767TIP3    H150716   0.301   5.928   0.620 -1.0022  1.5151 -0.5643
 9767TIP3    H250717   0.155   5.902   0.592 -0.4453 -1.6247 -0.9293
 9768TIP3   OH250718   1.942   2.084   3.733  0.0723 -0.1376  0.3462
 9768TIP3    H150719   1.976   2.014   3.789  0.9734 -0.5321 -0.6618
 9768TIP3    H250720   1.978   2.065   3.646 -0.2362  1.1911 -0.0966
 9769TIP3   OH250721   3.256   0.133  14.362  0.5477  0.5733  0.4365
 9769TIP3    H150722   3.262   0.039  14.349 -0.2045  0.3468  1.5776
 9769TIP3    H250723   3.218   0.166  14.280 -2.9030 -0.6295  1.3660
 9770TIP3   OH250724   6.406   2.174  14.644  0.3604 -0.3066 -0.2408
 9770TIP3    H150725   6.479   2.127  14.685  2.2296  0.5520 -2.3720
 9770TIP3    H250726   6.427   2.175  14.551 -1.5871  1.3722 -0.7387
 9771TIP3   OH250727   0.686   1.560   2.627  0.1602 -0.1330  0.3900
 9771TIP3    H150728   0.665   1.639   2.676 -0.0570  1.8959 -2.7190
 9771TIP3    H250729   0.780   1.562   2.616  0.2462 -0.7508  0.8878
 9772TIP3   OH250730   5.027   6.721  13.218 -0.9518  0.0412 -0.1129
 9772TIP3    H150731   5.083   6.661  13.267 -0.4134 -0.2315 -1.0540
 9772TIP3    H250732   4.993   6.781  13.285 -0.5220 -0.5478  0.6506
 9773TIP3   OH250733   4.043   5.280  15.447 -0.0657  0.1180 -0.1053
 9773TIP3    H150734   4.018   5.372  15.445  0.6894  0.3221 -0.9046
 9773TIP3    H250735   3.970   5.235  15.404  0.1703  0.5179 -0.9610
 9774TIP3   OH250736   2.669   2.196   1.374  0.2665 -0.4286  0.1123
 9774TIP3    H150737   2.667   2.103   1.396 -0.8929 -0.4009  0.1841
 9774TIP3    H250738   2.580   2.227   1.394  0.0638  0.2723 -1.7143
 9775TIP3   OH250739   4.160   2.852  16.554 -0.0625 -0.1966  0.0905
 9775TIP3    H150740   4.211   2.773  16.570 -0.2605 -0.6416 -1.3066
 9775TIP3    H250741   4.069   2.823  16.554 -0.0514 -0.6496 -3.3819
 9776TIP3   OH250742   6.494   6.425   0.616 -0.1810 -0.3562  0.5880
 9776TIP3    H150743   6.435   6.427   0.692  0.2019  1.1868  0.8864
 9776TIP3    H250744   6.563   6.363   0.641 -0.9491 -1.1461  0.7905
 9777TIP3   OH250745   5.279   5.368   2.434 -0.2973 -0.5381 -0.3178
 9777TIP3    H150746   5.362   5.326   2.456 -0.5434 -0.4192  0.8959
 9777TIP3    H250747   5.227   5.362   2.514 -0.1975  2.4006  0.0993
 9778TIP3   OH250748   2.028   5.573   1.635  0.5340  0.5454  0.0677
 9778TIP3    H150749   1.939   5.600   1.654  0.8971  1.9147 -0.1048
 9778TIP3    H250750   2.074   5.653   1.611  1.8533 -0.1050  0.2828
 9779TIP3   OH250751   4.928   4.349   1.164  0.5982 -0.0865  0.3146
 9779TIP3    H150752   4.944   4.257   1.145  0.2567 -0.4415  1.6554
 9779TIP3    H250753   5.006   4.377   1.213 -0.0513 -0.1303  1.3902
 9780TIP3   OH250754   2.203   2.214   5.491  0.0134  0.6652  0.1164
 9780TIP3    H150755   2.158   2.194   5.573 -0.1330  0.3783 -0.0336
 9780TIP3    H250756   2.290   2.244   5.517  0.2189 -0.1139  0.3426
 9781TIP3   OH250757   3.333   4.184  12.296 -0.5554  0.5839 -0.5312
 9781TIP3    H150758   3.361   4.250  12.233 -1.1885  0.2039 -1.2267
 9781TIP3    H250759   3.256   4.143  12.256 -0.7281  0.0567  0.3044
 9782TIP3   OH250760   3.849   0.657   4.692  0.1900  0.0287 -0.1884
 9782TIP3    H150761   3.937   0.696   4.696 -0.3950  1.4204 -0.4781
 9782TIP3    H250762   3.789   0.732   4.693 -0.9375 -0.7466 -2.4578
 9783TIP3   OH250763   3.135   1.969  11.989  0.0222 -0.4054  0.3630
 9783TIP3    H150764   3.167   1.939  11.903 -0.1173  0.5287 -0.0203
 9783TIP3    H250765   3.212   1.965  12.045  0.3641 -0.0113 -0.0723
 9784TIP3   OH250766   3.655   1.809  12.228  0.0176 -0.0919 -0.0316
 9784TIP3    H150767   3.570   1.844  12.253 -1.4191 -2.4064 -1.3517
 9784TIP3    H250768   3.711   1.886  12.220 -1.1385  1.3331  3.5083
 9785TIP3   OH250769   4.944   6.070  15.205  0.0535  0.0014  0.0964
 9785TIP3    H150770   4.876   6.130  15.235 -0.0438  0.5940 -1.2816
 9785TIP3    H250771   5.019   6.088  15.262  0.2361  1.8925 -0.7007
 9786TIP3   OH250772   4.397   5.786  11.196  0.2983  0.2684  0.3926
 9786TIP3    H150773   4.306   5.764  11.216  0.1153 -0.7691 -1.3740
 9786TIP3    H250774   4.393   5.876  11.164 -0.1850  0.1043 -0.0332
 9787TIP3   OH250775   3.263   1.174  13.261 -0.4280 -0.0682  0.8517
 9787TIP3    H150776   3.323   1.241  13.295  1.5467 -0.4449 -1.5418
 9787TIP3    H250777   3.232   1.210  13.178  0.1993 -1.7992 -0.1901
 9788TIP3   OH250778   6.205   3.110   0.469  0.4150  0.0178 -0.1822
 9788TIP3    H150779   6.149   3.186   0.455  0.3314 -0.2649 -1.5105
 9788TIP3    H250780   6.168   3.067   0.546 -0.3396  0.6039 -0.2097
 9789TIP3   OH250781   1.260   3.017   1.288  0.5180  0.4488 -0.0500
 9789TIP3    H150782   1.222   3.005   1.375  0.1582  1.4640 -0.0598
 9789TIP3    H250783   1.354   3.024   1.304  0.3556  1.7728  0.3889
 9790TIP3   OH250784   1.773   5.576  16.525  0.3155  0.3068 -0.5010
 9790TIP3    H150785   1.850   5.631  16.537  1.5848 -1.5528  0.3548
 9790TIP3    H250786   1.738   5.602  16.440  0.7546  2.4918 -0.0694
 9791TIP3   OH250787   5.497   5.002   2.102 -0.2292 -0.5453  1.2300
 9791TIP3    H150788   5.415   4.975   2.144 -1.2329  0.4047 -0.0276
 9791TIP3    H250789   5.555   5.024   2.175 -1.9013  1.0107  2.1941
 9792TIP3   OH250790   6.353   0.516   0.978  0.0080  0.2251 -0.4086
 9792TIP3    H150791   6.386   0.440   0.928  0.9087 -0.8815  1.7490
 9792TIP3    H250792   6.420   0.583   0.965  1.0451 -0.5861  0.5030
 9793TIP3   OH250793   5.635   0.875  14.257  0.4060 -0.2976  0.2129
 9793TIP3    H150794   5.553   0.922  14.239  0.5075  0.0532  0.6423
 9793TIP3    H250795   5.608   0.784  14.271  0.3049 -0.5558 -1.4764
 9794TIP3   OH250796   1.583   1.175   2.684  0.5577  0.0989 -0.4293
 9794TIP3    H150797   1.664   1.136   2.651  1.2664  0.8684  0.3568
 9794TIP3    H250798   1.542   1.214   2.606  0.9430 -0.2714 -0.8244
 9795TIP3   OH250799   6.463   0.629   3.319  0.6330  0.5754  0.0564
 9795TIP3    H150800   6.483   0.676   3.400  1.1495 -1.6008  1.2642
 9795TIP3    H250801   6.541   0.575   3.303 -1.3729 -2.9461  1.0633
 9796TIP3   OH250802   3.650   1.726   4.084 -0.3816 -0.1624 -0.0287
 9796TIP3    H150803   3.737   1.738   4.046  0.1823 -0.5875  1.0804
 9796TIP3    H250804   3.627   1.635   4.064 -0.5352 -0.0797 -0.2357
 9797TIP3   OH250805   5.572   0.060  11.189  0.0457 -0.6415 -0.3198
 9797TIP3    H150806   5.498   0.058  11.250 -0.1405 -0.2438 -0.5254
 9797TIP3    H250807   5.605  -0.030  11.188 -1.8067 -1.3915 -1.8891
 9798TIP3   OH250808   1.402   1.789  11.836  0.4322  0.0639 -0.2295
 9798TIP3    H150809   1.422   1.849  11.764 -0.1703  0.5868  0.0302
 9798TIP3    H250810   1.413   1.841  11.915 -1.1189  0.1484 -0.0403
 9799TIP3   OH250811   0.928   1.213   4.488  0.2554  0.0253  0.2986
 9799TIP3    H150812   0.912   1.188   4.397 -2.4553  1.3952  0.3152
 9799TIP3    H250813   0.943   1.307   4.485 -2.6796  0.6289  1.4593
 9800TIP3   OH250814   5.917   1.479  13.993 -0.6533  0.5870 -0.1030
 9800TIP3    H150815   5.958   1.393  13.986  1.1585  1.2311  1.6028
 9800TIP3    H250816   5.842   1.465  14.051 -0.9454 -0.0135 -0.6192
 9801TIP3   OH250817   5.539   0.623  13.710 -0.1192 -0.4640  0.0170
 9801TIP3    H150818   5.587   0.625  13.627 -0.5971  2.0245 -0.2846
 9801TIP3    H250819   5.606   0.604  13.776  0.5194 -1.0698 -0.7805
 9802TIP3   OH250820   1.911   5.819  13.295 -0.3139 -0.0073  0.2266
 9802TIP3    H150821   1.880   5.899  13.339  0.8376  0.8582 -0.4628
 9802TIP3    H250822   1.925   5.757  13.366  0.1465  0.8870  0.9388
 9803TIP3   OH250823   0.756   2.684   4.591 -0.0584  0.0960  0.4597
 9803TIP3    H150824   0.728   2.741   4.662 -0.2399  0.8511 -0.2071
 9803TIP3    H250825   0.831   2.636   4.626  0.1264  0.7807  1.0146
 9804TIP3   OH250826   2.882   4.084   5.587 -0.8852  0.0531  0.7098
 9804TIP3    H150827   2.857   4.138   5.662  0.9040 -1.6816  2.6796
 9804TIP3    H250828   2.944   4.138   5.538 -1.1462  0.7603  1.1403
 9805TIP3   OH250829   5.544   6.779   2.702 -0.8208  0.0329  0.4657
 9805TIP3    H150830   5.458   6.814   2.680 -0.8594 -1.0662 -1.3812
 9805TIP3    H250831   5.604   6.821   2.641 -0.5801 -1.5413 -0.4452
 9806TIP3   OH250832   5.821   5.379  16.068 -0.2812  0.2009  0.3233
 9806TIP3    H150833   5.784   5.351  16.152 -0.6409 -1.0524 -0.2232
 9806TIP3    H250834   5.899   5.326  16.057 -0.7443 -0.3310 -0.5476
 9807TIP3   OH250835   3.790   0.052  14.965 -0.1891 -0.1363 -0.5512
 9807TIP3    H150836   3.729   0.039  14.891 -1.1953  0.6815  0.1095
 9807TIP3    H250837   3.747   0.116  15.020 -0.0488 -1.6547  1.4253
 9808TIP3   OH250838   6.534   3.722  12.308 -0.3768  0.4073 -0.1362
 9808TIP3    H150839   6.456   3.725  12.362 -0.1397  0.1409  0.2285
 9808TIP3    H250840   6.502   3.719  12.218 -0.8391 -1.6057  0.0610
 9809TIP3   OH250841   3.724   2.869   5.765 -0.4333 -0.2688  0.4344
 9809TIP3    H150842   3.741   2.830   5.851  1.1709 -0.8644 -0.1031
 9809TIP3    H250843   3.762   2.957   5.771 -2.4044  0.6016  1.0457
 9810TIP3   OH250844   0.017   1.086  12.955 -0.2151 -0.5118 -0.2446
 9810TIP3    H150845  -0.057   1.029  12.935 -1.6888  1.2513  0.0277
 9810TIP3    H250846  -0.006   1.171  12.918  2.0637 -0.1004 -0.8981
 9811TIP3   OH250847   4.377   0.713   0.882 -0.3448  0.0994 -0.0349
 9811TIP3    H150848   4.430   0.758   0.817  0.0189  0.2832  0.3845
 9811TIP3    H250849   4.436   0.648   0.920 -0.3824  0.3933  0.5264
 9812TIP3   OH250850   4.495   5.773   2.518  0.0479  0.3458 -0.1233
 9812TIP3    H150851   4.556   5.843   2.497 -0.7539  1.6166  1.6321
 9812TIP3    H250852   4.487   5.774   2.613  0.3469 -2.4520  0.0400
 9813TIP3   OH250853   6.297   2.920   1.650  0.8949  0.5940 -0.0698
 9813TIP3    H150854   6.220   2.884   1.693  0.4547  0.6905 -0.7622
 9813TIP3    H250855   6.269   2.936   1.560  1.7032  0.6930 -0.3118
 9814TIP3   OH250856   5.502   3.149   1.760 -0.3489 -0.5677 -0.3523
 9814TIP3    H150857   5.440   3.077   1.768  0.1366 -1.1118 -1.2639
 9814TIP3    H250858   5.524   3.172   1.850 -0.9437 -1.1866 -0.0416
 9815TIP3   OH250859   2.702   5.718  15.605  0.6231 -0.3408  0.1814
 9815TIP3    H150860   2.703   5.687  15.695  0.1065 -1.6756 -0.2379
 9815TIP3    H250861   2.737   5.807  15.609  0.2692 -0.2481  1.7313
 9816TIP3   OH250862   0.654   3.473  16.998  0.1369 -0.0340  0.7774
 9816TIP3    H150863   0.731   3.482  17.054  0.1190 -2.5434  1.3353
 9816TIP3    H250864   0.665   3.389  16.955 -2.0069 -0.2111  0.4365
 9817TIP3   OH250865   1.949   5.215  13.075  0.7075  0.5542 -0.3010
 9817TIP3    H150866   1.913   5.152  13.137  0.4646  0.8153 -0.1744
 9817TIP3    H250867   1.879   5.279  13.062  1.5519  1.7996  0.9392
 9818TIP3   OH250868   6.449   5.131  13.173  0.0215  0.0435  0.3711
 9818TIP3    H150869   6.412   5.214  13.144  1.1423  0.7422  0.8510
 9818TIP3    H250870   6.542   5.149  13.184  0.8749 -2.0799 -2.3892
 9819TIP3   OH250871   6.153   4.931  16.840  0.0063  0.4224  0.5815
 9819TIP3    H150872   6.241   4.953  16.871  0.0827  1.1944 -0.1554
 9819TIP3    H250873   6.095   4.982  16.896  0.0129 -0.1897  1.1556
 9820TIP3   OH250874   5.362   6.410  12.360  0.4216 -0.2987 -0.6446
 9820TIP3    H150875   5.325   6.324  12.380  1.3997 -0.5287  0.2422
 9820TIP3    H250876   5.286   6.468  12.351 -0.2048 -1.0754 -0.4091
 9821TIP3   OH250877   1.818   4.728  14.745 -0.0430 -0.2118 -0.0913
 9821TIP3    H150878   1.805   4.644  14.701 -0.1437  0.3647 -1.2229
 9821TIP3    H250879   1.740   4.779  14.721 -0.2397  0.0203  1.0239
 9822TIP3   OH250880   2.587   4.558  15.017 -0.2738 -0.2660  0.5854
 9822TIP3    H150881   2.635   4.602  15.088 -1.3322  1.0425  0.5331
 9822TIP3    H250882   2.564   4.472  15.053 -1.4660  0.6594  2.1483
 9823TIP3   OH250883   1.061   3.770   1.795  0.0959 -0.5090  0.4896
 9823TIP3    H150884   1.128   3.767   1.727 -1.4891 -0.6813 -1.1246
 9823TIP3    H250885   1.030   3.861   1.794 -1.3684 -0.9823 -0.5256
 9824TIP3   OH250886   0.971   3.310  15.916 -0.2073 -0.7413  0.1098
 9824TIP3    H150887   0.906   3.261  15.866 -0.7987  0.8718 -0.7924
 9824TIP3    H250888   1.013   3.245  15.972 -0.7005 -2.3179 -1.2714
 9825TIP3   OH250889   2.536   5.455  16.805 -0.4963  0.1661  0.4445
 9825TIP3    H150890   2.522   5.433  16.897 -0.1601  0.0293  0.4629
 9825TIP3    H250891   2.625   5.425  16.786 -0.4146  0.5655  0.1867
 9826TIP3   OH250892   0.113   3.233  12.950  0.2732 -0.0633  0.5924
 9826TIP3    H150893   0.081   3.159  12.898  0.4949 -0.4506  0.9975
 9826TIP3    H250894   0.136   3.300  12.886  1.6246 -0.9492  0.1236
 9827TIP3   OH250895   1.950   6.261   5.685  0.2215  0.1766  0.0311
 9827TIP3    H150896   1.970   6.343   5.731 -0.9474  0.4504  0.0818
 9827TIP3    H250897   1.874   6.283   5.630  0.8548 -0.4616 -1.1276
 9828TIP3   OH250898   2.823   6.100  12.203 -0.6134  1.2784 -0.1788
 9828TIP3    H150899   2.899   6.146  12.166 -0.6979  1.1938 -0.4548
 9828TIP3    H250900   2.752   6.163  12.196 -0.3427  1.7395  1.0217
 9829TIP3   OH250901   2.029   0.118  15.080  0.1113  0.5253  0.2701
 9829TIP3    H150902   2.052   0.056  15.149 -0.9355 -0.6100 -0.3681
 9829TIP3    H250903   1.966   0.178  15.121 -1.9402 -1.2401 -0.1085
 9830TIP3   OH250904   1.530   3.979  13.305 -0.2171 -0.0211  0.1259
 9830TIP3    H150905   1.494   3.909  13.360 -0.1782  0.1766  0.3987
 9830TIP3    H250906   1.579   4.034  13.365 -0.0256  0.0932 -0.1371
 9831TIP3   OH250907   0.312   1.856  13.659  0.1959 -0.2103  0.4208
 9831TIP3    H150908   0.242   1.914  13.629 -1.9923 -1.4763  2.6688
 9831TIP3    H250909   0.293   1.772  13.619  0.6946 -0.4679  0.7161
 9832TIP3   OH250910   3.096   0.182  16.765 -0.3235 -0.5211  0.0775
 9832TIP3    H150911   3.088   0.099  16.719 -0.6587 -1.2847  1.4666
 9832TIP3    H250912   3.081   0.160  16.857  0.0932  0.9901  0.5332
 9833TIP3   OH250913   1.123   3.996   0.012 -0.2471  0.0852  0.0737
 9833TIP3    H150914   1.201   3.945   0.035 -1.1302 -1.3317  0.0272
 9833TIP3    H250915   1.155   4.086   0.005  1.9935 -0.7734 -2.7528
 9834TIP3   OH250916   0.226   6.253   5.500  0.1618  0.1159  0.1337
 9834TIP3    H150917   0.184   6.263   5.586 -2.6804 -0.6057 -1.0816
 9834TIP3    H250918   0.198   6.330   5.451 -2.9991 -2.0859 -1.8768
 9835TIP3   OH250919   4.147   5.483  16.538 -0.1989  0.0758 -0.5475
 9835TIP3    H150920   4.209   5.555  16.546 -0.9884  0.6873  0.3905
 9835TIP3    H250921   4.106   5.496  16.453 -1.5881  1.8402  0.3011
 9836TIP3   OH250922   0.063   6.186   2.726 -0.2661  0.0012  0.8114
 9836TIP3    H150923   0.155   6.206   2.706  0.1213 -1.1515  1.3478
 9836TIP3    H250924   0.067   6.122   2.798 -1.5268  1.0490  1.8648
 9837TIP3   OH250925   3.668   2.429  11.520  0.2301  0.5916  0.0252
 9837TIP3    H150926   3.706   2.500  11.572 -1.4978  0.6034  1.3561
 9837TIP3    H250927   3.636   2.367  11.585  2.1880 -1.7551 -1.1073
 9838TIP3   OH250928   2.976   3.602  16.555  0.1393  0.1107 -0.8682
 9838TIP3    H150929   3.057   3.551  16.554 -0.6415 -1.1590 -1.2454
 9838TIP3    H250930   2.998   3.681  16.505  2.0630  1.3557  1.7274
 9839TIP3   OH250931   5.841   6.495   4.605 -0.7714 -0.1377  0.0073
 9839TIP3    H150932   5.774   6.472   4.541 -0.5264  0.1677 -0.3610
 9839TIP3    H250933   5.883   6.411   4.626 -0.0725 -0.0935 -1.1201
 9840TIP3   OH250934   4.865   4.794   5.157 -0.1208 -0.1180  0.0626
 9840TIP3    H150935   4.932   4.859   5.135  0.0461  0.0231  0.9648
 9840TIP3    H250936   4.852   4.746   5.075  0.4327  0.4299 -0.3677
 9841TIP3   OH250937   0.512   1.589  15.973  0.3816  0.4070  0.1097
 9841TIP3    H150938   0.494   1.518  16.034  0.5396  1.9809  2.0859
 9841TIP3    H250939   0.429   1.601  15.926 -0.4930  0.6222  1.6334
 9842TIP3   OH250940   1.607   0.644  14.486 -0.5518 -0.4724 -0.5646
 9842TIP3    H150941   1.582   0.566  14.437 -0.5393 -0.8375  0.0027
 9842TIP3    H250942   1.568   0.631  14.573  0.8551 -0.6467  0.0694
 9843TIP3   OH250943   2.966   2.859   0.646  0.2503  0.0954  0.1386
 9843TIP3    H150944   3.027   2.810   0.591  1.3628 -0.7464  2.0249
 9843TIP3    H250945   2.895   2.884   0.586  0.4176 -2.4147 -1.2758
 9844TIP3   OH250946   6.153   4.121   4.823  0.0238  0.5702 -0.6614
 9844TIP3    H150947   6.172   4.214   4.835 -0.7705  0.7011 -0.3617
 9844TIP3    H250948   6.190   4.100   4.738  2.9786  0.3899  0.5657
 9845TIP3   OH250949   0.708   2.113   4.616 -0.5837  0.1721 -0.5023
 9845TIP3    H150950   0.638   2.130   4.554 -0.1940 -1.2638 -1.3923
 9845TIP3    H250951   0.720   2.018   4.613  0.7512  0.2822  0.3458
 9846TIP3   OH250952   1.168   4.330  10.976  0.1360 -0.2015  0.2001
 9846TIP3    H150953   1.101   4.275  10.936  0.8821  0.6767 -2.4196
 9846TIP3    H250954   1.250   4.304  10.935  0.8549  1.2567  0.6341
 9847TIP3   OH250955   0.825   2.519  15.778 -0.1209  0.1351 -0.0076
 9847TIP3    H150956   0.849   2.604  15.739  0.9540 -0.3485 -0.4321
 9847TIP3    H250957   0.826   2.535  15.872  0.7520  0.4265 -0.0609
 9848TIP3   OH250958   5.177   6.636  15.030  0.1786 -0.0766 -0.0978
 9848TIP3    H150959   5.124   6.654  14.952 -0.2946  1.5731  0.5623
 9848TIP3    H250960   5.261   6.606  14.995 -0.5060 -0.8344 -1.1965
 9849TIP3   OH250961   5.442   1.832  11.639 -0.0273 -0.4868 -0.1090
 9849TIP3    H150962   5.435   1.868  11.550 -0.8922 -1.8282 -0.6318
 9849TIP3    H250963   5.474   1.743  11.626 -3.2701 -1.8917  0.5687
 9850TIP3   OH250964   6.343   3.068   4.478 -0.5050 -0.4221 -0.1289
 9850TIP3    H150965   6.287   3.029   4.545 -0.0174 -0.5084  0.2308
 9850TIP3    H250966   6.337   3.162   4.494 -0.8327 -0.4066 -0.3242
 9851TIP3   OH250967   2.728   0.700  16.564 -0.1578  0.2926 -0.1066
 9851TIP3    H150968   2.727   0.675  16.471  1.5866  1.2581 -0.4298
 9851TIP3    H250969   2.802   0.760  16.572  0.6141 -0.8522  2.1922
 9852TIP3   OH250970   2.231   3.422   1.066  0.4281  0.1654  0.1846
 9852TIP3    H150971   2.281   3.503   1.056 -0.8299  0.8497 -1.0102
 9852TIP3    H250972   2.169   3.440   1.136 -0.0634  0.3679 -0.2937
 9853TIP3   OH250973   3.558   6.653   3.515  0.8871 -0.3922  0.0400
 9853TIP3    H150974   3.568   6.561   3.537 -0.4075 -0.2962  1.1562
 9853TIP3    H250975   3.646   6.683   3.495  1.4240 -1.6948  0.3694
 9854TIP3   OH250976   0.039   4.639  13.437 -0.3572 -0.3655  0.3009
 9854TIP3    H150977  -0.017   4.577  13.390 -0.9013  0.1345  0.2747
 9854TIP3    H250978   0.030   4.615  13.529  0.4715 -1.1553  0.1879
 9855TIP3   OH250979   1.368   6.081   5.297  0.0838  0.1041 -0.3583
 9855TIP3    H150980   1.400   6.148   5.358 -2.2382  0.7393  0.2581
 9855TIP3    H250981   1.377   6.122   5.211  0.9349  0.2344 -0.2211
 9856TIP3   OH250982   6.311   4.500  16.585  0.0871  0.5887 -0.8825
 9856TIP3    H150983   6.262   4.488  16.504 -1.0715 -0.9347 -0.0112
 9856TIP3    H250984   6.278   4.582  16.622 -1.5625 -0.1971 -0.5210
 9857TIP3   OH250985   3.338   6.428   2.564 -0.1306 -0.2212 -0.4683
 9857TIP3    H150986   3.399   6.453   2.495 -0.1541 -0.3078 -0.5205
 9857TIP3    H250987   3.255   6.468   2.539  0.0674  0.4613 -0.0496
 9858TIP3   OH250988   5.674   5.040   2.690  0.0273 -0.0250 -0.2643
 9858TIP3    H150989   5.748   5.038   2.628 -0.7906  0.0793 -1.2703
 9858TIP3    H250990   5.628   4.958   2.674  0.3749 -0.4869  0.9593
 9859TIP3   OH250991   6.218   4.986   6.046  0.3374  0.1355 -0.4275
 9859TIP3    H150992   6.133   4.945   6.033 -0.1664  1.2981 -0.9959
 9859TIP3    H250993   6.224   5.002   6.140 -0.2533  0.4006 -0.4337
 9860TIP3   OH250994   2.179   2.838  13.645 -0.5665 -0.1239 -0.6753
 9860TIP3    H150995   2.133   2.805  13.721 -0.1668 -0.5994 -0.6364
 9860TIP3    H250996   2.211   2.760  13.600  1.2560  0.1988 -0.0481
 9861TIP3   OH250997   5.409   4.637   3.171 -0.2025 -0.2383 -0.8332
 9861TIP3    H150998   5.372   4.689   3.242 -0.2169  1.4756 -2.0444
 9861TIP3    H250999   5.417   4.549   3.208 -1.1364  0.3730  0.9518
 9862TIP3   OH251000   6.520   2.008   5.962 -0.2995 -0.3760 -0.6486
 9862TIP3    H151001   6.587   2.024   6.030  1.0139  0.4593 -2.0653
 9862TIP3    H251002   6.452   2.073   5.980  0.7228  0.8150 -0.9580
 9863TIP3   OH251003   6.010   1.748   0.398 -0.3067  0.0629 -0.0293
 9863TIP3    H151004   5.937   1.695   0.431  0.0624 -0.9651 -0.8165
 9863TIP3    H251005   6.070   1.754   0.472  0.4330 -2.0807 -0.3667
 9864TIP3   OH251006   4.999   2.505   2.072 -0.0848  0.5877  0.0312
 9864TIP3    H151007   4.934   2.556   2.120 -1.1248  0.5095 -1.2714
 9864TIP3    H251008   5.070   2.566   2.054 -0.6163  1.1587 -0.1322
 9865TIP3   OH251009   6.798   0.086   5.752  0.0727  0.6199  0.4547
 9865TIP3    H151010   6.841   0.143   5.815  0.7841  1.6693 -0.9260
 9865TIP3    H251011   6.760   0.146   5.687  1.4288 -0.4395 -1.4200
 9866TIP3   OH251012   0.801   1.059   1.130 -0.3163  0.1118 -0.4957
 9866TIP3    H151013   0.768   0.977   1.168 -0.7177  0.5908  0.2017
 9866TIP3    H251014   0.893   1.041   1.112 -0.0922 -0.1069  0.7789
 9867TIP3   OH251015   0.816   2.976  11.120  0.7354 -0.3687  0.2537
 9867TIP3    H151016   0.888   3.039  11.120  0.8434 -0.4926  0.3350
 9867TIP3    H251017   0.763   3.001  11.044  2.1409 -1.7346 -1.2605
 9868TIP3   OH251018   0.221   6.046   5.960 -0.3426 -0.0704 -0.0122
 9868TIP3    H151019   0.278   5.993   6.015 -0.1429  1.0744  0.9135
 9868TIP3    H251020   0.281   6.091   5.901 -0.3848  0.2883  0.2204
 9869TIP3   OH251021   5.678   3.272   2.957 -0.0813 -0.0316  0.3707
 9869TIP3    H151022   5.670   3.181   2.926  1.7642 -0.9754  2.3588
 9869TIP3    H251023   5.596   3.289   3.003 -0.6678 -0.4692 -0.4773
 9870TIP3   OH251024   5.434   1.521   5.097  0.2292  0.0535 -0.2144
 9870TIP3    H151025   5.386   1.578   5.036  1.0019 -0.3359 -1.1957
 9870TIP3    H251026   5.411   1.433   5.070 -1.6943 -0.1789  1.8721
 9871TIP3   OH251027   6.502   0.061   1.151  0.3602  0.5566  0.3073
 9871TIP3    H151028   6.492  -0.034   1.145 -1.5447  0.5486  2.3552
 9871TIP3    H251029   6.570   0.082   1.088  0.4216 -2.0935 -0.6237
 9872TIP3   OH251030   1.809   2.532   3.125 -0.3821 -0.3151 -0.0506
 9872TIP3    H151031   1.728   2.510   3.080 -1.2103  1.2946  0.5686
 9872TIP3    H251032   1.811   2.475   3.202 -1.4342  0.2715  0.4317
 9873TIP3   OH251033   1.361   0.981   2.817  0.1343  0.1236 -0.2836
 9873TIP3    H151034   1.434   1.012   2.764  0.4040 -1.0038 -0.5920
 9873TIP3    H251035   1.283   1.014   2.773  0.4407  2.9678  1.0695
 9874TIP3   OH251036   6.553   5.429  11.937 -0.1446  0.0494  0.4582
 9874TIP3    H151037   6.586   5.386  12.016 -1.1487 -1.1954  0.2248
 9874TIP3    H251038   6.566   5.366  11.867  1.6025  1.4881 -0.6197
 9875TIP3   OH251039   6.137   5.006  12.866  0.5463  0.2472  0.2855
 9875TIP3    H151040   6.131   5.101  12.875  0.7444  0.1932  1.1173
 9875TIP3    H251041   6.133   4.990  12.772  0.6999  1.0914  0.1290
 9876TIP3   OH251042   1.714   0.890  11.963  0.8605 -0.2333  0.6736
 9876TIP3    H151043   1.702   0.981  11.934  1.0363 -0.1239  0.9400
 9876TIP3    H251044   1.627   0.851  11.958 -0.0109  0.9327  3.9365
 9877TIP3   OH251045   3.119   1.037  12.234 -0.4353  0.3367 -0.5317
 9877TIP3    H151046   3.080   1.124  12.236 -0.6646  0.2264  0.1618
 9877TIP3    H251047   3.171   1.035  12.154  0.0454  1.3084 -0.2474
 9878TIP3   OH251048   6.207   2.641  14.091  0.3979 -0.1588 -0.2652
 9878TIP3    H151049   6.173   2.640  14.181 -0.8638  0.2066 -0.7207
 9878TIP3    H251050   6.190   2.730  14.060 -0.4833 -0.6790 -1.3366
 9879TIP3   OH251051   3.443   3.502   4.835 -0.2695  0.2473 -0.4019
 9879TIP3    H151052   3.461   3.469   4.747 -0.7900  0.7911 -0.7244
 9879TIP3    H251053   3.369   3.562   4.823  0.5427  1.4142  0.1661
 9880TIP3   OH251054   0.879   0.906   2.621  0.2150  0.5377  0.0018
 9880TIP3    H151055   0.860   0.916   2.714  1.1615  3.7137 -0.0400
 9880TIP3    H251056   0.796   0.923   2.577  0.0385  0.2347  0.2118
 9881TIP3   OH251057   6.138   1.980  15.885  0.4820 -0.3273  0.2640
 9881TIP3    H151058   6.095   2.039  15.823  2.9000  1.9946  0.6036
 9881TIP3    H251059   6.089   1.991  15.966  0.5899  0.8871  0.1864
 9882TIP3   OH251060   2.928   1.357  11.786 -0.6769 -0.3008 -0.2659
 9882TIP3    H151061   2.839   1.329  11.803 -0.8492  0.1588 -0.3874
 9882TIP3    H251062   2.952   1.410  11.862 -1.6350  2.1959 -1.5790
 9883TIP3   OH251063   5.333   4.146  16.353 -0.2559 -0.5821 -0.2090
 9883TIP3    H151064   5.252   4.189  16.381  0.6166  1.8397 -1.1706
 9883TIP3    H251065   5.311   4.105  16.270 -0.3277  0.7647 -0.8773
 9884TIP3   OH251066   3.631   0.096   1.240  0.1378 -0.5834 -0.1253
 9884TIP3    H151067   3.709   0.070   1.191 -0.4408 -2.3958 -0.1748
 9884TIP3    H251068   3.585   0.157   1.182 -0.0676 -1.9793 -1.5073
 9885TIP3   OH251069   2.604   4.195   1.977 -0.1302  0.1159 -0.4099
 9885TIP3    H151070   2.538   4.258   2.007 -0.6783 -1.0002  0.8149
 9885TIP3    H251071   2.644   4.162   2.058  0.1582 -1.0894 -1.0237
 9886TIP3   OH251072   1.276   1.337   1.238 -0.3070  0.5144  0.2528
 9886TIP3    H151073   1.286   1.348   1.333  0.9545 -3.1916  0.6958
 9886TIP3    H251074   1.347   1.388   1.200  1.6629 -1.0565  1.6237
 9887TIP3   OH251075   1.022   6.366  13.201 -0.7117 -0.0887  0.0294
 9887TIP3    H151076   1.057   6.279  13.223  0.1058  0.2925  0.2908
 9887TIP3    H251077   1.056   6.423  13.270  0.4778  0.8117 -1.2367
 9888TIP3   OH251078   4.879   6.150  11.649 -0.5642  0.6680  0.0662
 9888TIP3    H151079   4.912   6.133  11.561  3.1598  0.9013  1.2677
 9888TIP3    H251080   4.794   6.105  11.651  0.4255 -1.6833 -2.7647
 9889TIP3   OH251081   1.935   5.227  11.198  0.5006  0.4962  0.2240
 9889TIP3    H151082   1.897   5.309  11.165  0.1518 -0.0906 -0.9081
 9889TIP3    H251083   2.018   5.220  11.151 -0.0414 -0.3955 -0.6540
 9890TIP3   OH251084   1.160   2.916   1.007  0.0030 -0.1562  0.2427
 9890TIP3    H151085   1.111   2.975   1.064  1.0496  1.9309 -0.8808
 9890TIP3    H251086   1.188   2.845   1.065 -0.1880  1.1229  2.0028
 9891TIP3   OH251087   0.001   5.997  12.839 -0.0974 -0.1657  0.4674
 9891TIP3    H151088  -0.004   6.087  12.872 -1.3199 -0.2104  0.4486
 9891TIP3    H251089  -0.085   5.960  12.856  0.7199 -1.7265  1.5178
 9892TIP3   OH251090   5.541   2.784  16.290  0.5338  0.1568  0.0866
 9892TIP3    H151091   5.491   2.706  16.315  2.4183 -1.9295 -2.1575
 9892TIP3    H251092   5.632   2.753  16.283  1.5884  2.8868  0.3171
 9893TIP3   OH251093   4.948   3.032   5.995  0.4899 -0.4981 -0.6315
 9893TIP3    H151094   5.030   3.082   6.000  0.5561 -0.5599 -1.0695
 9893TIP3    H251095   4.893   3.082   5.936 -0.6653  0.7626  1.3937
 9894TIP3   OH251096   4.761   0.423  16.709 -0.8327 -0.8467 -0.3498
 9894TIP3    H151097   4.678   0.440  16.755 -0.0655 -0.4259  0.9522
 9894TIP3    H251098   4.821   0.490  16.744  1.3210 -3.8534  2.2429
 9895TIP3   OH251099   4.165   4.197   2.314 -0.5328 -0.0585  0.2563
 9895TIP3    H151100   4.220   4.176   2.390 -1.4953 -2.4818  0.3884
 9895TIP3    H251101   4.221   4.181   2.238 -0.2255  0.2271  0.4200
 9896TIP3   OH251102   4.541   4.456  14.018 -0.0541  0.3902  0.2179
 9896TIP3    H151103   4.475   4.486  14.081  0.5361  1.2167  0.4539
 9896TIP3    H251104   4.542   4.524  13.951 -0.0095 -0.0201 -0.1978
 9897TIP3   OH251105   4.135   3.116   2.873  0.3288 -0.0445 -0.2646
 9897TIP3    H151106   4.168   3.186   2.817  0.1720 -0.3540 -0.7508
 9897TIP3    H251107   4.069   3.158   2.927  1.2093  0.4877  0.4274
 9898TIP3   OH251108   2.213   1.149   3.978  0.5254 -0.4364 -0.1259
 9898TIP3    H151109   2.118   1.158   3.985  0.6326  1.5686 -0.5448
 9898TIP3    H251110   2.240   1.223   3.923  2.2710 -1.3216 -0.5397
 9899TIP3   OH251111   4.872   4.395  14.438 -0.5652  0.2962 -0.1489
 9899TIP3    H151112   4.935   4.440  14.381 -1.0247 -1.0035 -1.7468
 9899TIP3    H251113   4.923   4.371  14.516  0.6436  0.2062 -0.9441
 9900TIP3   OH251114   0.046   3.168  11.255  0.1726  0.0423  0.6738
 9900TIP3    H151115   0.129   3.189  11.298  1.0017 -0.1997 -0.7191
 9900TIP3    H251116   0.063   3.184  11.162 -0.1529 -3.4005 -0.1227
 9901TIP3   OH251117   4.000   6.792  16.513  0.3620 -0.8677  0.0110
 9901TIP3    H151118   3.966   6.752  16.433  1.5345 -0.3892 -0.7624
 9901TIP3    H251119   3.950   6.751  16.583 -2.7411  0.7548 -1.0606
 9902TIP3   OH251120   4.889   6.157   5.497 -0.0754  0.3915 -0.2509
 9902TIP3    H151121   4.966   6.110   5.529 -0.3719  1.4255  2.1914
 9902TIP3    H251122   4.918   6.248   5.489 -0.7149  0.5806 -0.4686
 9903TIP3   OH251123   2.283   1.521   4.844  0.1896  0.0999  0.2315
 9903TIP3    H151124   2.239   1.579   4.781 -0.3509 -0.4044  0.1351
 9903TIP3    H251125   2.212   1.469   4.882  0.8203 -1.5068 -0.7280
 9904TIP3   OH251126   5.309   3.382  13.866 -0.1864 -0.2952 -0.1256
 9904TIP3    H151127   5.350   3.296  13.879  1.4070  0.1776 -1.7082
 9904TIP3    H251128   5.306   3.420  13.954  1.0209 -1.1237  0.3029
 9905TIP3   OH251129   5.703   3.604  16.157 -0.3543 -0.5146 -0.0411
 9905TIP3    H151130   5.688   3.650  16.239  0.8169  0.6945 -0.4697
 9905TIP3    H251131   5.739   3.519  16.183  0.6606  0.1242  0.6902
 9906TIP3   OH251132   4.097   2.376   1.860 -0.0847  0.0980  0.0913
 9906TIP3    H151133   4.109   2.407   1.950 -1.1781  0.5949  0.0860
 9906TIP3    H251134   4.050   2.293   1.870 -1.9030  1.0705 -0.0587
 9907TIP3   OH251135   1.559   5.712  14.150  0.4614 -0.6320  0.1147
 9907TIP3    H151136   1.599   5.644  14.097  0.5107 -2.8269  2.7606
 9907TIP3    H251137   1.467   5.686  14.159  0.4627 -0.3358  1.1196
 9908TIP3   OH251138   2.702   5.862  14.303 -0.0936 -0.1658  0.1801
 9908TIP3    H151139   2.633   5.918  14.338  0.2634  0.0633  0.5134
 9908TIP3    H251140   2.690   5.779  14.348 -0.1023 -0.1046  0.2899
 9909TIP3   OH251141   0.346   6.275   4.246 -0.7030 -0.0589  0.0064
 9909TIP3    H151142   0.261   6.275   4.289 -0.1938  1.4681  1.1018
 9909TIP3    H251143   0.326   6.283   4.153 -1.7506 -0.1636  0.2112
 9910TIP3   OH251144   0.984   5.027  14.202  0.0938  0.1449 -0.3024
 9910TIP3    H151145   1.000   4.976  14.122  0.8340  0.6546 -0.4881
 9910TIP3    H251146   1.065   5.018  14.253 -0.9234 -1.4954  1.1593
 9911TIP3   OH251147   3.508   5.986  13.405  0.7497  0.3258 -0.1196
 9911TIP3    H151148   3.526   5.892  13.396  1.9038  0.3954  1.2250
 9911TIP3    H251149   3.586   6.022  13.447 -0.9612  1.3359  2.4145
 9912TIP3   OH251150   1.392   3.644  13.030  0.2148  0.7511 -0.0199
 9912TIP3    H151151   1.312   3.593  13.042  0.2248 -0.0283 -2.6064
 9912TIP3    H251152   1.450   3.587  12.979  2.3802  1.3904  1.5563
 9913TIP3   OH251153   2.259   0.755  10.660  0.2097  0.2164 -0.1587
 9913TIP3    H151154   2.346   0.751  10.619 -0.3360 -0.4028 -1.3273
 9913TIP3    H251155   2.233   0.663  10.668 -0.5781  0.4117 -0.3817
 9914TIP3   OH251156   5.991   4.497  12.483  0.1708 -0.4078 -0.3170
 9914TIP3    H151157   5.928   4.493  12.556 -0.6942  1.2069 -0.9383
 9914TIP3    H251158   6.008   4.405  12.462 -2.8941 -0.9418 -0.8756
 9915TIP3   OH251159   0.321   1.956   1.477 -0.0065  0.1855 -0.3600
 9915TIP3    H151160   0.234   1.944   1.515  0.3261 -0.2490  0.2765
 9915TIP3    H251161   0.326   2.050   1.458 -0.9353  0.0929 -1.2187
 9916TIP3   OH251162   5.973   3.069   6.105 -0.1921  0.1982 -0.8203
 9916TIP3    H151163   5.994   3.011   6.032 -0.0582 -0.5998 -0.1614
 9916TIP3    H251164   6.039   3.138   6.100  0.1580 -0.1505 -1.1287
 9917TIP3   OH251165   1.317   1.812   1.982  0.4946  0.4875  1.1027
 9917TIP3    H151166   1.331   1.808   2.076  0.0090 -1.4752  1.1282
 9917TIP3    H251167   1.223   1.828   1.972  0.5789  0.9080  0.9365
 9918TIP3   OH251168   4.523   2.896  16.678  0.2478 -0.2364  0.3225
 9918TIP3    H151169   4.514   2.803  16.656 -1.2600  0.0321 -0.3614
 9918TIP3    H251170   4.463   2.941  16.617  2.3069  1.3780 -0.6457
 9919TIP3   OH251171   1.721   3.939  14.008 -0.3290  0.4671  0.3171
 9919TIP3    H151172   1.815   3.924  14.020 -0.0669  0.2511 -1.6134
 9919TIP3    H251173   1.681   3.854  14.026 -0.2988  0.7713  2.0211
 9920TIP3   OH251174   0.176   0.835   5.855 -0.0445  0.0466 -0.0406
 9920TIP3    H151175   0.242   0.864   5.792 -0.9484  2.2104 -0.0911
 9920TIP3    H251176   0.116   0.781   5.803 -0.0381  0.6860 -0.7313
 9921TIP3   OH251177   6.519   6.669   6.785 -1.0794 -0.0964  0.1916
 9921TIP3    H151178   6.590   6.623   6.740  0.8671  1.9971  0.9212
 9921TIP3    H251179   6.442   6.654   6.730  0.2730 -1.1054 -1.5404
 9922TIP3   OH251180   1.933   4.338  13.820 -0.2624 -0.3399 -0.0577
 9922TIP3    H151181   1.970   4.392  13.889  1.9084 -1.0049 -0.6226
 9922TIP3    H251182   1.840   4.360  13.819 -0.4282 -0.4057  3.1477
 9923TIP3   OH251183   4.819   4.453   3.434  0.5013 -0.3424  0.2528
 9923TIP3    H151184   4.754   4.442   3.504 -0.8656  1.4601 -0.6332
 9923TIP3    H251185   4.844   4.364   3.410 -1.9898 -1.1315  0.3441
 9924TIP3   OH251186   5.871   1.208   5.727  0.1545 -0.1935  0.2967
 9924TIP3    H151187   5.919   1.251   5.797  0.0031 -0.9311  0.8646
 9924TIP3    H251188   5.906   1.119   5.725 -2.3967 -1.3585  1.9531
 9925TIP3   OH251189   3.151   4.991   0.697  0.0081  0.3038  0.0885
 9925TIP3    H151190   3.208   5.060   0.731 -1.7593  1.2545  1.2438
 9925TIP3    H251191   3.133   4.935   0.772  1.1784 -1.3043 -0.7719
 9926TIP3   OH251192   0.061   4.983  15.545  0.1882  0.4520 -0.2682
 9926TIP3    H151193   0.123   5.028  15.602 -0.0010 -0.0007  0.3005
 9926TIP3    H251194   0.104   4.983  15.459  1.1573 -0.1963  0.1975
 9927TIP3   OH251195   0.936   5.836   1.404 -0.1773 -0.1951 -0.1290
 9927TIP3    H151196   0.847   5.834   1.439 -0.2312  0.5524 -0.2040
 9927TIP3    H251197   0.989   5.876   1.473 -0.0448  0.0511 -0.3670
 9928TIP3   OH251198   3.428   4.396   0.979 -0.0303  0.4672 -0.7342
 9928TIP3    H151199   3.486   4.377   0.906  0.1310  1.3591 -0.8478
 9928TIP3    H251200   3.365   4.459   0.943 -1.5526 -1.0454 -0.8427
 9929TIP3   OH251201   5.555   6.608  15.112 -0.2873 -0.1031  0.2646
 9929TIP3    H151202   5.577   6.700  15.097  0.8222 -0.6250 -1.5607
 9929TIP3    H251203   5.613   6.580  15.182  0.6779  0.1136 -0.4374
 9930TIP3   OH251204   4.871   2.247   1.723  0.5875 -0.4873 -0.2487
 9930TIP3    H151205   4.937   2.200   1.774  0.1551 -0.6366  0.1824
 9930TIP3    H251206   4.812   2.178   1.692  1.1756 -0.4728 -1.4683
 9931TIP3   OH251207   5.952   6.454  10.756 -0.5048  0.0467 -0.0736
 9931TIP3    H151208   6.009   6.491  10.823  0.5166  0.5367 -1.1647
 9931TIP3    H251209   5.892   6.396  10.804  0.8038 -0.3597  1.1292
 9932TIP3   OH251210   2.330   3.052  16.287  0.1222  0.2352 -0.1168
 9932TIP3    H151211   2.259   2.987  16.283  1.6890 -1.4794 -2.1138
 9932TIP3    H251212   2.288   3.134  16.261 -1.8024  0.0036  1.9457
 9933TIP3   OH251213   1.196   0.996  11.735 -0.0528 -0.4591  0.3146
 9933TIP3    H151214   1.188   1.066  11.671  0.5073 -0.3282  0.3767
 9933TIP3    H251215   1.176   0.916  11.686 -0.1766 -0.3038  0.1133
 9934TIP3   OH251216   0.260   6.011  12.970  0.4717 -0.7778 -0.0893
 9934TIP3    H151217   0.198   5.951  12.927 -0.3331 -0.8335  1.1062
 9934TIP3    H251218   0.227   6.098  12.947 -0.6635 -0.7965  1.3219
 9935TIP3   OH251219   1.450   1.901  16.863 -0.1176 -0.6711 -0.2398
 9935TIP3    H151220   1.503   1.846  16.921  0.5219 -0.9916 -1.1097
 9935TIP3    H251221   1.511   1.968  16.832 -0.4907 -0.4125 -0.4218
 9936TIP3   OH251222   1.660   2.130   0.180 -0.3262 -0.0759 -0.5142
 9936TIP3    H151223   1.568   2.143   0.157 -0.7169 -0.0898  0.9996
 9936TIP3    H251224   1.663   2.044   0.221  0.2604  0.1798 -0.0057
 9937TIP3   OH251225   4.618   4.692   3.608  0.2413  0.2584  0.5028
 9937TIP3    H151226   4.530   4.719   3.583  0.9777  1.1258 -1.3285
 9937TIP3    H251227   4.627   4.604   3.573  0.1280  0.2004  0.6191
 9938TIP3   OH251228   1.718   0.265   5.702 -0.7096 -0.2331 -0.1026
 9938TIP3    H151229   1.760   0.242   5.784  1.0402 -0.7057 -1.0673
 9938TIP3    H251230   1.790   0.282   5.642 -1.9393  1.6065 -1.1565
 9939TIP3   OH251231   2.727   6.383   4.091  0.4222  0.2395  0.3490
 9939TIP3    H151232   2.681   6.351   4.013  2.4691  1.7509 -1.6443
 9939TIP3    H251233   2.795   6.317   4.108 -0.1648 -0.2007  1.0176
 9940TIP3   OH251234   1.974   5.045  12.875  0.0760 -0.2929  0.0357
 9940TIP3    H151235   1.955   5.110  12.943  0.3997  0.3473 -0.4623
 9940TIP3    H251236   1.998   5.098  12.798  0.2191 -1.0060 -0.4202
 9941TIP3   OH251237   1.364   2.376  15.991 -0.0385 -0.3898 -0.2174
 9941TIP3    H151238   1.432   2.340  15.934 -0.7930  0.0398 -1.4433
 9941TIP3    H251239   1.340   2.303  16.048  2.7391 -0.0369  1.5750
 9942TIP3   OH251240   5.392   4.835   1.384  0.0547  0.0186 -0.0680
 9942TIP3    H151241   5.459   4.832   1.453  0.3968  0.2430 -0.3863
 9942TIP3    H251242   5.418   4.908   1.329  0.2997 -0.7336 -0.9682
 9943TIP3   OH251243   5.558   5.938   2.537  0.0296 -0.0534 -0.3663
 9943TIP3    H151244   5.552   5.961   2.630 -0.4848 -0.2865 -0.3392
 9943TIP3    H251245   5.557   5.843   2.535  0.3337 -0.0531 -0.5945
 9944TIP3   OH251246   3.532   6.687   0.078  0.2919 -0.8521  0.0953
 9944TIP3    H151247   3.570   6.613   0.126 -1.5363 -2.8789 -1.3893
 9944TIP3    H251248   3.562   6.675  -0.012  1.0720  1.0690  0.0442
 9945TIP3   OH251249   5.726   4.140  16.465 -0.1235 -0.4601 -0.8789
 9945TIP3    H151250   5.809   4.173  16.501  0.0818 -1.6469 -0.2179
 9945TIP3    H251251   5.752   4.064  16.413 -0.7592 -0.5493 -1.0705
 9946TIP3   OH251252   4.724   2.259  14.432  0.1844 -0.3410  0.0717
 9946TIP3    H151253   4.783   2.335  14.432  1.1370 -1.0382  1.6606
 9946TIP3    H251254   4.778   2.186  14.462 -1.5230 -0.9532  1.8687
 9947TIP3   OH251255   2.687   3.109   6.635 -0.4895 -0.1625 -0.3875
 9947TIP3    H151256   2.767   3.158   6.652 -0.3401 -0.7226  0.6118
 9947TIP3    H251257   2.705   3.022   6.669 -1.3274 -0.4524 -0.6696
 9948TIP3   OH251258   6.080   2.609  16.309 -0.1102  0.4554 -0.1723
 9948TIP3    H151259   6.097   2.522  16.344 -1.2665  0.0743 -0.5045
 9948TIP3    H251260   6.138   2.616  16.233  0.8729  0.4672  0.5630
 9949TIP3   OH251261   5.539   6.315  13.366  0.0213 -0.0456 -0.6117
 9949TIP3    H151262   5.465   6.334  13.308 -1.0440  1.0161  1.0046
 9949TIP3    H251263   5.576   6.234  13.332 -1.4653 -0.2444 -1.8785
 9950TIP3   OH251264   3.471   0.015   0.459  0.1591 -0.4152  0.7308
 9950TIP3    H151265   3.513   0.078   0.517  0.5057  1.8254 -1.7620
 9950TIP3    H251266   3.544  -0.030   0.417 -0.0700 -1.0361  0.9849
 9951TIP3   OH251267   2.250   1.242   1.815 -0.2658  0.3276 -0.1404
 9951TIP3    H151268   2.332   1.202   1.786 -0.4033  1.2185 -1.9314
 9951TIP3    H251269   2.278   1.312   1.874  0.2854  0.5531 -0.6504
 9952TIP3   OH251270   0.411   6.511   0.164  0.2606  1.2959  0.3281
 9952TIP3    H151271   0.405   6.417   0.182  1.7343  0.7291 -1.7846
 9952TIP3    H251272   0.321   6.542   0.170 -0.3279 -0.3648  0.5492
 9953TIP3   OH251273   1.119   2.088  14.019 -0.2537 -0.2560  0.1043
 9953TIP3    H151274   1.155   2.117  14.103 -1.5721  1.0609  0.2480
 9953TIP3    H251275   1.082   2.002  14.038  0.6060 -0.5405  0.5456
 9954TIP3   OH251276   6.619   4.477   2.692 -0.0117  0.2799 -0.0356
 9954TIP3    H151277   6.634   4.394   2.649  1.6055  0.3192  0.4051
 9954TIP3    H251278   6.551   4.520   2.639 -0.3718 -1.0009 -0.6517
 9955TIP3   OH251279   0.897   3.155   5.405 -0.1628  0.4847  0.3987
 9955TIP3    H151280   0.990   3.171   5.388 -0.5341 -0.2604 -2.7987
 9955TIP3    H251281   0.897   3.095   5.480  1.7957  2.0130  1.7279
 9956TIP3   OH251282   4.521   5.614  11.458  0.3000  0.1282  0.6001
 9956TIP3    H151283   4.585   5.554  11.497  0.1898  0.9812  2.1868
 9956TIP3    H251284   4.558   5.636  11.373  1.6355 -0.1870  1.0603
 9957TIP3   OH251285   6.039   0.469  15.045  0.0253 -0.6245  0.2881
 9957TIP3    H151286   5.949   0.496  15.060 -0.7088 -2.6003 -0.3120
 9957TIP3    H251287   6.037   0.421  14.963  1.4712 -1.3708  0.6560
 9958TIP3   OH251288   6.026   0.851  11.478  0.4358  0.1474  0.1574
 9958TIP3    H151289   6.055   0.887  11.394  2.6822  0.5076  1.0195
 9958TIP3    H251290   6.092   0.880  11.541 -0.6348 -0.9694  1.8959
 9959TIP3   OH251291   3.235   5.801  13.657 -0.3794  0.1186 -0.0548
 9959TIP3    H151292   3.322   5.835  13.678 -0.6326  1.0577 -0.4867
 9959TIP3    H251293   3.250   5.740  13.585  0.1691 -1.2673  1.1792
 9960TIP3   OH251294   2.804   0.345  14.195  0.0606  0.1242 -0.3836
 9960TIP3    H151295   2.714   0.364  14.222  0.0013 -0.6274 -0.0344
 9960TIP3    H251296   2.796   0.280  14.126  0.3272  0.2076 -0.4968
 9961TIP3   OH251297   4.322   2.237   4.680  0.1674  0.2538  0.1127
 9961TIP3    H151298   4.376   2.196   4.612  0.8864  0.2982  0.6482
 9961TIP3    H251299   4.325   2.175   4.753  0.7120  0.9452  0.6849
 9962TIP3   OH251300   4.734   3.464   4.144  0.1869 -0.4326 -0.0039
 9962TIP3    H151301   4.798   3.523   4.182  0.9696 -1.6389  0.6383
 9962TIP3    H251302   4.720   3.398   4.212 -1.1245 -0.6359 -0.4539
 9963TIP3   OH251303   5.934   1.919   2.622 -0.7742 -0.5783  0.2862
 9963TIP3    H151304   5.909   1.981   2.553  0.0101 -1.6504 -1.0140
 9963TIP3    H251305   6.028   1.910   2.613 -0.9325 -2.3562  0.0752
 9964TIP3   OH251306   6.359   3.499  14.105 -0.5169  0.2499 -0.0308
 9964TIP3    H151307   6.393   3.586  14.126  0.2600 -0.1976  0.6455
 9964TIP3    H251308   6.436   3.450  14.076 -0.9988 -0.1369 -0.6661
 9965TIP3   OH251309   0.781   5.780  15.145 -0.4507 -0.2892  0.3336
 9965TIP3    H151310   0.871   5.756  15.122 -0.2067  1.5879 -0.8958
 9965TIP3    H251311   0.784   5.792  15.240  0.4378 -0.8553  0.3912
 9966TIP3   OH251312   0.411   1.400  15.391  0.0607  0.3573 -0.1025
 9966TIP3    H151313   0.497   1.359  15.380 -0.6859 -0.9333 -1.3307
 9966TIP3    H251314   0.404   1.461  15.318 -1.1778 -1.6118 -1.7342
 9967TIP3   OH251315   4.404   3.835   6.173  0.4217 -0.0685  0.7666
 9967TIP3    H151316   4.337   3.768   6.160  1.3668 -0.7812 -0.6574
 9967TIP3    H251317   4.484   3.786   6.192  0.7308  0.7401  1.6138
 9968TIP3   OH251318   0.437   2.809   0.631  0.2182  0.1795  0.2995
 9968TIP3    H151319   0.462   2.901   0.633 -1.4211  0.6837 -0.8519
 9968TIP3    H251320   0.354   2.805   0.677 -0.2105 -0.5579 -0.4982
 9969TIP3   OH251321   4.240   4.187   5.907 -0.1357 -0.9237 -0.6605
 9969TIP3    H151322   4.195   4.257   5.861 -1.3924 -0.7026  0.8153
 9969TIP3    H251323   4.333   4.212   5.904 -0.3609 -0.1376 -1.6779
 9970TIP3   OH251324   2.406   0.635   4.910 -0.1343 -0.4346  0.6332
 9970TIP3    H151325   2.413   0.667   5.000  1.2521  1.3778 -0.0554
 9970TIP3    H251326   2.485   0.583   4.897 -0.1261 -0.3541  0.3453
 9971TIP3   OH251327   3.257   4.687   4.199 -0.4308  0.1412  0.3443
 9971TIP3    H151328   3.341   4.641   4.200 -1.5023 -1.9787  0.1220
 9971TIP3    H251329   3.237   4.698   4.106 -0.7797 -0.1579  0.3791
 9972TIP3   OH251330   5.622   0.641  12.866  0.3286 -0.1873 -0.5598
 9972TIP3    H151331   5.694   0.579  12.880  0.1300 -0.1837  0.5462
 9972TIP3    H251332   5.666   0.725  12.852  0.5497 -0.0434  0.8610
 9973TIP3   OH251333   1.588   4.634   3.887 -0.2604 -0.0204 -0.4356
 9973TIP3    H151334   1.525   4.706   3.893 -0.0616  0.0438  2.0027
 9973TIP3    H251335   1.537   4.560   3.854 -1.9880 -0.2486  2.3769
 9974TIP3   OH251336   5.946   5.372  15.416  0.0998 -0.1322 -0.1053
 9974TIP3    H151337   5.885   5.362  15.343  0.2795 -2.9282 -0.0106
 9974TIP3    H251338   5.916   5.306  15.480  1.9826 -0.1378  0.8318
 9975TIP3   OH251339   3.835   3.802   2.364 -0.0796  0.4047 -0.3613
 9975TIP3    H151340   3.883   3.761   2.292  3.9158  3.0782  0.4600
 9975TIP3    H251341   3.851   3.896   2.354 -2.4043  1.1951  2.0459
 9976TIP3   OH251342   3.076   4.227   1.634  0.3110  0.1819  0.1398
 9976TIP3    H151343   3.041   4.139   1.644  2.3891 -0.9393 -1.5140
 9976TIP3    H251344   3.008   4.275   1.586 -0.2047 -0.9982 -0.3416
 9977TIP3   OH251345   3.697   1.442   0.230 -0.1238 -0.0187  0.1711
 9977TIP3    H151346   3.704   1.369   0.291  0.4951  0.0891  0.2325
 9977TIP3    H251347   3.724   1.518   0.281  0.0001  0.1340 -0.1204
 9978TIP3   OH251348   2.094   2.597  11.596  0.0888  0.0225 -0.2520
 9978TIP3    H151349   2.009   2.641  11.596 -0.5794 -1.1076 -2.8288
 9978TIP3    H251350   2.150   2.653  11.543  0.3585 -0.2420 -0.2482
 9979TIP3   OH251351   5.655   5.142  11.412  0.0863  0.4608 -0.0237
 9979TIP3    H151352   5.718   5.073  11.432  0.8683  1.1626 -0.0386
 9979TIP3    H251353   5.582   5.126  11.472 -1.1288 -2.1392 -1.9415
 9980TIP3   OH251354   5.115   2.918  11.630  0.2484  0.2288  0.3015
 9980TIP3    H151355   5.056   2.927  11.555 -0.4521 -0.8022  0.6967
 9980TIP3    H251356   5.142   3.007  11.650 -1.0470  0.7242 -0.0231
 9981TIP3   OH251357   3.373   2.993  12.194 -0.4414  0.3579 -0.3305
 9981TIP3    H151358   3.315   3.052  12.241 -1.5424 -0.9850  0.0593
 9981TIP3    H251359   3.363   2.909  12.238  0.0417 -0.4624 -1.7043
 9982TIP3   OH251360   2.851   6.090   2.523  0.1858  0.0779 -0.0870
 9982TIP3    H151361   2.763   6.107   2.555  0.0240 -1.2518  0.2431
 9982TIP3    H251362   2.841   6.015   2.464  1.3536 -1.5472  1.6419
 9983TIP3   OH251363   1.931   1.693   0.677 -0.2418 -0.3834  0.1390
 9983TIP3    H151364   1.964   1.783   0.684 -2.1194  0.4230 -0.6742
 9983TIP3    H251365   1.921   1.664   0.767 -1.3261  0.9209  0.4675
 9984TIP3   OH251366   3.635   5.524  12.207  0.3201  0.1580 -0.3168
 9984TIP3    H151367   3.602   5.522  12.297 -0.6706  0.8474 -0.6443
 9984TIP3    H251368   3.580   5.460  12.160  0.4463  0.2208 -0.5528
 9985TIP3   OH251369   0.938   2.877   0.207  0.2160 -0.5362  0.8587
 9985TIP3    H151370   1.005   2.814   0.231  0.3722 -0.2220  1.2601
 9985TIP3    H251371   0.923   2.928   0.287  0.8330  0.6148  0.2582
 9986TIP3   OH251372   1.779   6.601   4.919 -0.2444  0.1956  0.2900
 9986TIP3    H151373   1.713   6.537   4.894 -0.4117 -0.1136  1.4955
 9986TIP3    H251374   1.863   6.556   4.906 -0.1508  0.9125 -2.2109
 9987TIP3   OH251375   6.180   1.477  12.620  0.2788  0.1454 -0.3081
 9987TIP3    H151376   6.134   1.560  12.631 -0.4977 -0.4792  1.5680
 9987TIP3    H251377   6.273   1.501  12.623  0.1103  1.1906 -2.1987
 9988TIP3   OH251378   0.003   2.354   2.842 -0.0520  0.4439 -0.0335
 9988TIP3    H151379   0.016   2.438   2.798  2.2846 -0.3215 -0.9207
 9988TIP3    H251380   0.005   2.376   2.935  0.4628  1.3720 -0.2534
 9989TIP3   OH251381   0.144   3.637   3.933  0.7804  0.1953 -0.4078
 9989TIP3    H151382   0.164   3.557   3.884  3.0251  0.7062 -0.4327
 9989TIP3    H251383   0.078   3.682   3.880 -0.0760 -1.3403 -0.6879
 9990TIP3   OH251384   0.487   4.604  15.215  0.2586  0.0749 -0.6226
 9990TIP3    H151385   0.565   4.573  15.169  0.8255  1.0759 -0.3668
 9990TIP3    H251386   0.433   4.526  15.226  1.1184 -0.5928 -1.0106
 9991TIP3   OH251387   6.326   0.236  13.443 -0.1958 -0.2600  0.1342
 9991TIP3    H151388   6.328   0.328  13.469 -0.0468 -0.3839  0.5674
 9991TIP3    H251389   6.373   0.233  13.359  2.8917 -0.4436  1.7191
 9992TIP3   OH251390   5.308   0.784   4.273  0.0520  0.1319  0.3664
 9992TIP3    H151391   5.245   0.840   4.227  0.0448  1.1857  1.5974
 9992TIP3    H251392   5.386   0.839   4.283  0.6529 -0.6629  0.1574
 9993TIP3   OH251393   2.543   0.767  10.645  0.1919  0.1185 -0.0333
 9993TIP3    H151394   2.570   0.685  10.604  0.4857 -0.9707  2.1995
 9993TIP3    H251395   2.625   0.813  10.662  0.0974  0.3818 -0.2802
 9994TIP3   OH251396   0.398   4.523   0.813  0.4364  0.0049  0.0982
 9994TIP3    H151397   0.494   4.516   0.818  0.3624 -1.5713 -0.0375
 9994TIP3    H251398   0.381   4.555   0.725  0.8312 -1.0293 -0.3793
 9995TIP3   OH251399   2.237   0.387   1.544 -0.4718 -0.2021 -0.4031
 9995TIP3    H151400   2.261   0.377   1.452  0.8129 -1.8023  0.0436
 9995TIP3    H251401   2.155   0.338   1.553  0.3059 -1.5413 -0.3789
 9996TIP3   OH251402   3.853   6.742   5.419 -0.2877  0.2997 -0.3575
 9996TIP3    H151403   3.831   6.662   5.465  0.3023 -0.7375 -1.8037
 9996TIP3    H251404   3.948   6.738   5.407 -0.2647  1.1594 -0.5353
 9997TIP3   OH251405   5.806   1.301  12.876  0.1778 -0.3065  0.3082
 9997TIP3    H151406   5.738   1.235  12.863  1.1193 -1.0138 -1.2466
 9997TIP3    H251407   5.839   1.284  12.965  0.6917 -2.2270 -0.2177
 9998TIP3   OH251408   1.592   4.584  12.128 -0.3185  0.0429 -0.3242
 9998TIP3    H151409   1.680   4.607  12.098 -1.1011  1.8835 -1.3867
 9998TIP3    H251410   1.565   4.513  12.072  0.6540 -0.8869  0.3411
 9999TIP3   OH251411   4.887   5.931  12.739 -0.3613 -0.1685 -0.5337
 9999TIP3    H151412   4.874   5.987  12.663  0.3956 -0.2533 -0.7306
 9999TIP3    H251413   4.799   5.902  12.762 -1.0920  2.8473  0.9518
10000TIP3   OH251414   4.551   3.898  11.750  0.4018 -0.1817  0.1807
10000TIP3    H151415   4.502   3.889  11.832 -0.1569  1.0765  0.0055
10000TIP3    H251416   4.621   3.833  11.757 -0.2272 -0.7837  1.2114
10001TIP3   OH251417   0.338   4.805   2.576 -0.1316 -0.7963  0.3946
10001TIP3    H151418   0.312   4.831   2.664 -0.9124  0.8731 -0.2911
10001TIP3    H251419   0.357   4.711   2.584 -0.0994 -0.6723  2.3356
10002TIP3   OH251420   5.078   1.540  14.825 -0.2136  0.0368 -0.3537
10002TIP3    H151421   5.126   1.485  14.887 -0.3292  0.2104 -0.1098
10002TIP3    H251422   5.093   1.629  14.855  1.3702  0.2866 -1.7178
10003TIP3   OH251423   2.870   5.094  12.637  0.0278 -0.6463 -0.4411
10003TIP3    H151424   2.905   5.063  12.721 -0.6838  0.8031  0.4488
10003TIP3    H251425   2.899   5.029  12.573  1.6266 -1.1586  0.7299
10004TIP3   OH251426   4.948   5.076   5.475  0.0817 -0.2729  0.4190
10004TIP3    H151427   4.991   5.099   5.558  0.0724  0.4289  0.2275
10004TIP3    H251428   5.019   5.049   5.418  0.0011 -1.7301  0.9589
10005TIP3   OH251429   2.345   1.684   4.361 -0.0273  0.4525  0.0050
10005TIP3    H151430   2.400   1.683   4.283  0.4866  0.0949  0.3666
10005TIP3    H251431   2.383   1.752   4.416 -0.7815  1.1533 -0.3298
10006TIP3   OH251432   4.043   5.714  12.089  0.2000  0.4359  0.1648
10006TIP3    H151433   4.022   5.803  12.060 -0.3577 -0.0593 -1.0075
10006TIP3    H251434   4.114   5.685  12.032 -1.0712 -0.6395 -0.9472
10007TIP3   OH251435   6.418   3.340   2.143 -0.2259  0.3220 -0.2863
10007TIP3    H151436   6.409   3.342   2.238  0.4927 -0.0693 -0.2034
10007TIP3    H251437   6.331   3.363   2.110  0.3063  4.0998  0.4502
10008TIP3   OH251438   0.101   4.850   1.397 -0.1533 -0.1088 -0.3933
10008TIP3    H151439   0.040   4.877   1.466 -0.7124  2.4308 -1.7532
10008TIP3    H251440   0.125   4.932   1.354  5.0834 -0.7562  0.6723
10009TIP3   OH251441   4.948   2.611   2.789  0.4235 -0.2205  0.0334
10009TIP3    H151442   4.858   2.637   2.771  0.8399  1.1365 -0.2092
10009TIP3    H251443   4.941   2.522   2.824 -0.8416 -0.8427 -1.6943
10010TIP3   OH251444   1.584   4.325  15.109  0.2204 -0.3694  0.4034
10010TIP3    H151445   1.556   4.237  15.081 -0.8470  0.1608 -0.2261
10010TIP3    H251446   1.579   4.378  15.029  0.4441  0.3690  0.8770
10011TIP3   OH251447   3.344   1.947  15.317 -0.0529  0.3383 -0.0476
10011TIP3    H151448   3.374   2.038  15.318 -0.0607  0.3360  0.3666
10011TIP3    H251449   3.267   1.948  15.260  0.6731  0.3577 -1.0551
10012TIP3   OH251450   2.588   0.546   1.684  0.0775  0.3069 -0.0115
10012TIP3    H151451   2.621   0.552   1.595  0.3945  1.5233  0.1790
10012TIP3    H251452   2.661   0.510   1.735 -0.0251 -0.1585 -0.1826
10013TIP3   OH251453   5.905   1.198  10.826 -0.5127  0.5929  0.5559
10013TIP3    H151454   5.848   1.273  10.810 -0.1354  0.7571 -0.0454
10013TIP3    H251455   5.993   1.235  10.833 -0.5580  0.4491  2.3772
10014TIP3   OH251456   3.363   4.417   3.585 -0.3797 -0.0639 -0.0682
10014TIP3    H151457   3.398   4.451   3.668 -0.9193 -0.2699  0.2461
10014TIP3    H251458   3.282   4.465   3.572 -0.0082  0.3828 -0.7802
10015TIP3   OH251459   1.811   2.464   3.826 -0.1410 -0.0750 -0.1128
10015TIP3    H151460   1.791   2.553   3.853  0.4598  0.0861 -0.1892
10015TIP3    H251461   1.729   2.416   3.839 -0.1403  0.2083  1.0827
10016TIP3   OH251462   2.307   3.285  12.478  0.8494  0.0272  0.6315
10016TIP3    H151463   2.230   3.339  12.497 -0.1318 -0.7285 -0.9682
10016TIP3    H251464   2.278   3.195  12.493  1.2737 -0.2947 -0.3979
10017TIP3   OH251465   0.438   2.619  12.529 -0.4550 -0.3208 -0.2815
10017TIP3    H151466   0.433   2.557  12.457 -0.5603  0.7183 -1.2079
10017TIP3    H251467   0.422   2.704  12.488 -0.7253  0.2795  1.0062
10018TIP3   OH251468   4.888   1.902   1.956 -0.0818 -0.5050  0.1454
10018TIP3    H151469   4.795   1.912   1.977 -0.4783 -1.1307 -1.1768
10018TIP3    H251470   4.933   1.955   2.021 -1.2930 -1.0549  1.4895
10019TIP3   OH251471   5.133   5.769  14.365 -0.3246 -0.5255 -0.7543
10019TIP3    H151472   5.227   5.759  14.377 -0.2873 -1.2217 -1.5677
10019TIP3    H251473   5.100   5.790  14.452  0.5279 -0.6746 -0.3843
10020TIP3   OH251474   1.007   1.765   1.238  0.8968 -0.4612  0.2901
10020TIP3    H151475   1.017   1.693   1.176  0.7925 -0.3112  0.0982
10020TIP3    H251476   1.052   1.839   1.197  0.0404 -0.1092 -0.0338
10021TIP3   OH251477   5.024   3.729  14.172 -0.0311  0.1095 -0.5270
10021TIP3    H151478   4.984   3.715  14.086  0.1932 -0.1772 -0.5820
10021TIP3    H251479   4.970   3.677  14.232  0.0375  0.0134 -0.5486
10022TIP3   OH251480   3.784   6.469  11.808 -0.3421 -0.3684  0.0272
10022TIP3    H151481   3.747   6.381  11.801  0.0280 -0.5173 -0.0586
10022TIP3    H251482   3.747   6.517  11.734 -0.8039 -0.3532  0.2620
10023TIP3   OH251483   1.749   3.772  16.906 -0.3251 -0.4958  0.7901
10023TIP3    H151484   1.710   3.686  16.887  0.3133 -1.1526  2.2738
10023TIP3    H251485   1.721   3.792  16.995  3.0833 -1.2940  2.2026
10024TIP3   OH251486   3.472   2.441  13.867 -0.4689 -0.0104  0.2193
10024TIP3    H151487   3.419   2.412  13.793  0.7426 -1.6028 -0.0783
10024TIP3    H251488   3.412   2.438  13.942 -1.1858 -0.3617 -0.3567
10025TIP3   OH251489   1.140   4.948  13.152 -0.1572  0.1535  1.1556
10025TIP3    H151490   1.140   5.043  13.169 -1.3615  0.1311  1.3483
10025TIP3    H251491   1.053   4.919  13.176 -0.2163 -0.8041 -0.0946
10026TIP3   OH251492   5.758   0.857   1.440  0.0650 -0.4582 -0.3514
10026TIP3    H151493   5.696   0.860   1.368 -0.2969 -0.7828 -0.0610
10026TIP3    H251494   5.714   0.804   1.507  0.5449 -0.4681 -0.0399
10027TIP3   OH251495   4.351   4.107  12.411  0.1166 -0.0914 -0.0642
10027TIP3    H151496   4.296   4.119  12.488  0.2932  0.0626  0.0418
10027TIP3    H251497   4.329   4.020  12.378 -0.9828  0.4082 -0.6731
10028TIP3   OH251498   1.021   5.600  12.388  0.5941 -0.1008 -0.5479
10028TIP3    H151499   1.029   5.692  12.362  1.2938  0.3371  1.1174
10028TIP3    H251500   1.033   5.600  12.483 -2.4204 -1.5344 -0.0294
10029TIP3   OH251501   1.697   3.482   2.673 -0.4878  0.2147 -0.2340
10029TIP3    H151502   1.773   3.433   2.642  0.2349  1.5584 -0.6842
10029TIP3    H251503   1.640   3.416   2.713  0.8193 -0.8571 -0.0648
10030TIP3   OH251504   4.927   5.380  10.690 -0.1407 -0.3139 -0.1273
10030TIP3    H151505   4.973   5.464  10.684 -0.6170  0.0092  0.5231
10030TIP3    H251506   4.861   5.384  10.621 -0.9218  0.3559  0.6202
10031TIP3   OH251507   3.671   5.828  11.928 -0.1005  0.3524 -0.2440
10031TIP3    H151508   3.704   5.740  11.946  0.2078  0.0938 -1.8797
10031TIP3    H251509   3.602   5.842  11.993  1.0214 -0.3892  1.1555
10032TIP3   OH251510   2.568   4.018  16.561 -0.4220 -0.1297 -0.5068
10032TIP3    H151511   2.648   3.969  16.542 -0.0427 -0.0624  0.7782
10032TIP3    H251512   2.516   3.960  16.617 -0.8189  0.2073 -0.5160
10033TIP3   OH251513   0.531   6.446  12.412  0.0731 -0.2765  0.4435
10033TIP3    H151514   0.436   6.455  12.404  0.0054 -1.5706 -0.4760
10033TIP3    H251515   0.548   6.460  12.506 -0.9484  0.4242  0.5488
10034TIP3   OH251516   6.704   4.976  11.835 -0.1701 -0.0638  0.7999
10034TIP3    H151517   6.644   4.913  11.873  0.5965 -0.4387  1.4013
10034TIP3    H251518   6.786   4.964  11.882  0.9627 -0.8685 -1.2618
10035TIP3   OH251519   2.549   1.345   1.006  0.4996 -0.5680  0.2078
10035TIP3    H151520   2.473   1.289   0.993 -0.9858  0.5886  3.1647
10035TIP3    H251521   2.617   1.306   0.950 -1.7037 -2.6469 -1.2082
10036TIP3   OH251522   2.097   1.934   4.876 -0.3290 -0.0472  0.0694
10036TIP3    H151523   2.036   1.877   4.923  1.1185 -0.2125  1.8429
10036TIP3    H251524   2.171   1.944   4.935  0.4374  1.8995 -1.1191
10037TIP3   OH251525   1.673   2.081  10.608  0.2379 -0.3530  0.5343
10037TIP3    H151526   1.634   2.048  10.528  2.7428 -2.0396 -0.0905
10037TIP3    H251527   1.622   2.041  10.678 -1.0015 -0.0859 -0.1811
10038TIP3   OH251528   5.848   3.713  12.530 -0.0500  0.2565  0.2430
10038TIP3    H151529   5.909   3.786  12.518 -0.1289  0.2708 -0.0744
10038TIP3    H251530   5.894   3.638  12.492 -0.1229  0.2155  0.2373
10039TIP3   OH251531   6.211   3.989  10.721 -0.0300 -0.4374 -0.3108
10039TIP3    H151532   6.281   4.014  10.660 -0.5385 -1.7495 -1.4600
10039TIP3    H251533   6.209   4.061  10.785  1.2403  0.4375 -1.2038
10040TIP3   OH251534   6.783   5.291  15.238 -0.1568  0.1392 -0.6774
10040TIP3    H151535   6.737   5.362  15.281 -0.6836 -0.3616 -0.3995
10040TIP3    H251536   6.741   5.283  15.152  1.9856  2.2472 -2.0337
10041TIP3   OH251537   5.097   0.253  12.897  0.3010  0.0431 -0.6055
10041TIP3    H151538   5.074   0.247  12.805  0.4172 -2.4418 -0.5426
10041TIP3    H251539   5.153   0.331  12.903 -2.4325  2.2737 -1.9412
10042TIP3   OH251540   4.161   2.078   3.403  0.0020  0.2925 -0.7348
10042TIP3    H151541   4.156   2.174   3.402  0.4827  0.3242 -0.4094
10042TIP3    H251542   4.181   2.055   3.312 -0.0587  0.5019 -0.8023
10043TIP3   OH251543   2.011   1.699  10.939  0.4517 -0.0725 -0.1710
10043TIP3    H151544   2.074   1.745  10.994  0.4325  0.8446 -0.9039
10043TIP3    H251545   1.926   1.719  10.978  0.2982  1.8764 -1.4119
10044TIP3   OH251546   6.655   6.042  16.582  0.3649 -0.1815 -0.2528
10044TIP3    H151547   6.578   6.008  16.628  0.8061 -2.1457 -0.8863
10044TIP3    H251548   6.638   6.024  16.490  1.6145 -0.7542 -0.3934
10045TIP3   OH251549   5.341   4.412  16.111  0.2829 -0.0153  0.0023
10045TIP3    H151550   5.381   4.492  16.145  1.1109  0.1355 -1.2659
10045TIP3    H251551   5.274   4.443  16.049  0.9272 -0.2883 -0.8470
10046TIP3   OH251552   1.543   4.556  11.111  0.7651 -0.0707  0.5781
10046TIP3    H151553   1.601   4.543  11.036  0.3126  1.4615 -0.0820
10046TIP3    H251554   1.478   4.619  11.080 -0.0027 -0.1442  1.9655
10047TIP3   OH251555   3.019   4.200   2.378 -0.2022  0.5693  0.4335
10047TIP3    H151556   3.034   4.286   2.337  1.2066 -0.5189 -1.5091
10047TIP3    H251557   3.006   4.220   2.470 -2.5441  3.1114 -0.2905
10048TIP3   OH251558   0.438   5.585  10.547 -0.4238 -0.2654 -0.2841
10048TIP3    H151559   0.484   5.566  10.629 -0.6541  0.0003 -0.0936
10048TIP3    H251560   0.432   5.500  10.503 -0.7856 -0.5039  0.2232
10049TIP3   OH251561   0.111   3.389  15.725  0.0282  0.0983  0.6849
10049TIP3    H151562   0.141   3.298  15.724  0.2755  0.1777 -0.7174
10049TIP3    H251563   0.042   3.390  15.791  0.2331 -1.0410  0.9398
10050TIP3   OH251564   2.525   6.597   1.723 -0.0508  0.2173  0.3297
10050TIP3    H151565   2.558   6.513   1.690  0.7184  1.1906 -1.5395
10050TIP3    H251566   2.603   6.642   1.756 -0.6353 -0.2297  2.4408
10051TIP3   OH251567   5.007   0.439  14.545  0.1271 -0.7608 -0.3295
10051TIP3    H151568   5.071   0.383  14.501 -0.3609 -2.7879  1.3984
10051TIP3    H251569   5.055   0.477  14.619  0.3171  0.8161 -1.2090
10052TIP3   OH251570   4.504   2.141  14.688 -0.3532  0.0111  0.1950
10052TIP3    H151571   4.599   2.152  14.686 -0.4789  1.1853 -1.1926
10052TIP3    H251572   4.481   2.114  14.599 -1.2022 -1.5747  0.8605
10053TIP3   OH251573   3.509   5.471   0.658  0.2084 -0.2121  0.2666
10053TIP3    H151574   3.437   5.408   0.656  1.2441 -1.4387  0.3419
10053TIP3    H251575   3.520   5.493   0.750  0.0297 -0.1332  0.2694
10054TIP3   OH251576   6.340   4.403   5.898  0.3450  0.1186 -0.6293
10054TIP3    H151577   6.274   4.397   5.968  0.2393 -0.4281 -0.7772
10054TIP3    H251578   6.396   4.327   5.911  2.2177  1.6230  0.7658
10055TIP3   OH251579   5.153   4.625  13.810  0.3530 -0.5109  0.7071
10055TIP3    H151580   5.059   4.609  13.799  0.3341 -0.8917  1.3762
10055TIP3    H251581   5.177   4.573  13.887  1.2829 -1.0325  0.0717
10056TIP3   OH251582   1.230   1.431   6.075  0.1136  0.2848 -0.3706
10056TIP3    H151583   1.270   1.344   6.068 -0.3527  0.1681 -2.1515
10056TIP3    H251584   1.141   1.415   6.105 -0.1293  0.0805 -1.1712
10057TIP3   OH251585   6.235   3.531   3.445 -0.5419  0.2359 -0.2571
10057TIP3    H151586   6.195   3.479   3.376 -1.3655 -0.2287  0.5616
10057TIP3    H251587   6.188   3.615   3.442  0.0295  0.5527 -0.8302
10058TIP3   OH251588   1.896   5.095   1.611 -0.4269 -0.1930  0.6971
10058TIP3    H151589   1.879   5.121   1.702  0.2407  0.8272  0.5395
10058TIP3    H251590   1.975   5.142   1.587 -0.4115 -0.7161 -0.3207
10059TIP3   OH251591   2.137   6.487   2.994 -0.3533 -0.2692  0.0263
10059TIP3    H151592   2.215   6.528   2.957 -0.2039 -0.7353 -0.1900
10059TIP3    H251593   2.068   6.505   2.930 -1.3195  3.1701  1.8292
10060TIP3   OH251594   1.594   0.269  14.769 -0.3666 -0.3490 -0.2744
10060TIP3    H151595   1.555   0.206  14.830 -1.7097 -0.1339 -0.8776
10060TIP3    H251596   1.571   0.235  14.682  1.5116 -0.6423 -0.6988
10061TIP3   OH251597   4.338   3.643  10.253 -0.2487  0.6453  0.0677
10061TIP3    H151598   4.410   3.589  10.221 -0.9030  0.6223 -1.4349
10061TIP3    H251599   4.381   3.723  10.286  0.4861  0.5176 -0.5471
10062TIP3   OH251600   2.224   4.103  16.174  0.8936  0.0602 -0.3718
10062TIP3    H151601   2.188   4.192  16.182  1.0278  0.0663  0.2420
10062TIP3    H251602   2.296   4.101  16.237 -0.3058 -1.0820  1.0312
10063TIP3   OH251603   3.325   0.067   3.929 -0.2913 -0.1206 -0.2081
10063TIP3    H151604   3.353   0.070   4.020 -1.6782 -0.8333  0.2771
10063TIP3    H251605   3.405   0.054   3.879  0.5725  0.9254  0.8421
10064TIP3   OH251606   2.171   5.138  15.166 -0.0946 -0.0687 -0.0348
10064TIP3    H151607   2.182   5.183  15.082  0.7737 -0.7321 -0.2944
10064TIP3    H251608   2.088   5.171  15.200  0.2109  1.2688 -0.4940
10065TIP3   OH251609   4.952   6.444   5.471  0.0370  0.0559 -0.8750
10065TIP3    H151610   5.010   6.507   5.514  0.1563 -0.2199 -0.6372
10065TIP3    H251611   4.869   6.491   5.462 -0.1680 -0.0855  0.1852
10066TIP3   OH251612   5.711   3.023  16.852 -0.0358 -0.1120  0.7618
10066TIP3    H151613   5.640   3.052  16.795  1.6752  1.0717 -0.9119
10066TIP3    H251614   5.722   2.931  16.832 -2.0339 -0.7378  2.1895
10067TIP3   OH251615   0.441   3.778  12.287 -0.5804 -0.0844  0.4916
10067TIP3    H151616   0.355   3.801  12.252 -0.8618  1.0509  1.8114
10067TIP3    H251617   0.423   3.712  12.354 -0.3015 -0.5956  0.0676
10068TIP3   OH251618   2.101   3.824  15.253  0.1526  0.2078  0.2451
10068TIP3    H151619   2.031   3.791  15.310  1.1934 -0.8042  0.9724
10068TIP3    H251620   2.149   3.746  15.227  2.2088  1.0364  1.3587
10069TIP3   OH251621   3.157   5.843   4.992  0.2794  0.5565  0.3460
10069TIP3    H151622   3.087   5.887   4.942 -2.4377 -2.1735  1.4038
10069TIP3    H251623   3.157   5.753   4.958  1.5494 -0.1597  2.1357
10070TIP3   OH251624   2.036   0.138   3.970  0.5573 -0.3160 -0.3921
10070TIP3    H151625   2.054   0.152   3.877  2.8811  1.8255  0.2602
10070TIP3    H251626   2.114   0.172   4.015 -1.8128  1.9362  2.4999
10071TIP3   OH251627   6.705   4.017   2.909 -0.0392 -0.2066 -0.0628
10071TIP3    H151628   6.732   3.942   2.962  0.8000  0.3284  0.2938
10071TIP3    H251629   6.629   4.052   2.954 -0.9575 -1.3371 -0.7026
10072TIP3   OH251630   6.154   3.691  15.661 -0.5871  0.2485 -0.0684
10072TIP3    H151631   6.092   3.760  15.638  0.7872  2.4170  2.2557
10072TIP3    H251632   6.111   3.643  15.732 -0.9515 -0.4619 -0.7439
10073TIP3   OH251633   1.378   0.837   1.522 -0.0140 -0.0016  0.1400
10073TIP3    H151634   1.325   0.892   1.579  1.9526  1.0311  1.0835
10073TIP3    H251635   1.363   0.748   1.553 -0.1223  0.4097  1.2924
10074TIP3   OH251636   5.109   4.016   6.151 -0.0358  0.8001 -0.2696
10074TIP3    H151637   5.185   3.958   6.138  0.6262  2.0527 -2.5222
10074TIP3    H251638   5.051   3.966   6.208  1.8670 -0.7742  0.4193
10075TIP3   OH251639   6.145   5.558  16.683  0.6779  0.1139 -0.7045
10075TIP3    H151640   6.068   5.505  16.703  2.1406 -0.9891  2.7817
10075TIP3    H251641   6.179   5.521  16.602 -0.1494 -2.1620 -0.0924
10076TIP3   OH251642   4.962   5.065  11.654 -0.7947  0.1857 -0.0771
10076TIP3    H151643   4.958   5.037  11.745 -2.9824 -0.9168 -0.4545
10076TIP3    H251644   5.056   5.061  11.632 -0.4659 -1.9712  1.4022
10077TIP3   OH251645   3.012   0.493   1.079 -0.5950  0.0177  0.1133
10077TIP3    H151646   3.068   0.416   1.078 -0.4577  0.1187  0.0765
10077TIP3    H251647   2.939   0.469   1.137 -0.8801 -0.3775 -0.3951
10078TIP3   OH251648   6.575   3.460   5.351 -0.4726 -0.0206 -0.0742
10078TIP3    H151649   6.523   3.387   5.386  0.4126  0.0744  1.5373
10078TIP3    H251650   6.520   3.537   5.364 -0.1384  0.0232  1.2566
10079TIP3   OH251651   1.959   1.222   1.067  0.1301  0.4917 -1.1957
10079TIP3    H151652   2.050   1.195   1.064  0.5076  1.2663  1.0466
10079TIP3    H251653   1.918   1.163   1.130 -0.8558  0.3590 -1.9298
10080TIP3   OH251654   1.100   5.018  13.833  0.5680  0.3605 -0.6029
10080TIP3    H151655   1.149   4.970  13.900  0.4764 -1.3141 -1.6746
10080TIP3    H251656   1.129   5.109  13.842  0.4455  0.2284  1.7861
10081TIP3   OH251657   2.981   5.647  14.493  0.2008  0.3423  0.8631
10081TIP3    H151658   2.942   5.614  14.412 -0.2385  0.1362  1.1531
10081TIP3    H251659   3.048   5.582  14.516 -1.4266 -1.0061  2.0477
10082TIP3   OH251660   4.224   2.230   4.066  0.1583  0.1896  0.1317
10082TIP3    H151661   4.200   2.293   3.998  0.5962  1.8219  1.4228
10082TIP3    H251662   4.142   2.211   4.112 -0.0501 -0.5353 -0.5261
10083TIP3   OH251663   2.376   6.467   0.613 -0.4913  0.2897 -0.0197
10083TIP3    H151664   2.439   6.477   0.684 -2.6300  1.0461  1.8893
10083TIP3    H251665   2.348   6.556   0.593 -0.5114  0.0154 -1.2870
10084TIP3   OH251666   5.128   2.100  15.663  0.0197 -0.4874  0.0652
10084TIP3    H151667   5.112   2.147  15.581 -1.1270 -1.8264 -0.5210
10084TIP3    H251668   5.218   2.069  15.656  0.5785  1.0386  0.1840
10085TIP3   OH251669   1.452   1.572  14.249  0.1242  0.4471 -0.8793
10085TIP3    H151670   1.391   1.510  14.209 -0.6578  1.4804 -1.3310
10085TIP3    H251671   1.420   1.585  14.338 -0.4500  1.1273 -1.1718
10086TIP3   OH251672   1.408   4.495   2.457 -0.4316  0.3427  0.1048
10086TIP3    H151673   1.441   4.583   2.476 -1.5535  0.6682  0.6855
10086TIP3    H251674   1.313   4.506   2.453 -0.6128 -0.8970  0.5044
10087TIP3   OH251675   4.655   3.493  14.128 -0.6482  0.2488  0.0222
10087TIP3    H151676   4.590   3.493  14.058 -2.8634 -0.7857  1.9246
10087TIP3    H251677   4.628   3.564  14.186  0.1661  0.0549  0.6695
10088TIP3   OH251678   0.617   2.553  14.080 -0.1052  0.2111 -0.2388
10088TIP3    H151679   0.552   2.622  14.074 -1.6234 -1.1767 -0.5425
10088TIP3    H251680   0.700   2.595  14.058 -0.9261  1.9853 -0.0401
10089TIP3   OH251681   3.217   1.539  15.997 -0.4124 -0.2564  0.0692
10089TIP3    H151682   3.188   1.489  15.921  0.4842 -1.5858  0.5544
10089TIP3    H251683   3.285   1.597  15.963 -2.3610  1.6871 -0.7564
10090TIP3   OH251684   0.175   6.681   3.131 -0.1449 -0.0091 -0.1398
10090TIP3    H151685   0.150   6.624   3.204  3.1644  1.3027  2.3088
10090TIP3    H251686   0.147   6.768   3.158  1.8353  0.6170  0.1157
10091TIP3   OH251687   5.640   6.477  14.588  0.1415 -0.0829 -0.2044
10091TIP3    H151688   5.595   6.506  14.509 -0.8638 -0.7822  0.0942
10091TIP3    H251689   5.604   6.391  14.606  0.6499 -0.0998  0.8043
10092TIP3   OH251690   4.467   1.946  14.455 -0.5554  0.4076 -0.3365
10092TIP3    H151691   4.381   1.982  14.433 -0.0977  2.2548  0.6447
10092TIP3    H251692   4.515   1.948  14.372 -1.7098 -1.5251 -1.0960
10093TIP3   OH251693   2.742   0.884   2.644  0.1820 -0.0174 -0.2042
10093TIP3    H151694   2.676   0.953   2.648 -0.0305 -0.2651  2.0818
10093TIP3    H251695   2.821   0.925   2.680 -0.0075 -0.9426  1.4049
10094TIP3   OH251696   4.395   2.488   5.830 -0.2490  0.4138  0.2423
10094TIP3    H151697   4.350   2.406   5.847  0.9606 -0.3048  0.0711
10094TIP3    H251698   4.368   2.545   5.902 -0.6106 -0.3312  0.7071
10095TIP3   OH251699   1.287   0.949  13.679  0.5027  0.0012  0.2744
10095TIP3    H151700   1.335   0.963  13.598  0.0128 -1.1023 -0.2299
10095TIP3    H251701   1.352   0.956  13.748  1.1114 -0.0319 -0.2916
10096TIP3   OH251702   3.983   2.138   1.887  0.4615 -0.0014  0.4247
10096TIP3    H151703   3.916   2.083   1.928  0.9684  0.3072  1.7038
10096TIP3    H251704   4.045   2.075   1.849 -0.7091 -0.2939 -1.1153
10097TIP3   OH251705   0.478   3.605  15.166  0.1388 -0.2176  0.0250
10097TIP3    H151706   0.460   3.661  15.090 -0.0083 -0.3609 -0.0467
10097TIP3    H251707   0.403   3.545  15.170 -0.7028  0.8457  1.2767
10098TIP3   OH251708   2.453   5.708   4.039 -0.2792 -0.5444 -0.8099
10098TIP3    H151709   2.485   5.794   4.011  1.0193 -0.9272 -0.5494
10098TIP3    H251710   2.360   5.722   4.057 -0.2603  0.6237 -1.5002
10099TIP3   OH251711   5.930   4.684   5.282 -0.0540 -0.6049  0.2794
10099TIP3    H151712   6.001   4.628   5.313  1.9707  0.4349 -2.1597
10099TIP3    H251713   5.925   4.755   5.347  0.9853 -0.8269  0.6151
10100TIP3   OH251714   5.838   1.281  13.609 -0.0424 -0.0129 -0.1305
10100TIP3    H151715   5.778   1.209  13.591  1.6497 -0.9824 -2.4200
10100TIP3    H251716   5.911   1.239  13.655 -0.3883  0.8747  1.3009
10101TIP3   OH251717   1.129   3.582   2.834  0.1350 -0.3579  0.1250
10101TIP3    H151718   1.208   3.596   2.886  0.4953  1.4300 -0.8091
10101TIP3    H251719   1.129   3.489   2.814  1.9683 -0.4132  0.2340
10102TIP3   OH251720   1.846   5.725   2.929  0.0462  0.1567  0.1085
10102TIP3    H151721   1.862   5.744   3.022  0.4336 -0.6113  0.2094
10102TIP3    H251722   1.871   5.633   2.919 -0.7708  0.0016 -0.5856
10103TIP3   OH251723   5.996   0.329   5.102  0.2366 -0.2244  0.5090
10103TIP3    H151724   5.981   0.304   5.011 -1.1765  0.3091  0.5698
10103TIP3    H251725   5.977   0.250   5.153  0.5785 -0.3894  0.3858
10104TIP3   OH251726   2.418   5.530   1.904 -0.5864 -0.3484 -0.7212
10104TIP3    H151727   2.341   5.567   1.947  0.3744  1.9410 -0.8454
10104TIP3    H251728   2.472   5.496   1.976 -0.3201  0.8382 -0.3393
10105TIP3   OH251729   1.254   1.502  11.284  0.3819  0.7183  0.0437
10105TIP3    H151730   1.273   1.482  11.192 -0.0768 -0.4552  0.1893
10105TIP3    H251731   1.159   1.515  11.286  0.6502  2.9756 -0.0325
10106TIP3   OH251732   4.911   2.116   4.866 -0.4060 -0.1664  0.5889
10106TIP3    H151733   4.951   2.029   4.870 -0.0323 -0.0530 -0.3971
10106TIP3    H251734   4.818   2.100   4.883 -0.0040 -0.4237  3.0131
10107TIP3   OH251735   1.893   1.977  16.007  0.3775 -0.0912 -0.1353
10107TIP3    H151736   1.931   1.961  15.921  1.2905 -0.8359  0.3754
10107TIP3    H251737   1.907   2.070  16.023 -1.1300  0.3829 -1.3807
10108TIP3   OH251738   5.719   5.302   5.431  0.2456 -0.0955 -0.0642
10108TIP3    H151739   5.760   5.226   5.471 -1.2955 -0.0314  1.7974
10108TIP3    H251740   5.644   5.267   5.383 -2.3491  0.3105  3.3122
10109TIP3   OH251741   3.708   2.769  14.430 -0.4228  0.4761 -0.5586
10109TIP3    H151742   3.706   2.693  14.488  1.8107 -0.3910 -1.5181
10109TIP3    H251743   3.626   2.763  14.380 -0.1397 -1.5423 -0.8702
10110TIP3   OH251744   2.803   6.385   2.520 -0.6301  0.5691 -0.4128
10110TIP3    H151745   2.754   6.466   2.514 -0.1679  0.7893 -1.6402
10110TIP3    H251746   2.741   6.321   2.555 -1.7933  0.8421 -1.8738
10111TIP3   OH251747   4.018   1.725   1.399  0.3005 -0.4998  0.4047
10111TIP3    H151748   4.002   1.676   1.479  0.1902  0.9767  1.3248
10111TIP3    H251749   4.035   1.815   1.428 -1.6014  0.5084 -1.3025
10112TIP3   OH251750   1.860   3.959   3.516  0.3653  0.3229 -0.0863
10112TIP3    H151751   1.846   3.943   3.610 -1.3510 -0.9386 -0.5059
10112TIP3    H251752   1.819   4.043   3.499 -0.0407  0.1769  0.1530
10113TIP3   OH251753   5.323   3.623   6.490 -0.2475  0.2882  0.2340
10113TIP3    H151754   5.405   3.619   6.540  1.8080  0.9197 -2.7746
10113TIP3    H251755   5.284   3.707   6.514  0.1555  0.1418  1.4623
10114TIP3   OH251756   2.863   1.940   5.731  0.1399  0.0689  0.1832
10114TIP3    H151757   2.891   1.849   5.727 -1.0922 -0.3467  0.5612
10114TIP3    H251758   2.938   1.990   5.697  1.8058 -0.8719  2.2196
10115TIP3   OH251759   2.570   1.813   5.727 -0.1701 -0.3153  0.1739
10115TIP3    H151760   2.654   1.858   5.725 -0.8823  1.0357 -0.3157
10115TIP3    H251761   2.554   1.795   5.820  1.2834 -1.8629  0.1744
10116TIP3   OH251762   6.808   3.000   4.165  0.1939  0.5280  0.0290
10116TIP3    H151763   6.802   3.095   4.152 -0.2086  0.6105  0.7937
10116TIP3    H251764   6.727   2.966   4.126 -1.0463  0.7824  2.2659
10117TIP3   OH251765   3.220   4.793   0.279  0.0595 -0.3755 -0.1109
10117TIP3    H151766   3.140   4.780   0.228 -0.2318  0.7520  0.0382
10117TIP3    H251767   3.192   4.788   0.370 -0.2231  1.8432 -0.0130
10118TIP3   OH251768   3.688   0.148  12.984 -0.3431 -0.2947  0.7912
10118TIP3    H151769   3.606   0.105  12.960 -0.7959 -1.4329  3.9168
10118TIP3    H251770   3.677   0.171  13.076  2.6346  0.0524  1.1596
10119TIP3   OH251771   6.639   0.343  14.188  0.0353  0.2505 -0.0673
10119TIP3    H151772   6.719   0.393  14.204  0.6437 -0.0521 -1.8814
10119TIP3    H251773   6.637   0.278  14.258  1.4987  0.1304 -0.1004
10120TIP3   OH251774   2.278   0.767  12.939 -0.0205  0.0648  0.3537
10120TIP3    H151775   2.201   0.714  12.960  0.7743 -0.7868  1.2639
10120TIP3    H251776   2.278   0.836  13.006  0.5680 -0.5696  1.0354
10121TIP3   OH251777   6.282   0.277  13.866  0.0448  0.0665 -0.5191
10121TIP3    H151778   6.228   0.205  13.898 -0.7199  0.4744 -0.8572
10121TIP3    H251779   6.367   0.263  13.906 -0.3509 -0.5177  0.1409
10122TIP3   OH251780   4.401   0.574   6.486  0.0451 -0.0125  0.4958
10122TIP3    H151781   4.330   0.515   6.461  0.0860 -0.6882  1.9362
10122TIP3    H251782   4.479   0.519   6.487  0.7294  0.8053 -1.4782
10123TIP3   OH251783   3.446   6.447   0.636 -0.1925 -0.3914  0.6229
10123TIP3    H151784   3.429   6.353   0.632 -0.0126 -0.5067  2.0414
10123TIP3    H251785   3.541   6.455   0.632 -0.2598 -0.1269 -1.3217
10124TIP3   OH251786   4.317   0.188   6.210  0.1993 -0.0337  0.3196
10124TIP3    H151787   4.234   0.141   6.202 -1.4435  2.9198 -1.8564
10124TIP3    H251788   4.374   0.147   6.146 -1.4402  1.1891 -2.0723
10125TIP3   OH251789   1.621   3.673   2.376 -0.3867 -0.3638 -0.6910
10125TIP3    H151790   1.672   3.743   2.417  0.6892 -0.4436 -1.8393
10125TIP3    H251791   1.578   3.716   2.301 -0.7290 -0.6607 -0.6673
10126TIP3   OH251792   6.263   5.440  16.163 -0.0849  0.1842  0.4764
10126TIP3    H151793   6.345   5.436  16.113  0.7264 -4.9680  1.6284
10126TIP3    H251794   6.197   5.406  16.103 -1.2817  2.9905  0.0312
10127TIP3   OH251795   4.065   5.832   2.686  0.0900  0.0577  0.6091
10127TIP3    H151796   4.093   5.924   2.679 -0.0069  0.1440  1.2745
10127TIP3    H251797   3.982   5.836   2.734 -0.1362 -0.3480  0.2640
10128TIP3   OH251798   4.360   2.993   3.203 -0.4008  0.5609 -0.5011
10128TIP3    H151799   4.340   3.078   3.243  2.4432  0.7833  0.7117
10128TIP3    H251800   4.288   2.936   3.231 -1.2792  2.0453  0.4334
10129TIP3   OH251801   6.099   0.836   4.441 -0.5601  0.3612  0.9832
10129TIP3    H151802   6.090   0.931   4.434 -1.0895  0.2040 -1.2146
10129TIP3    H251803   6.019   0.801   4.402 -0.3915 -1.0124  1.7891
10130TIP3   OH251804   1.728   2.714   3.766  0.2977 -0.5603 -0.7981
10130TIP3    H151805   1.801   2.765   3.732 -1.7139  1.3371 -2.5891
10130TIP3    H251806   1.707   2.652   3.696  0.0080 -0.8800 -0.4348
10131TIP3   OH251807   4.880   4.169   2.014 -0.2936  0.4260 -0.0412
10131TIP3    H151808   4.877   4.252   1.965 -1.7195  0.5471  0.2233
10131TIP3    H251809   4.858   4.193   2.104 -1.4400 -0.3357 -0.1064
10132TIP3   OH251810   6.152   0.016  11.202 -0.2596 -0.1770  0.6726
10132TIP3    H151811   6.187  -0.033  11.127  0.0205 -0.1268  0.7688
10132TIP3    H251812   6.075  -0.034  11.229  0.5450 -1.1126  1.3550
10133TIP3   OH251813   5.002   0.893  11.345  0.1658 -0.0978 -0.4023
10133TIP3    H151814   5.054   0.879  11.424  0.7883  1.0535 -0.5832
10133TIP3    H251815   4.921   0.932  11.375  0.4321  0.4059 -0.3275
10134TIP3   OH251816   4.536   3.283  13.527  0.1396  0.2258 -0.0477
10134TIP3    H151817   4.504   3.199  13.495  0.3209 -0.6837  1.9980
10134TIP3    H251818   4.463   3.344  13.513 -0.1671 -0.3582 -1.1096
10135TIP3   OH251819   5.108   6.333   2.532  0.3318 -0.0339 -0.2628
10135TIP3    H151820   5.022   6.359   2.498 -0.2944 -0.4773  0.9324
10135TIP3    H251821   5.108   6.238   2.526  1.0118 -0.0063 -0.8525
10136TIP3   OH251822   4.786   3.867  15.203 -0.2695 -0.4772 -0.1002
10136TIP3    H151823   4.881   3.870  15.187 -0.1130  0.1641  0.8867
10136TIP3    H251824   4.764   3.955  15.233 -1.1124 -0.7434  0.0703
10137TIP3   OH251825   4.999   2.980  15.698  0.1721 -0.8457  0.0139
10137TIP3    H151826   4.920   2.975  15.752  1.8391 -1.8903  2.5811
10137TIP3    H251827   5.010   2.892  15.663 -0.0813 -0.5698 -0.7577
10138TIP3   OH251828   0.628   2.634  12.740 -0.6058  0.7158  0.6577
10138TIP3    H151829   0.546   2.645  12.789 -1.5033  0.4610 -0.7358
10138TIP3    H251830   0.601   2.624  12.649  0.9299 -0.1476  0.2504
10139TIP3   OH251831   5.558   3.416   5.233  0.3990 -0.0029 -0.2424
10139TIP3    H151832   5.547   3.361   5.155  1.1855  0.9531 -1.0750
10139TIP3    H251833   5.513   3.498   5.210 -0.1603 -0.0443  0.6925
10140TIP3   OH251834   3.573   5.070   3.633  0.0107 -0.3204 -0.4304
10140TIP3    H151835   3.643   5.085   3.570  1.3622  0.9253  1.2914
10140TIP3    H251836   3.587   4.980   3.664 -0.6097 -0.9087 -1.7794
10141TIP3   OH251837   5.826   0.456   4.494  0.1593  0.2373 -0.3922
10141TIP3    H151838   5.809   0.365   4.469  1.2905 -0.2412  0.4835
10141TIP3    H251839   5.814   0.506   4.413 -0.7084 -0.6492 -0.8305
10142TIP3   OH251840   0.199   6.581   3.821  0.2694 -0.1435  0.5901
10142TIP3    H151841   0.284   6.579   3.776 -0.2814  0.4104 -0.5009
10142TIP3    H251842   0.198   6.500   3.872  1.1053 -0.5736 -0.0475
10143TIP3   OH251843   6.383   4.284  16.726 -0.2155 -0.7763  0.1170
10143TIP3    H151844   6.356   4.358  16.671  1.2559 -0.8222 -0.6942
10143TIP3    H251845   6.351   4.207  16.679  1.1137 -0.8202 -0.7407
10144TIP3   OH251846   2.192   4.713   5.656  0.4144 -0.3247 -0.0060
10144TIP3    H151847   2.201   4.806   5.636  4.3695  0.4673  3.9543
10144TIP3    H251848   2.114   4.708   5.711 -0.1118  0.5240 -0.6532
10145TIP3   OH251849   1.962   5.036  15.913 -0.5186  0.3678 -0.2754
10145TIP3    H151850   2.011   5.032  15.995 -0.8266 -0.0170 -0.1056
10145TIP3    H251851   2.020   5.081  15.852  0.1656 -0.3458 -0.1652
10146TIP3   OH251852   3.124   5.959  12.590  0.0559 -0.2470  0.3551
10146TIP3    H151853   3.063   5.896  12.553 -0.3112  0.4471 -0.2476
10146TIP3    H251854   3.123   6.033  12.529  2.9195 -0.9418 -0.7316
10147TIP3   OH251855   5.061   1.594   0.407  0.3525  0.4415 -0.0828
10147TIP3    H151856   5.154   1.577   0.424  0.5446 -0.3478 -1.7914
10147TIP3    H251857   5.057   1.688   0.391  0.9170  0.4230 -0.3563
10148TIP3   OH251858   4.741   4.290   6.071 -0.4143  0.1829 -0.3442
10148TIP3    H151859   4.810   4.355   6.084  1.5853 -1.8079 -0.4740
10148TIP3    H251860   4.715   4.264   6.159 -1.1510  1.0225 -0.2932
10149TIP3   OH251861   3.760   0.808  15.740  0.5925 -0.0271  0.1281
10149TIP3    H151862   3.737   0.900  15.727  1.6519  0.2270 -0.0576
10149TIP3    H251863   3.840   0.796  15.689 -0.2474 -1.4093 -0.9509
10150TIP3   OH251864   6.601   4.923  14.186  0.9336  0.1780  0.5715
10150TIP3    H151865   6.587   4.889  14.098  0.3332 -1.3226  1.2142
10150TIP3    H251866   6.684   4.971  14.181  1.6888 -1.1923 -0.4535
10151TIP3   OH251867   4.393   6.097   4.989  0.7586  0.2560  0.1905
10151TIP3    H151868   4.418   6.007   4.971 -3.2865 -0.8409 -0.9140
10151TIP3    H251869   4.352   6.095   5.075  0.2458  0.9334 -0.0249
10152TIP3   OH251870   5.888   2.093   4.550  0.0034 -0.1281 -0.0833
10152TIP3    H151871   5.867   2.162   4.612  1.4433  0.8029 -0.5977
10152TIP3    H251872   5.935   2.136   4.479 -0.8432 -1.3039 -1.4447
10153TIP3   OH251873   0.748   1.785   3.510 -0.3790  0.3977  0.1481
10153TIP3    H151874   0.827   1.784   3.456 -0.7023  0.4814 -0.3359
10153TIP3    H251875   0.780   1.788   3.600  0.2186 -1.7159  0.0659
10154TIP3   OH251876   2.799   4.437   2.279  1.1070  0.0654  0.0760
10154TIP3    H151877   2.824   4.522   2.314 -0.0736 -0.1937  1.6749
10154TIP3    H251878   2.805   4.448   2.184  3.0371  1.2487  0.2906
10155TIP3   OH251879   5.859   2.064   0.992  0.2113 -0.2099  0.2382
10155TIP3    H151880   5.883   2.016   1.071  1.0328  0.1570  0.2128
10155TIP3    H251881   5.764   2.052   0.985 -0.2401  1.5580  2.4632
10156TIP3   OH251882   3.371   2.171   4.967  0.3140  0.9262 -0.1466
10156TIP3    H151883   3.399   2.215   5.048  1.5425  3.0255 -1.6254
10156TIP3    H251884   3.451   2.136   4.930 -0.0754  0.8648 -0.9448
10157TIP3   OH251885   1.249   1.886   0.576 -1.0986  0.4626 -0.7691
10157TIP3    H151886   1.326   1.934   0.547  0.2484 -1.3748 -0.4061
10157TIP3    H251887   1.204   1.861   0.495 -0.6580  0.5285 -1.0365
10158TIP3   OH251888   6.810   2.430   5.612 -0.3990  0.5344  0.2280
10158TIP3    H151889   6.886   2.372   5.616 -1.4456 -0.9778 -0.7902
10158TIP3    H251890   6.845   2.513   5.580  0.7504 -0.3079 -0.8253
10159TIP3   OH251891   2.381   3.346  14.153 -0.1152  0.5514 -0.1328
10159TIP3    H151892   2.350   3.436  14.150  1.3547  1.0894 -0.0655
10159TIP3    H251893   2.326   3.299  14.090 -0.9717  1.4602 -0.0749
10160TIP3   OH251894   6.675   2.840   2.036 -0.8523  0.5554  0.3519
10160TIP3    H151895   6.611   2.769   2.024  0.7307 -0.8800 -0.1192
10160TIP3    H251896   6.747   2.799   2.085  1.3240  0.9602 -2.2134
10161TIP3   OH251897   5.436   2.148  12.331 -0.6914  0.6110 -0.3413
10161TIP3    H151898   5.381   2.166  12.407 -0.4290 -1.5178  0.4332
10161TIP3    H251899   5.399   2.202  12.261 -1.9769  1.3664  0.8651
10162TIP3   OH251900   4.651   4.999   2.114  0.0559  0.0540  0.1155
10162TIP3    H151901   4.616   4.927   2.165  0.5788 -0.6204 -0.4495
10162TIP3    H251902   4.575   5.049   2.086 -0.5596 -1.6927 -1.5714
10163TIP3   OH251903   5.897   0.996  14.264  0.4786 -0.4896 -0.0318
10163TIP3    H151904   5.816   0.945  14.272  0.0432 -0.0275 -1.2571
10163TIP3    H251905   5.963   0.933  14.234  0.1468 -0.5147 -0.7199
10164TIP3   OH251906   0.345   2.307  16.339  0.3562  0.0199  0.8736
10164TIP3    H151907   0.293   2.351  16.406 -0.3984 -0.4937  0.6405
10164TIP3    H251908   0.413   2.370  16.315  0.1846  0.4831  1.5952
10165TIP3   OH251909   3.189   4.529  11.322  0.5372 -0.0765  0.2923
10165TIP3    H151910   3.106   4.576  11.332  0.2590 -0.8014  1.6718
10165TIP3    H251911   3.164   4.437  11.328  1.3960 -0.3149  0.2917
10166TIP3   OH251912   5.082   4.947   3.819 -0.5574  0.2998 -0.2448
10166TIP3    H151913   5.148   5.014   3.801  1.3263 -1.2854  0.3956
10166TIP3    H251914   5.114   4.869   3.774 -1.6146 -0.7235  0.7134
10167TIP3   OH251915   5.016   4.245  12.065  0.2239 -0.0857 -0.1610
10167TIP3    H151916   5.099   4.198  12.054 -0.0533 -1.4411  2.6255
10167TIP3    H251917   4.951   4.176  12.078 -0.9072  1.0095  0.1914
10168TIP3   OH251918   1.259   5.781  11.795 -0.0163 -0.2003  0.3461
10168TIP3    H151919   1.241   5.687  11.787  0.3071 -0.1394 -2.3549
10168TIP3    H251920   1.294   5.805  11.709 -0.0804  2.4050  0.9695
10169TIP3   OH251921   1.679   4.721   3.315  0.2052  0.3077 -0.3211
10169TIP3    H151922   1.764   4.683   3.291 -0.0248  0.4602 -1.4063
10169TIP3    H251923   1.651   4.670   3.391  0.7025 -0.5765 -0.7099
10170TIP3   OH251924   5.713   4.645  16.938  0.3299 -0.1216 -0.5051
10170TIP3    H151925   5.780   4.610  16.997 -1.2436 -1.0290  0.8613
10170TIP3    H251926   5.661   4.703  16.994 -0.5513 -0.1546 -1.2719
10171TIP3   OH251927   5.351   1.630   6.690  0.4187 -0.1857  0.1466
10171TIP3    H151928   5.384   1.689   6.757  2.4790 -1.6169  0.4845
10171TIP3    H251929   5.282   1.579   6.734 -0.1027  0.6978  0.3651
10172TIP3   OH251930   1.917   4.167  13.585 -0.2226 -0.1315 -0.1429
10172TIP3    H151931   1.967   4.219  13.521 -0.0899  0.8434  0.7152
10172TIP3    H251932   1.903   4.228  13.658 -1.9980 -0.6307 -0.0318
10173TIP3   OH251933   1.280   5.665   4.859 -0.1963  0.0600  0.0879
10173TIP3    H151934   1.206   5.701   4.908  0.0682 -0.1255  0.6412
10173TIP3    H251935   1.332   5.742   4.835 -0.1735  0.1330  0.3626
10174TIP3   OH251936   0.124   2.987  12.800 -0.1989 -0.0070  0.2058
10174TIP3    H151937   0.218   2.972  12.786 -0.6945 -1.0096 -2.7101
10174TIP3    H251938   0.088   2.899  12.815 -0.9017  0.1736 -0.4017
10175TIP3   OH251939   5.408   3.530   2.764  0.1349 -0.5538  0.2843
10175TIP3    H151940   5.421   3.571   2.679  3.3496  1.0429  1.3711
10175TIP3    H251941   5.430   3.438   2.750  4.1623  0.2817 -0.1058
10176TIP3   OH251942   2.314   1.333  16.420 -0.0390  0.4529  0.6597
10176TIP3    H151943   2.385   1.295  16.369  1.1230  1.4440  1.4679
10176TIP3    H251944   2.312   1.281  16.501 -0.1590  0.5059  0.6912
10177TIP3   OH251945   1.404   1.868   0.121  0.4196  0.3839  0.0839
10177TIP3    H151946   1.416   1.829   0.208 -0.5204  0.3542  0.2111
10177TIP3    H251947   1.480   1.838   0.071  1.3254  0.9264  1.0652
10178TIP3   OH251948   4.811   1.236   4.926 -0.4543 -0.2548 -0.0426
10178TIP3    H151949   4.722   1.244   4.962 -1.7499 -2.1329 -2.5488
10178TIP3    H251950   4.849   1.163   4.974 -0.1053  0.6912  1.1930
10179TIP3   OH251951   2.410   3.294  14.792 -0.0496 -0.0644  0.1854
10179TIP3    H151952   2.434   3.263  14.705 -1.2195  0.6642 -0.4190
10179TIP3    H251953   2.494   3.305  14.837  0.5038 -2.0318 -0.2685
10180TIP3   OH251954   0.162   4.831   2.255 -0.4103  0.6206 -0.3358
10180TIP3    H151955   0.145   4.737   2.251 -1.4339  0.8233 -1.0225
10180TIP3    H251956   0.127   4.858   2.340  0.8149  0.2240  0.3233
10181TIP3   OH251957   4.332   3.567  11.753  0.0688 -0.3972  0.5951
10181TIP3    H151958   4.339   3.634  11.685 -0.8719 -0.6067  0.2751
10181TIP3    H251959   4.271   3.603  11.817  0.1427 -0.6397  0.8040
10182TIP3   OH251960   2.487   0.782  11.645 -0.1356 -0.1976 -0.1276
10182TIP3    H151961   2.471   0.842  11.718 -0.9969  0.3789 -0.7724
10182TIP3    H251962   2.491   0.838  11.568 -0.5869 -0.9321 -0.6998
10183TIP3   OH251963   0.303   4.868  12.030  0.4628  0.0671 -0.3596
10183TIP3    H151964   0.331   4.777  12.025 -1.5253 -0.7571  1.7482
10183TIP3    H251965   0.315   4.891  12.122  0.2752  1.7377 -0.7281
10184TIP3   OH251966   2.964   5.528   0.161 -0.4202 -0.6033  0.0616
10184TIP3    H151967   2.907   5.465   0.206 -2.5445  0.1550 -1.4117
10184TIP3    H251968   2.988   5.485   0.080 -0.2413 -0.2783 -0.0600
10185TIP3   OH251969   1.814   6.636   3.849  0.3732  0.1575 -0.1376
10185TIP3    H151970   1.731   6.672   3.881  1.2830  2.8507 -0.5108
10185TIP3    H251971   1.793   6.599   3.763 -0.4908  0.6146 -0.1328
10186TIP3   OH251972   2.230   0.101  14.264 -0.0915  0.2079 -0.0851
10186TIP3    H151973   2.295   0.137  14.205 -1.4290 -1.0629 -2.4698
10186TIP3    H251974   2.212   0.172  14.326  1.0141  1.7849 -1.4895
10187TIP3   OH251975   4.061   2.542   2.650 -0.5742 -0.3909 -0.0971
10187TIP3    H151976   4.104   2.574   2.570 -0.6106  0.1700  0.1048
10187TIP3    H251977   4.089   2.603   2.718 -1.7039 -0.0049  0.0386
10188TIP3   OH251978   6.375   6.680   2.623  0.0602  0.4268 -0.3230
10188TIP3    H151979   6.426   6.639   2.553  0.6604 -0.8457  0.8127
10188TIP3    H251980   6.438   6.692   2.694 -0.9298  0.0351  0.6351
10189TIP3   OH251981   2.363   0.033   4.393 -0.4193  0.5380  0.1402
10189TIP3    H151982   2.373  -0.062   4.404  0.8146  0.5811 -0.4413
10189TIP3    H251983   2.314   0.061   4.470 -0.3824 -0.5091  0.5628
10190TIP3   OH251984   0.493   4.962   2.449 -0.0789  0.1960  0.1214
10190TIP3    H151985   0.548   4.980   2.525  0.1316  1.7808 -0.3765
10190TIP3    H251986   0.423   4.906   2.483  0.4103  0.2891  1.3205
10191TIP3   OH251987   3.412   6.495   3.006 -0.2312 -0.1127  0.4762
10191TIP3    H151988   3.471   6.500   2.931 -2.7676 -1.8095 -1.8217
10191TIP3    H251989   3.414   6.583   3.044 -0.0367  1.3712 -2.6314
10192TIP3   OH251990   3.455   0.125  15.632  0.1355  0.4976 -0.1121
10192TIP3    H151991   3.431   0.042  15.591 -0.1610  1.3945 -1.8630
10192TIP3    H251992   3.521   0.101  15.697  0.2071 -1.0791 -0.7117
10193TIP3   OH251993   2.064   0.978  15.933  0.1957  0.0615  0.2692
10193TIP3    H151994   2.118   0.983  16.011  0.8490  0.4046 -0.1957
10193TIP3    H251995   2.094   1.051  15.878  0.8043 -1.0701 -0.9620
10194TIP3   OH251996   1.705   6.530   2.581 -0.4978 -0.1111 -0.0789
10194TIP3    H151997   1.698   6.440   2.610  0.7256 -0.7866 -1.7040
10194TIP3    H251998   1.622   6.546   2.535 -0.0780 -0.9832 -1.1896
10195TIP3   OH251999   3.041   2.991  16.689 -0.4965  0.2261  0.4024
10195TIP3    H152000   3.041   3.052  16.616 -1.5054  0.2982  0.4427
10195TIP3    H252001   3.123   3.007  16.735  0.1727  0.1444 -0.7349
10196TIP3   OH252002   6.653   5.912  15.633  0.0677 -0.2018 -0.2221
10196TIP3    H152003   6.686   5.916  15.543  0.2811 -2.0480 -0.2615
10196TIP3    H252004   6.584   5.846  15.631  0.8211 -1.0963  1.1664
10197TIP3   OH252005   5.784   0.842  13.198 -0.4175 -0.4356  0.4092
10197TIP3    H152006   5.835   0.771  13.157  0.0021 -0.1202  0.3785
10197TIP3    H252007   5.795   0.828  13.292  0.4413  0.1269  0.4077
10198TIP3   OH252008   0.683   6.674   0.737 -0.1956 -0.0411  0.3210
10198TIP3    H152009   0.615   6.607   0.726  0.5254 -0.8619  0.6640
10198TIP3    H252010   0.688   6.718   0.652  0.1557 -1.2671 -0.3244
10199TIP3   OH252011   3.262   2.364   4.270 -0.1527 -0.2943  0.1552
10199TIP3    H152012   3.253   2.459   4.284 -1.6349 -0.2881 -0.6367
10199TIP3    H252013   3.345   2.342   4.311  0.4624  1.4368 -0.0657
10200TIP3   OH252014   3.552   2.801   2.486  0.1157  0.3781  0.2910
10200TIP3    H152015   3.562   2.864   2.416 -1.3515 -0.4741 -0.7230
10200TIP3    H252016   3.608   2.727   2.460  1.2549  0.9140  1.1154
10201TIP3   OH252017   4.166   2.240  10.866 -0.4870  0.3542 -0.0935
10201TIP3    H152018   4.237   2.295  10.900 -1.4399  2.1516 -0.8703
10201TIP3    H252019   4.091   2.259  10.922 -0.5907 -0.9461  0.2386
10202TIP3   OH252020   1.838   1.887  15.705  0.5983  0.2970 -0.4394
10202TIP3    H152021   1.797   1.856  15.624 -0.9888 -0.3372  0.5640
10202TIP3    H252022   1.804   1.975  15.718  1.4513  0.6949 -0.8455
10203TIP3   OH252023   4.408   3.115   2.902 -0.3207  0.0335 -0.2931
10203TIP3    H152024   4.424   3.068   2.820  0.1252 -2.1349  0.9500
10203TIP3    H252025   4.313   3.113   2.913 -0.6514  2.5732 -1.9220
10204TIP3   OH252026   0.800   3.843   4.767  0.2114 -0.1165 -0.1659
10204TIP3    H152027   0.854   3.834   4.846  1.1082 -1.1145 -0.8607
10204TIP3    H252028   0.785   3.753   4.739  1.7578  0.2366 -2.3419
10205TIP3   OH252029   4.267   2.383   0.831  0.5511  0.2145  0.2910
10205TIP3    H152030   4.241   2.473   0.813 -2.2456 -0.1638  1.8253
10205TIP3    H252031   4.208   2.330   0.778  1.4368 -0.7403  0.2206
10206TIP3   OH252032   3.528   5.993  14.957  1.1392 -0.0358 -0.3818
10206TIP3    H152033   3.575   6.040  14.887  0.7456  1.3513  0.2438
10206TIP3    H252034   3.596   5.969  15.019  1.1312  1.5691  0.3004
10207TIP3   OH252035   2.093   3.173  14.293 -0.3773  0.1702  0.4039
10207TIP3    H152036   2.095   3.267  14.274 -1.1694 -0.0456 -0.8752
10207TIP3    H252037   2.075   3.132  14.209 -1.2156 -1.0590  1.1527
10208TIP3   OH252038   0.201   0.195   6.274 -0.6252 -0.1241 -0.3416
10208TIP3    H152039   0.222   0.258   6.204 -1.6802  0.6086 -0.0269
10208TIP3    H252040   0.280   0.142   6.283  0.2146  1.0055 -0.7793
10209TIP3   OH252041   4.491   2.330   1.982 -0.0877  0.0945  0.0957
10209TIP3    H152042   4.463   2.311   1.892  0.3150  0.6289 -0.1564
10209TIP3    H252043   4.579   2.367   1.971  0.2561 -0.5088  0.7710
10210TIP3   OH252044   4.605   3.006   2.273 -0.1203 -0.5268  0.2527
10210TIP3    H152045   4.512   2.999   2.250 -0.3461 -1.3201  1.3136
10210TIP3    H252046   4.630   3.095   2.249 -0.7452 -0.7733 -1.4704
10211TIP3   OH252047   0.527   1.623   1.803 -0.5873 -0.4814  0.5316
10211TIP3    H152048   0.599   1.617   1.866 -0.4190 -0.7900  0.3141
10211TIP3    H252049   0.569   1.608   1.718 -0.5688  1.2908  0.1902
10212TIP3   OH252050   2.279   2.872  16.846 -0.2114  0.4635  0.1225
10212TIP3    H152051   2.258   2.783  16.819 -0.7346  0.2914  1.0437
10212TIP3    H252052   2.375   2.876  16.844 -0.2076  0.0927 -0.5627
10213TIP3   OH252053   4.191   4.301   2.752 -0.2585 -0.3191  0.3181
10213TIP3    H152054   4.166   4.393   2.742 -1.0939 -0.2762  2.2545
10213TIP3    H252055   4.170   4.260   2.669 -0.4657  1.1131 -0.3585
10214TIP3   OH252056   1.586   4.874  14.609 -0.1633 -0.5278 -0.2508
10214TIP3    H152057   1.605   4.868  14.516  0.5217  0.3469 -0.1846
10214TIP3    H252058   1.494   4.848  14.617 -0.4025 -0.0161 -1.2468
10215TIP3   OH252059   3.873   6.544   5.201 -0.2294  0.1509  0.3652
10215TIP3    H152060   3.862   6.634   5.229 -0.5569 -0.0941  1.0542
10215TIP3    H252061   3.858   6.492   5.280 -0.8460 -0.5456 -0.1911
10216TIP3   OH252062   2.573   4.687   2.800  1.0248 -0.3832 -0.5273
10216TIP3    H152063   2.543   4.750   2.735  1.0329 -0.0325 -0.1888
10216TIP3    H252064   2.596   4.609   2.748  1.0240 -0.1120 -0.9407
10217TIP3   OH252065   2.767   6.283   1.826 -0.7938 -0.2999  0.9276
10217TIP3    H152066   2.736   6.346   1.891 -0.8293 -0.9007  1.5076
10217TIP3    H252067   2.701   6.285   1.757  0.1032  1.6053  0.0435
10218TIP3   OH252068   2.905   1.541  11.998 -0.3552  0.0052  0.2136
10218TIP3    H152069   2.876   1.570  12.084  0.9552  0.5268  0.5037
10218TIP3    H252070   2.961   1.612  11.966  1.2272 -1.2615  0.0285
10219TIP3   OH252071   4.535   2.666  15.783  0.0911  0.1677  0.6872
10219TIP3    H152072   4.466   2.720  15.744  0.1835 -1.6247 -2.1828
10219TIP3    H252073   4.610   2.726  15.792 -1.1441  1.6212  1.9974
10220TIP3   OH252074   4.549   6.018  14.154  0.6933  0.2147  0.0116
10220TIP3    H152075   4.532   6.112  14.145  1.6773  0.5147  1.0730
10220TIP3    H252076   4.639   6.007  14.122  0.6599 -0.3302  0.0913
10221TIP3   OH252077   6.357   6.156  16.175 -0.0152  0.1667 -0.2976
10221TIP3    H152078   6.308   6.236  16.158 -1.6799 -0.8697 -0.6117
10221TIP3    H252079   6.313   6.115  16.250  2.3170  0.7029  1.4797
10222TIP3   OH252080   5.080   4.527   2.305  0.2637 -0.5210  0.3564
10222TIP3    H152081   5.064   4.619   2.281 -1.6183 -0.8945 -0.0437
10222TIP3    H252082   5.093   4.483   2.221 -1.2706 -0.9943  0.3393
10223TIP3   OH252083   4.518   1.180   2.203  0.0061 -0.5516  0.4904
10223TIP3    H152084   4.441   1.138   2.240 -0.9598 -0.2249 -1.0600
10223TIP3    H252085   4.523   1.265   2.247 -1.3812  0.0173 -0.3804
10224TIP3   OH252086   3.732   1.595   2.991  0.5158  0.2634 -0.2274
10224TIP3    H152087   3.724   1.682   2.952  0.9518  0.4104  0.0081
10224TIP3    H252088   3.826   1.578   2.994  0.4113 -1.2419 -2.5372
10225TIP3   OH252089   3.696   2.042   1.529  0.5760 -0.3733  0.0684
10225TIP3    H152090   3.667   2.111   1.589 -1.2565 -2.0600  1.2556
10225TIP3    H252091   3.618   1.991   1.512  1.6152 -1.4533 -1.7838
10226TIP3   OH252092   1.691   0.672  11.608  0.1627  0.3183 -0.4511
10226TIP3    H152093   1.778   0.701  11.581  0.4164 -1.2089 -1.4008
10226TIP3    H252094   1.630   0.728  11.559  0.6370 -0.8167 -2.4328
10227TIP3   OH252095   0.934   1.382   3.655  0.0210 -0.0246  0.2317
10227TIP3    H152096   1.010   1.378   3.598  1.8256  0.4234  2.4786
10227TIP3    H252097   0.917   1.291   3.680  0.3173 -0.0448  0.3550
10228TIP3   OH252098   6.540   1.995   4.110  0.5684  0.2241 -0.0607
10228TIP3    H152099   6.508   2.061   4.049 -0.4385 -0.4673 -0.3204
10228TIP3    H252100   6.479   1.999   4.184 -1.7750 -2.7179 -1.5909
10229TIP3   OH252101   1.178   3.474   4.018  0.0837  0.7627  0.2341
10229TIP3    H152102   1.242   3.488   3.949  0.9377  2.8821  1.3479
10229TIP3    H252103   1.139   3.560   4.032 -1.0181  0.0958  1.4639
10230TIP3   OH252104   3.270   3.110  13.295  0.1212 -0.6285 -0.3573
10230TIP3    H152105   3.352   3.144  13.330  0.3524 -0.5742 -0.9386
10230TIP3    H252106   3.296   3.036  13.240 -0.1588 -0.2692 -0.9877
10231TIP3   OH252107   4.670   1.529   4.075  0.0774  0.6333 -0.2206
10231TIP3    H152108   4.710   1.525   3.988  3.7915  0.2124  1.3135
10231TIP3    H252109   4.663   1.437   4.103 -0.8780  0.7744  0.0486
10232TIP3   OH252110   0.199   1.201   2.557  0.1646  0.5849 -0.5301
10232TIP3    H152111   0.144   1.279   2.562 -1.0237  0.1063 -3.7975
10232TIP3    H252112   0.147   1.138   2.506  1.3751 -2.1164  1.3573
10233TIP3   OH252113   1.157   4.694  13.823 -0.3178 -0.1666 -0.1491
10233TIP3    H152114   1.163   4.769  13.763 -0.5942 -0.6922 -0.8499
10233TIP3    H252115   1.079   4.646  13.794  0.0843 -0.9485  0.0319
10234TIP3   OH252116   1.176   3.631   0.132 -0.0392 -0.1410 -0.3121
10234TIP3    H152117   1.168   3.689   0.057 -1.0619 -0.8771 -0.8007
10234TIP3    H252118   1.095   3.644   0.182  0.0470 -0.5981 -0.0412
10235TIP3   OH252119   4.314   2.391   0.272 -0.1274  0.0701 -0.0474
10235TIP3    H152120   4.328   2.310   0.224 -2.2693 -0.4622  0.1041
10235TIP3    H252121   4.255   2.442   0.217  1.1283  1.5428 -0.1154
10236TIP3   OH252122   0.330   1.632  14.393  0.4308 -0.1368 -0.1465
10236TIP3    H152123   0.313   1.628  14.487  0.1924  0.3476 -0.1690
10236TIP3    H252124   0.346   1.724  14.375  1.6131 -0.3683 -0.3937
10237TIP3   OH252125   3.836   4.488   4.898 -0.2799 -0.4854 -0.0618
10237TIP3    H152126   3.793   4.572   4.913 -0.1404 -0.7431  2.0666
10237TIP3    H252127   3.771   4.422   4.922  0.6409 -0.8978  1.4606
10238TIP3   OH252128   5.740   0.173  10.984  0.4610 -0.5050 -0.3586
10238TIP3    H152129   5.698   0.100  11.030 -0.1900 -0.1544 -0.3825
10238TIP3    H252130   5.689   0.183  10.903 -0.9086  1.4068  0.6562
10239TIP3   OH252131   6.402   5.509  17.066 -0.7528 -0.1673  0.5792
10239TIP3    H152132   6.426   5.583  17.121  1.1483  0.1728 -0.6092
10239TIP3    H252133   6.346   5.546  16.998  0.3124  0.2596 -0.0985
10240TIP3   OH252134   3.513   3.864  16.407 -0.6386  0.4736  0.3226
10240TIP3    H152135   3.563   3.783  16.419 -1.8387 -0.4754 -0.7786
10240TIP3    H252136   3.421   3.836  16.411 -1.0733  1.7652 -0.1222
10241TIP3   OH252137   0.137   1.439   1.582  0.3289 -0.2921  0.0462
10241TIP3    H152138   0.048   1.463   1.557  0.6159  0.7431 -0.0417
10241TIP3    H252139   0.177   1.522   1.608  1.5301 -0.6006 -0.7536
10242TIP3   OH252140   5.687   5.209   0.813  0.3896  0.4366 -0.3510
10242TIP3    H152141   5.595   5.209   0.839  0.8126  0.2898  1.2875
10242TIP3    H252142   5.696   5.284   0.754 -1.0303 -0.3436 -1.6237
10243TIP3   OH252143   4.859   3.046  11.044 -0.0608  0.1602  0.1110
10243TIP3    H152144   4.892   2.990  10.974 -1.4223 -1.4724  0.7182
10243TIP3    H252145   4.937   3.074  11.091  0.8145  0.6388 -1.5475
10244TIP3   OH252146   4.482   1.049  11.434  0.0583  0.4749  0.0266
10244TIP3    H152147   4.536   0.976  11.403 -0.8471 -0.7932  1.3140
10244TIP3    H252148   4.543   1.106  11.482  0.8390  0.8048 -1.3000
10245TIP3   OH252149   2.573   1.657   2.063  0.6836 -0.7340 -0.3221
10245TIP3    H152150   2.494   1.711   2.062  0.6729 -0.7248  0.4475
10245TIP3    H252151   2.542   1.568   2.079  0.5487 -1.2880 -3.1011
10246TIP3   OH252152   2.664   3.415   2.652 -0.0824  0.3467 -0.1369
10246TIP3    H152153   2.718   3.336   2.659 -1.0164 -0.1467  2.9486
10246TIP3    H252154   2.728   3.487   2.653  0.6948 -0.2534  2.5199
10247TIP3   OH252155   2.139   4.755  10.693 -0.3025 -0.5468  0.1156
10247TIP3    H152156   2.217   4.729  10.644 -0.1329  2.5899 -1.5618
10247TIP3    H252157   2.173   4.801  10.769 -0.3204  1.9488 -1.2554
10248TIP3   OH252158   6.327   2.148  16.396 -0.4787  0.3290  0.4233
10248TIP3    H152159   6.422   2.148  16.411 -0.6256  1.6199  1.4936
10248TIP3    H252160   6.298   2.062  16.427  0.3022 -0.0293  0.2124
10249TIP3   OH252161   2.097   1.583  16.749  0.3257  0.3174  0.5592
10249TIP3    H152162   2.139   1.633  16.679 -1.8533  0.0974 -0.9972
10249TIP3    H252163   2.073   1.500  16.709 -1.5332  0.4258  1.3353
10250TIP3   OH252164   6.078   6.041  16.201 -0.2863  0.6414 -0.1583
10250TIP3    H152165   6.072   6.136  16.192 -1.1203  0.7149  1.0321
10250TIP3    H252166   6.103   6.027  16.292  0.5261 -0.2705 -0.5014
10251TIP3   OH252167   5.035   5.395  14.557 -0.3425 -0.6718 -0.1870
10251TIP3    H152168   5.118   5.425  14.519 -0.8026 -0.8912 -1.4287
10251TIP3    H252169   4.977   5.471  14.548 -0.5750 -0.8636 -0.3061
10252TIP3   OH252170   0.941   2.937   4.832 -0.4855 -0.2374 -0.1854
10252TIP3    H152171   0.884   2.999   4.879  2.1350  1.2215  1.3114
10252TIP3    H252172   0.936   2.964   4.741 -2.2898 -0.3028 -0.1511
10253TIP3   OH252173   0.360   5.535  12.494  0.5201 -0.0600 -0.5423
10253TIP3    H152174   0.311   5.454  12.481  1.2243 -0.5547 -0.1591
10253TIP3    H252175   0.410   5.521  12.575  0.1720  0.9950 -0.1193
10254TIP3   OH252176   0.787   6.010  12.319 -0.4138  0.0540  0.2135
10254TIP3    H152177   0.812   6.100  12.296  0.4625 -0.2126  0.0693
10254TIP3    H252178   0.823   5.996  12.406  0.5162 -0.5403 -0.2422
10255TIP3   OH252179   6.748   0.039  12.644 -0.0321 -0.1705  0.2162
10255TIP3    H152180   6.822   0.037  12.705  1.1294  1.3032 -1.0199
10255TIP3    H252181   6.759  -0.040  12.591  1.7293  0.8199 -1.0311
10256TIP3   OH252182   0.656   3.522  12.745 -0.4935  0.0651  0.7144
10256TIP3    H152183   0.720   3.459  12.711 -0.9216 -0.0896  0.1952
10256TIP3    H252184   0.674   3.603  12.697 -0.2586  0.2108  1.0420
10257TIP3   OH252185   5.769   3.855  15.545 -0.1912  0.0708 -0.2116
10257TIP3    H152186   5.834   3.881  15.479 -0.7324  0.3413 -0.6452
10257TIP3    H252187   5.813   3.868  15.629 -0.1692  1.6351 -0.4451
10258TIP3   OH252188   2.411   3.873  14.330 -0.3187  0.1564  0.7068
10258TIP3    H152189   2.462   3.895  14.408 -1.0775  0.2827  1.1790
10258TIP3    H252190   2.381   3.958  14.297  0.5490  0.1661 -0.1301
10259TIP3   OH252191   6.656   6.566   3.520 -0.3130  0.5127  0.3940
10259TIP3    H152192   6.566   6.534   3.510  0.3405 -2.8279  3.1943
10259TIP3    H252193   6.653   6.624   3.597 -0.1143  0.6106  0.3299
10260TIP3   OH252194   4.083   6.034   2.132 -0.0567 -0.0549 -0.2042
10260TIP3    H152195   4.165   6.080   2.115  0.0677 -0.6107 -1.1664
10260TIP3    H252196   4.100   5.984   2.213 -0.1033  1.3220  0.6884
10261TIP3   OH252197   4.354   0.980   3.461  0.7743 -0.0557  0.3557
10261TIP3    H152198   4.374   1.073   3.451  0.9183 -0.1170  0.0549
10261TIP3    H252199   4.258   0.976   3.460  0.7553  0.1403  0.8733
10262TIP3   OH252200   6.181   3.035  15.364  0.7796  0.0912 -0.2395
10262TIP3    H152201   6.230   2.977  15.424  0.5950  0.4778  0.2939
10262TIP3    H252202   6.232   3.035  15.284 -0.5835 -2.9895 -1.2680
10263TIP3   OH252203   6.409   0.238   2.251 -0.1397 -0.6373  0.4262
10263TIP3    H152204   6.358   0.162   2.280 -0.5733 -0.6717 -0.3978
10263TIP3    H252205   6.441   0.277   2.332 -2.2938 -0.0482  1.0622
10264TIP3   OH252206   1.244   6.045   4.626 -0.0712 -0.2747 -0.3166
10264TIP3    H152207   1.151   6.033   4.647 -0.3835  3.2627  0.9240
10264TIP3    H252208   1.288   6.045   4.711  0.5348  1.4384 -0.5936
10265TIP3   OH252209   3.005   1.802  13.613  0.1714  0.5958 -0.4654
10265TIP3    H152210   2.949   1.742  13.565  1.1196 -1.6936  1.1257
10265TIP3    H252211   3.088   1.756  13.623  0.3184  1.2490  2.5429
10266TIP3   OH252212   4.112   0.647  11.542 -0.5225 -0.1845 -0.3269
10266TIP3    H152213   4.196   0.629  11.500  0.2646 -1.4233  1.6698
10266TIP3    H252214   4.124   0.734  11.581  0.3319 -0.8733  1.0226
10267TIP3   OH252215   3.932   3.134  16.531  0.2468  0.3872 -0.0775
10267TIP3    H152216   4.021   3.107  16.507 -0.6134 -1.1356 -1.8231
10267TIP3    H252217   3.927   3.120  16.626  2.3379  2.0786  0.3517
10268TIP3   OH252218   3.524   0.653  16.592 -0.1077  0.0304  0.0056
10268TIP3    H152219   3.590   0.584  16.593  0.2992  0.3907  2.3145
10268TIP3    H252220   3.441   0.605  16.589  0.1867 -0.5488  0.7967
10269TIP3   OH252221   1.177   5.331   4.106 -0.8534  0.5603  0.0161
10269TIP3    H152222   1.164   5.383   4.186 -1.6004  0.9678 -0.3684
10269TIP3    H252223   1.154   5.241   4.132 -0.7267  0.6231  0.3538
10270TIP3   OH252224   4.951   4.650  11.869 -0.4159 -0.0376  0.1540
10270TIP3    H152225   4.886   4.691  11.926  2.7013  2.4859  2.3084
10270TIP3    H252226   5.020   4.621  11.928  1.6997  0.0025 -2.1117
10271TIP3   OH252227   0.229   5.995  13.541 -0.2567  0.3697  0.3589
10271TIP3    H152228   0.141   6.032  13.535  0.3771  1.7567 -0.9148
10271TIP3    H252229   0.287   6.071  13.542  0.9835 -0.5548  0.1944
10272TIP3   OH252230   1.090   6.072   3.031 -0.4833 -0.0069  0.2155
10272TIP3    H152231   1.046   6.123   2.963 -1.3798 -0.8992  0.1005
10272TIP3    H252232   1.183   6.091   3.019 -0.7198  0.7521 -0.5060
10273TIP3   OH252233   6.099   3.895   5.819 -0.5651 -0.4392  0.1603
10273TIP3    H152234   6.070   3.985   5.804 -1.7365 -0.7457  0.5375
10273TIP3    H252235   6.042   3.841   5.764 -1.0785 -1.0927  1.3117
10274TIP3   OH252236   0.067   5.315  14.631 -0.3152  0.0404 -0.4292
10274TIP3    H152237   0.004   5.255  14.671 -1.0480  1.7664  1.1746
10274TIP3    H252238   0.080   5.383  14.697  1.1059  1.2174 -1.8419
10275TIP3   OH252239   2.327   0.834   2.202  0.1025 -0.0391  0.1769
10275TIP3    H152240   2.405   0.791   2.237 -1.1919 -0.4605  2.7443
10275TIP3    H252241   2.355   0.867   2.117  2.5013 -1.8807  0.1328
10276TIP3   OH252242   4.616   2.861   6.346 -0.0958  0.2861  0.0346
10276TIP3    H152243   4.671   2.784   6.361 -0.4490  0.1392  0.5994
10276TIP3    H252244   4.677   2.934   6.346  0.1015  0.1280  0.7194
10277TIP3   OH252245   1.062   2.785  13.470  0.1206 -0.1962 -0.6098
10277TIP3    H152246   0.983   2.733  13.485 -0.7794  1.0011 -1.1095
10277TIP3    H252247   1.030   2.870  13.440  1.4687  1.2214  1.6506
10278TIP3   OH252248   4.547   5.757  15.046  0.0131  0.0199 -0.7474
10278TIP3    H152249   4.615   5.824  15.041 -0.3328  0.3868 -0.5652
10278TIP3    H252250   4.478   5.789  14.987  0.2159 -0.6049 -1.3363
10279TIP3   OH252251   5.496   5.479  13.669 -0.2505 -0.2491  0.0974
10279TIP3    H152252   5.540   5.481  13.584  1.1388 -0.3906  0.7885
10279TIP3    H252253   5.492   5.571  13.696 -3.1366  0.1618 -1.2626
10280TIP3   OH252254   4.329   0.555  15.588 -0.2573 -0.1404 -0.0338
10280TIP3    H152255   4.357   0.477  15.540  1.1569 -0.0479  0.5702
10280TIP3    H252256   4.328   0.625  15.522 -1.0033 -0.5547 -0.4654
10281TIP3   OH252257   0.439   3.069  10.876  0.2162 -0.1730 -0.0829
10281TIP3    H152258   0.419   3.163  10.876  2.1692  0.2971  0.9845
10281TIP3    H252259   0.420   3.041  10.786 -1.0400  1.0698 -0.2473
10282TIP3   OH252260   3.807   4.944   2.698  0.6167  0.6179 -0.1097
10282TIP3    H152261   3.726   4.993   2.688 -0.4687 -0.9889  0.4306
10282TIP3    H252262   3.779   4.854   2.716  2.5176 -0.0177 -0.0775
10283TIP3   OH252263   6.380   5.077   3.430 -0.2969  0.1457  0.5952
10283TIP3    H152264   6.383   5.079   3.526 -2.2220 -0.6478  0.7256
10283TIP3    H252265   6.466   5.046   3.404  1.1546  2.7097  1.9032
10284TIP3   OH252266   0.895   0.607   5.609  0.1569  0.2333  0.1433
10284TIP3    H152267   0.830   0.545   5.575 -1.3685  0.8213  1.8386
10284TIP3    H252268   0.967   0.551   5.639  0.7368 -0.3936 -2.2183
10285TIP3   OH252269   5.690   6.431   3.164 -0.1057 -0.7061  0.0682
10285TIP3    H152270   5.679   6.373   3.088  0.3033 -0.2339 -0.3653
10285TIP3    H252271   5.746   6.501   3.131 -0.0542 -0.4158  0.7738
10286TIP3   OH252272   0.976   6.171   4.257 -0.6671 -0.2385 -0.1021
10286TIP3    H152273   0.943   6.157   4.168 -2.2912 -2.8769  0.7870
10286TIP3    H252274   1.057   6.120   4.261  0.1136  0.9294 -0.3818
10287TIP3   OH252275   1.749   3.512   0.638 -0.3549  0.3347 -0.0045
10287TIP3    H152276   1.811   3.449   0.676 -0.0433 -0.5628 -1.8866
10287TIP3    H252277   1.709   3.465   0.565 -2.9672  1.0387  0.8552
10288TIP3   OH252278   3.765   4.634   0.909 -0.2068 -0.0537  0.0521
10288TIP3    H152279   3.699   4.605   0.846 -1.1399  0.5387  0.7447
10288TIP3    H252280   3.720   4.698   0.964  1.1827  0.9950  0.0135
10289TIP3   OH252281   6.033   2.068  15.624 -0.1416  0.8918 -0.2396
10289TIP3    H152282   5.966   2.002  15.638 -0.7262  1.5608  0.2294
10289TIP3    H252283   6.000   2.146  15.670 -0.2768  2.0266 -2.1573
10290TIP3   OH252284   2.176   5.792   3.094 -0.1800 -0.3875  0.2240
10290TIP3    H152285   2.269   5.777   3.076 -0.4500 -2.0294  0.0858
10290TIP3    H252286   2.147   5.713   3.140 -1.0924  0.8666  1.8986
10291TIP3   OH252287   5.176   1.555   1.979 -0.4751 -0.2431 -0.2884
10291TIP3    H152288   5.249   1.592   2.029 -0.3761 -0.2300 -0.4396
10291TIP3    H252289   5.213   1.478   1.936 -1.0193 -1.3120  1.0731
10292TIP3   OH252290   4.038   6.065  15.828 -0.0853  0.3292  0.4407
10292TIP3    H152291   4.004   6.096  15.744  2.2386  0.0158 -0.6767
10292TIP3    H252292   4.048   5.971  15.817  0.8334  0.3683  0.8440
10293TIP3   OH252293   1.190   4.568  16.883 -0.2368 -0.6086  0.4008
10293TIP3    H152294   1.213   4.601  16.970  0.2133  0.9390 -0.2811
10293TIP3    H252295   1.122   4.627  16.852  1.7746  0.8507 -1.5338
10294TIP3   OH252296   4.482   6.412  13.266 -0.0222 -0.5225  0.1149
10294TIP3    H152297   4.536   6.341  13.301 -0.0655 -0.3849  0.4641
10294TIP3    H252298   4.477   6.476  13.338 -0.3751 -0.3854 -0.0302
10295TIP3   OH252299   5.530   3.884   3.838  0.5677 -0.5226  0.1531
10295TIP3    H152300   5.514   3.977   3.852  0.7451 -0.6058  0.9680
10295TIP3    H252301   5.584   3.881   3.759 -1.8207 -0.1397 -1.5956
10296TIP3   OH252302   5.629   0.696   3.044 -0.0318 -0.2967  0.2142
10296TIP3    H152303   5.537   0.675   3.028  0.3056 -0.6998 -1.3745
10296TIP3    H252304   5.627   0.777   3.095 -1.3367  1.9911 -3.0760
10297TIP3   OH252305   2.311   2.520  14.144 -0.2526  0.3281 -0.0096
10297TIP3    H152306   2.321   2.604  14.188  0.5392  0.4670 -0.4355
10297TIP3    H252307   2.313   2.455  14.214  1.8006  0.4825  0.1479
10298TIP3   OH252308   5.577   2.040   0.987  0.5167 -0.2346  0.1805
10298TIP3    H152309   5.521   1.969   0.955  0.7805  0.0621 -1.0084
10298TIP3    H252310   5.517   2.114   0.999  0.2452 -0.6349  1.3987
10299TIP3   OH252311   1.437   0.382   3.281 -0.0816  0.1961 -0.3642
10299TIP3    H152312   1.369   0.434   3.238 -1.4792 -1.2107  0.0193
10299TIP3    H252313   1.445   0.419   3.369 -1.8588 -0.8389  0.2864
10300TIP3   OH252314   3.048   1.484   5.316  0.5169 -0.0055 -0.0295
10300TIP3    H152315   3.017   1.417   5.255  0.6878  0.7387 -0.9555
10300TIP3    H252316   3.130   1.515   5.279 -0.0110  1.3643 -0.1330
10301TIP3   OH252317   3.894   2.368   1.124  0.1629  0.2174 -0.8745
10301TIP3    H152318   3.914   2.462   1.132  0.4009  0.2723 -1.9066
10301TIP3    H252319   3.979   2.325   1.136  0.4337  0.2737 -2.4084
10302TIP3   OH252320   4.584   2.394   1.442 -0.2281  0.5365  0.0568
10302TIP3    H152321   4.521   2.322   1.433 -1.6002  1.8194 -0.9081
10302TIP3    H252322   4.550   2.447   1.513  0.1534  0.8854 -0.0171
10303TIP3   OH252323   2.972   4.650  15.980  0.1980 -0.2742 -0.2387
10303TIP3    H152324   2.906   4.688  16.039 -0.7645 -2.4934  0.2214
10303TIP3    H252325   3.008   4.576  16.029  0.6171 -1.1439 -1.7929
10304TIP3   OH252326   1.966   3.765  13.092  0.1254  0.0245 -0.2092
10304TIP3    H152327   2.007   3.787  13.008 -0.4403  1.3530 -0.1544
10304TIP3    H252328   1.873   3.780  13.078 -0.7046 -4.2544 -0.7491
10305TIP3   OH252329   5.358   4.334   1.723 -0.8423  0.1089 -0.0791
10305TIP3    H152330   5.308   4.414   1.738 -1.0039 -0.0150  0.0447
10305TIP3    H252331   5.338   4.278   1.798 -0.5864  0.0242 -0.0731
10306TIP3   OH252332   4.583   2.285   4.914 -0.0796  0.3449  0.3452
10306TIP3    H152333   4.520   2.218   4.938 -1.9001  0.9101 -2.4343
10306TIP3    H252334   4.548   2.366   4.951  0.1248  0.3461  0.5384
10307TIP3   OH252335   1.023   0.141   4.244  0.1948  0.0509  0.4693
10307TIP3    H152336   0.996   0.171   4.157  0.3366  0.3604  0.5302
10307TIP3    H252337   1.108   0.183   4.259  0.5547 -0.6441  0.4208
10308TIP3   OH252338   6.044   1.876  14.609 -0.0505 -0.0728  0.1853
10308TIP3    H152339   6.092   1.854  14.689  0.1734  1.2635  0.4485
10308TIP3    H252340   6.110   1.914  14.551 -0.5462  0.6768  0.0934
10309TIP3   OH252341   5.225   0.294  11.442 -0.4524  0.3672 -0.3308
10309TIP3    H152342   5.210   0.360  11.374 -2.3038  1.6584  1.2339
10309TIP3    H252343   5.148   0.236  11.436 -0.9357  0.8291  0.9635
10310TIP3   OH252344   4.189   5.932  16.690 -0.6275 -0.3177 -0.2466
10310TIP3    H152345   4.123   5.895  16.631 -0.7758 -0.3171 -0.0819
10310TIP3    H252346   4.140   5.994  16.744 -0.4341 -0.0975 -0.3269
10311TIP3   OH252347   0.427   6.335  15.064  0.0991  0.5820  0.4776
10311TIP3    H152348   0.411   6.284  15.144  0.5843  0.7654  0.6971
10311TIP3    H252349   0.471   6.274  15.006 -1.5144  0.0210 -0.1979
10312TIP3   OH252350   2.321   2.892   3.803  0.2387 -0.1100 -0.1259
10312TIP3    H152351   2.394   2.902   3.742 -0.1655 -0.7264 -0.7306
10312TIP3    H252352   2.322   2.799   3.826 -2.2684 -0.9015 -2.6556
10313TIP3   OH252353   5.240   6.429  13.315  0.3908  0.0072 -0.4328
10313TIP3    H152354   5.229   6.499  13.379 -0.0301  0.9835 -1.5447
10313TIP3    H252355   5.269   6.473  13.235  0.9583 -1.1898 -0.9126
10314TIP3   OH252356   4.085   1.523  11.104  0.2375  0.4166 -0.2156
10314TIP3    H152357   4.080   1.489  11.193 -0.9022  1.0011 -0.0454
10314TIP3    H252358   4.069   1.447  11.048  0.9645  0.0466  0.0647
10315TIP3   OH252359   0.926   0.885   5.219  0.7426 -0.2675 -0.1156
10315TIP3    H152360   0.858   0.819   5.208 -1.0000  1.5362 -0.8748
10315TIP3    H252361   0.914   0.917   5.308  0.2863  0.3431 -0.3881
10316TIP3   OH252362   6.521   3.929  13.439  0.4011  0.6722  0.2320
10316TIP3    H152363   6.492   3.840  13.459  0.9063  0.6840  1.0623
10316TIP3    H252364   6.592   3.946  13.501 -0.3960  2.0377  0.8174
10317TIP3   OH252365   4.244   3.622   6.104 -0.1147 -0.0675  0.5352
10317TIP3    H152366   4.210   3.537   6.132  0.1777  0.0256  1.1935
10317TIP3    H252367   4.169   3.681   6.108 -0.4525 -0.4224 -0.4941
10318TIP3   OH252368   1.786   1.368  13.695 -0.2596 -0.0415  0.5112
10318TIP3    H152369   1.865   1.423  13.701  0.3309 -1.0107  2.9965
10318TIP3    H252370   1.715   1.427  13.720 -0.3036  0.7258 -1.3139
10319TIP3   OH252371   6.791   0.298   4.269  0.6565  0.2364  0.1272
10319TIP3    H152372   6.818   0.350   4.344 -1.2936  0.6786  0.5654
10319TIP3    H252373   6.711   0.254   4.297  0.2357 -0.1006 -1.4629
10320TIP3   OH252374   3.600   6.006   3.235  0.6116  0.4291 -0.2580
10320TIP3    H152375   3.560   6.080   3.190  0.6330 -0.2375 -1.4252
10320TIP3    H252376   3.527   5.958   3.273  0.6044  1.0827  0.5701
10321TIP3   OH252377   4.707   3.419   2.386  0.0873  0.0588 -0.3421
10321TIP3    H152378   4.740   3.508   2.397 -0.6749  0.7398 -2.8819
10321TIP3    H252379   4.754   3.386   2.309 -1.4820 -0.7643 -0.9857
10322TIP3   OH252380   4.419   4.564  11.880 -0.5750 -0.1639 -0.1618
10322TIP3    H152381   4.440   4.572  11.974  1.9051  0.2869 -0.6853
10322TIP3    H252382   4.409   4.470  11.866 -1.4734 -0.2022  0.6345
10323TIP3   OH252383   4.510   1.488   0.454 -0.3015 -0.9730  0.1131
10323TIP3    H152384   4.430   1.443   0.427 -1.1810  1.8992 -2.7220
10323TIP3    H252385   4.482   1.550   0.521 -0.6091  0.3899 -1.2452
10324TIP3   OH252386   4.934   6.526   1.130 -0.1653 -0.0423 -0.2492
10324TIP3    H152387   4.838   6.530   1.130 -0.2031  0.4846 -2.6695
10324TIP3    H252388   4.961   6.611   1.094  1.3118  0.3940  1.7143
10325TIP3   OH252389   6.024   5.526   4.863  0.1751 -0.5752  0.1295
10325TIP3    H152390   5.940   5.484   4.881 -0.8824  0.5514 -1.7424
10325TIP3    H252391   6.090   5.460   4.885 -1.3597 -3.8040 -3.7055
10326TIP3   OH252392   4.618   2.157  12.460 -0.4117 -0.2169  0.1021
10326TIP3    H152393   4.635   2.070  12.424  0.0379 -0.7513  1.5462
10326TIP3    H252394   4.630   2.216  12.385  2.7236 -1.0406 -0.1862
10327TIP3   OH252395   1.847   4.588  12.649 -0.2305  0.4350 -0.0765
10327TIP3    H152396   1.890   4.673  12.639  1.6404 -0.4021  0.2585
10327TIP3    H252397   1.853   4.547  12.563  0.0980  0.1346  0.0822
10328TIP3   OH252398   0.539   2.977   3.193 -0.1541  0.0170 -0.7854
10328TIP3    H152399   0.633   2.962   3.208  0.3431  2.9961 -0.4267
10328TIP3    H252400   0.498   2.954   3.277  0.3912 -0.2153 -0.5735
10329TIP3   OH252401   4.073   6.353   2.872 -0.1750  0.1871  0.1060
10329TIP3    H152402   4.100   6.442   2.848 -1.0243  0.3777 -0.1776
10329TIP3    H252403   4.130   6.330   2.945 -0.0670  1.0420  0.3049
10330TIP3   OH252404   1.556   6.466  12.060 -0.8557  0.0055  0.0564
10330TIP3    H152405   1.620   6.400  12.085  0.3631  0.8101 -0.8300
10330TIP3    H252406   1.573   6.539  12.120 -0.8840  0.2513 -0.2321
10331TIP3   OH252407   4.873   3.051   6.273  0.0460 -0.6513  0.8211
10331TIP3    H152408   4.908   3.140   6.275  1.1459 -1.0503  0.4473
10331TIP3    H252409   4.906   3.015   6.190 -0.8203 -1.2376  0.7199
10332TIP3   OH252410   4.548   0.094   0.373  0.2337 -0.5343  0.2831
10332TIP3    H152411   4.531   0.081   0.466 -0.0189 -0.7190  0.2126
10332TIP3    H252412   4.468   0.066   0.330  0.6890 -1.3518 -0.0559
10333TIP3   OH252413   4.342   2.810   6.239  0.5244  0.7329 -0.2465
10333TIP3    H152414   4.341   2.757   6.159 -0.6239 -1.1359  0.9219
10333TIP3    H252415   4.432   2.807   6.269  0.7858  0.7331 -1.0108
10334TIP3   OH252416   0.145   2.926   1.691 -0.2032  0.6594 -0.7036
10334TIP3    H152417   0.105   2.981   1.759 -0.4429 -0.5247  0.1571
10334TIP3    H252418   0.184   2.854   1.740  1.2807  0.7585 -1.6995
10335TIP3   OH252419   3.187   0.458  12.279 -0.2838  0.3602  0.7919
10335TIP3    H152420   3.178   0.510  12.199 -1.9887 -2.3615 -0.9452
10335TIP3    H252421   3.220   0.374  12.250 -0.7199 -0.6558  3.0089
10336TIP3   OH252422   6.575   5.344  14.799  0.3830 -0.2190  0.7878
10336TIP3    H152423   6.512   5.289  14.845 -0.4201  1.7666  2.1880
10336TIP3    H252424   6.624   5.388  14.869  2.1072 -0.3240 -0.2795
10337TIP3   OH252425   2.087   0.583   4.526 -0.0309  0.2847  0.1998
10337TIP3    H152426   2.105   0.660   4.580  0.7526 -0.1993  0.6568
10337TIP3    H252427   2.163   0.575   4.469 -0.3508  0.1528 -0.2109
10338TIP3   OH252428   0.093   6.539   2.270 -0.2019  0.5497  0.0579
10338TIP3    H152429   0.030   6.481   2.226 -0.6384  1.0855 -0.0335
10338TIP3    H252430   0.061   6.627   2.252 -0.6578  0.7891  1.8476
10339TIP3   OH252431   0.544   3.973   1.312  0.3352 -0.0681 -0.2695
10339TIP3    H152432   0.546   4.056   1.358  0.5683  0.5519 -1.3725
10339TIP3    H252433   0.550   3.907   1.381  1.0693  0.8388  0.5527
10340TIP3   OH252434   4.394   6.728  13.839  0.0261 -0.1022 -0.2561
10340TIP3    H152435   4.365   6.648  13.795  1.1123 -0.4860 -0.3087
10340TIP3    H252436   4.381   6.797  13.773 -3.7944  0.3679  0.7792
10341TIP3   OH252437   0.207   1.208  15.256 -0.1949 -0.0921  0.1642
10341TIP3    H152438   0.273   1.276  15.248 -0.4764  0.1601 -0.0560
10341TIP3    H252439   0.169   1.221  15.344 -2.4644  2.1142 -1.0100
10342TIP3   OH252440   2.129   1.533  10.455 -0.1324  0.9154 -0.1820
10342TIP3    H152441   2.089   1.446  10.449  2.1023 -0.1780 -0.6316
10342TIP3    H252442   2.163   1.537  10.545  0.3691  1.0229 -0.3733
10343TIP3   OH252443   4.735   0.376   3.928 -0.0162 -0.5499  0.3639
10343TIP3    H152444   4.661   0.435   3.916 -0.3064 -0.4518  2.3199
10343TIP3    H252445   4.698   0.288   3.919 -0.1300 -0.4863  0.2031
10344TIP3   OH252446   4.156   6.148  12.215 -0.4579  0.1502  0.6335
10344TIP3    H152447   4.160   6.208  12.290 -1.6383  1.1421 -0.0557
10344TIP3    H252448   4.115   6.200  12.145  0.0021 -0.9589 -0.4954
10345TIP3   OH252449   3.262   6.410   5.575  0.0794  0.0322 -0.3039
10345TIP3    H152450   3.241   6.503   5.568 -1.0941 -0.1706  0.3733
10345TIP3    H252451   3.266   6.380   5.484 -1.9353  0.2387 -0.4997
10346TIP3   OH252452   1.228   0.134  14.634 -0.3539 -0.4962 -0.1221
10346TIP3    H152453   1.231   0.085  14.552  1.8557  0.5275 -0.7509
10346TIP3    H252454   1.207   0.223  14.607  1.6701  0.1352  0.1733
10347TIP3   OH252455   6.206   4.160  14.233 -0.0637 -0.2860 -0.5575
10347TIP3    H152456   6.294   4.135  14.206  0.2607  0.1370  0.0898
10347TIP3    H252457   6.191   4.113  14.315 -0.7351 -0.9408 -1.0461
10348TIP3   OH252458   4.126   0.621  13.926 -0.4578  0.1207  0.2782
10348TIP3    H152459   4.162   0.538  13.956 -0.2509  0.1439  0.0957
10348TIP3    H252460   4.157   0.629  13.836  0.4330  0.9051  0.6308
10349TIP3   OH252461   6.279   0.816   6.112 -0.3546 -0.2834 -0.2294
10349TIP3    H152462   6.211   0.854   6.167  0.6001  1.8903 -0.4430
10349TIP3    H252463   6.314   0.744   6.164  0.4029  1.5625  2.0246
10350TIP3   OH252464   3.677   5.683   4.692 -0.4838 -0.6766 -0.0848
10350TIP3    H152465   3.673   5.606   4.749 -0.9335  1.4597  3.0366
10350TIP3    H252466   3.619   5.747   4.734  0.9730  1.8906 -1.7018
10351TIP3   OH252467   5.243   5.856  17.040  0.2295 -0.1039 -0.2591
10351TIP3    H152468   5.262   5.848  17.133  0.0452  1.2341 -0.0805
10351TIP3    H252469   5.163   5.806  17.027  0.7162 -0.9987  0.1301
10352TIP3   OH252470   1.535   3.402   2.238  0.0918  0.2728 -0.0878
10352TIP3    H152471   1.486   3.435   2.314 -1.4993 -0.9673 -0.5104
10352TIP3    H252472   1.471   3.351   2.189  1.3794  0.1048 -1.6853
10353TIP3   OH252473   0.501   2.315  13.971 -0.2258 -0.2538 -0.0951
10353TIP3    H152474   0.526   2.404  13.996 -3.6050  0.7957  0.0037
10353TIP3    H252475   0.550   2.298  13.890  1.9994  0.8315  0.9406
10354TIP3   OH252476   2.205   4.440  13.208  0.5657 -0.5484 -0.4089
10354TIP3    H152477   2.127   4.403  13.166  0.0753 -0.5523  0.4784
10354TIP3    H252478   2.248   4.365  13.249  0.9141 -0.5092 -0.6999
10355TIP3   OH252479   3.892   3.510   6.239  0.2783 -0.3170 -0.1208
10355TIP3    H152480   3.876   3.580   6.303  2.1248  0.1031 -0.0621
10355TIP3    H252481   3.818   3.450   6.250 -1.1577  1.4083  0.1071
10356TIP3   OH252482   1.570   3.978   3.662 -0.6936 -0.5042  0.0441
10356TIP3    H152483   1.608   3.894   3.636 -3.2309 -1.9448  0.6801
10356TIP3    H252484   1.496   3.990   3.602 -1.5597  0.2741  1.2337
10357TIP3   OH252485   0.343   6.543   2.696 -0.7049  0.0081 -0.7373
10357TIP3    H152486   0.324   6.454   2.666 -0.9935 -0.3131  0.3551
10357TIP3    H252487   0.364   6.534   2.789  0.3786  0.9505 -0.8682
10358TIP3   OH252488   2.545   5.849   1.552  0.5213 -0.0943  1.0211
10358TIP3    H152489   2.490   5.844   1.631  1.5697 -0.5472  1.7445
10358TIP3    H252490   2.574   5.759   1.538  0.3572 -0.0091  0.1213
10359TIP3   OH252491   5.597   2.241   0.049 -0.2461  0.0005 -0.2281
10359TIP3    H152492   5.545   2.234   0.129  0.8285  0.1166  0.5059
10359TIP3    H252493   5.541   2.205  -0.020 -1.0904 -0.3400  0.6179
10360TIP3   OH252494   3.402   1.487   5.379  0.0405 -0.1429  0.4597
10360TIP3    H152495   3.345   1.432   5.433  1.0891 -0.8860  0.8292
10360TIP3    H252496   3.473   1.514   5.437  1.6093 -1.5901 -0.7042
10361TIP3   OH252497   0.663   2.597   4.236 -0.6190  0.1470  0.1097
10361TIP3    H152498   0.708   2.629   4.158 -1.1921  0.1912 -0.2091
10361TIP3    H252499   0.719   2.526   4.268 -0.0636  0.5308  0.0185
10362TIP3   OH252500   6.293   4.583   1.859 -0.7946 -0.0409  0.1980
10362TIP3    H152501   6.322   4.539   1.779 -2.6595 -1.3219  0.1847
10362TIP3    H252502   6.228   4.646   1.829 -1.3619 -0.3927  0.6806
10363TIP3   OH252503   0.935   6.408   0.451  0.2356  0.7276 -0.4906
10363TIP3    H152504   0.926   6.314   0.465  1.4455  0.7631  0.8135
10363TIP3    H252505   0.924   6.447   0.538  0.3167  1.7386 -0.9136
10364TIP3   OH252506   6.646   0.246  14.713 -0.2666  0.1059 -0.1397
10364TIP3    H152507   6.584   0.319  14.716 -2.0716 -1.3866  1.9549
10364TIP3    H252508   6.604   0.177  14.764  2.3480 -1.6569 -0.1983
10365TIP3   OH252509   1.937   5.830  15.497 -0.2487  0.6824 -0.2827
10365TIP3    H152510   1.895   5.814  15.582 -1.8388 -0.4942 -1.2192
10365TIP3    H252511   1.930   5.924  15.484 -1.6904  0.6562  0.0945
10366TIP3   OH252512   2.800   4.438   0.382  0.4368  0.0803 -0.6480
10366TIP3    H152513   2.718   4.388   0.373 -1.0456  1.7188  2.2421
10366TIP3    H252514   2.865   4.372   0.407 -0.2277 -1.0958 -1.8958
10367TIP3   OH252515   4.346   6.728  11.484  0.1432 -0.2449  0.2843
10367TIP3    H152516   4.388   6.657  11.533 -0.4449 -0.0150  1.1413
10367TIP3    H252517   4.347   6.698  11.393  1.4019 -0.6098  0.3933
10368TIP3   OH252518   0.742   0.178  13.364 -0.0569 -0.1956  0.0887
10368TIP3    H152519   0.696   0.259  13.386 -0.5792 -0.5999  0.5029
10368TIP3    H252520   0.679   0.129  13.311  0.1251 -0.4946  0.1515
10369TIP3   OH252521   4.020   3.996  16.754 -0.0711  0.2892  0.1991
10369TIP3    H152522   4.039   4.056  16.827 -1.4790  1.1483 -0.0983
10369TIP3    H252523   3.950   3.939  16.788 -1.5874  1.4586 -0.7985
10370TIP3   OH252524   2.818   5.431  16.801 -0.5219 -0.2642  0.9766
10370TIP3    H152525   2.784   5.517  16.776  0.6016 -0.3881 -1.2606
10370TIP3    H252526   2.898   5.450  16.851  0.7421  0.0933 -1.0417
10371TIP3   OH252527   6.391   3.560   0.686 -0.4311  0.2856  0.3840
10371TIP3    H152528   6.485   3.544   0.676 -0.4900  0.2435 -0.1320
10371TIP3    H252529   6.366   3.608   0.607 -0.2625  3.0172  1.8756
10372TIP3   OH252530   0.649   5.986  14.470 -0.1505  0.4077  0.2783
10372TIP3    H152531   0.558   5.957  14.480  0.1882 -0.7691  0.1476
10372TIP3    H252532   0.653   6.022  14.381 -0.3389 -0.1576  0.0359
10373TIP3   OH252533   6.717   2.294  13.303  0.1323 -0.0397 -0.2426
10373TIP3    H152534   6.755   2.334  13.225 -0.9180 -2.2711 -2.0214
10373TIP3    H252535   6.623   2.308  13.293 -0.1044 -1.3741 -0.0140
10374TIP3   OH252536   3.271   0.212  12.174 -0.3048 -0.1970 -0.1374
10374TIP3    H152537   3.261   0.209  12.079 -1.3007 -1.7628 -0.0196
10374TIP3    H252538   3.341   0.149  12.193  0.2131  0.4520  0.1441
10375TIP3   OH252539   0.926   0.896   1.647 -0.0788 -0.2474  0.1741
10375TIP3    H152540   0.965   0.952   1.579 -4.3652  2.7249 -0.2346
10375TIP3    H252541   0.885   0.824   1.599 -0.0445 -0.1441 -0.0100
10376TIP3   OH252542   1.205   3.316  14.016  0.5057 -0.1485  0.0675
10376TIP3    H152543   1.130   3.331  13.959  0.0558  2.2330  1.1867
10376TIP3    H252544   1.169   3.317  14.105  1.3470 -2.7577  0.5426
10377TIP3   OH252545   1.791   3.138  12.758  0.0012  0.4000 -0.2170
10377TIP3    H152546   1.884   3.159  12.750  0.1320 -0.5529 -1.3963
10377TIP3    H252547   1.777   3.126  12.852  1.4142 -0.9189 -0.1337
10378TIP3   OH252548   3.721   2.071   1.257  0.2029  0.2540  0.4824
10378TIP3    H152549   3.645   2.126   1.233  1.6978  2.3116  0.1804
10378TIP3    H252550   3.749   2.105   1.342  0.8509 -0.4023  0.5367
10379TIP3   OH252551   3.176   1.570  13.414 -0.1035  0.5514  0.0041
10379TIP3    H152552   3.119   1.640  13.381  0.6870  1.6514  0.8787
10379TIP3    H252553   3.165   1.574  13.509  2.4408  1.7386  0.3164
10380TIP3   OH252554   0.521   0.030  16.310  0.6676  0.5095 -0.0196
10380TIP3    H152555   0.519   0.083  16.390 -1.2089 -0.5262  0.6887
10380TIP3    H252556   0.484   0.087  16.243 -1.2921  0.1795  0.7215
10381TIP3   OH252557   3.459   5.151   5.472 -0.3924  0.0276 -0.1004
10381TIP3    H152558   3.470   5.235   5.518 -0.9006  0.1807 -0.2447
10381TIP3    H252559   3.413   5.096   5.535 -1.4570  0.3709 -0.5586
10382TIP3   OH252560   1.696   5.056  12.572 -0.3198 -0.7883  0.0444
10382TIP3    H152561   1.689   5.097  12.658  0.7158  0.5213 -0.4384
10382TIP3    H252562   1.620   4.999  12.565 -0.9385 -0.1741  1.4421
10383TIP3   OH252563   3.229   4.703  15.410  0.1925  0.5741  0.2435
10383TIP3    H152564   3.291   4.643  15.368 -0.8917  0.6134 -1.5264
10383TIP3    H252565   3.254   4.790  15.380 -0.5906  0.6088 -0.3349
10384TIP3   OH252566   5.869   0.585   5.705 -0.0702 -0.5541  0.2180
10384TIP3    H152567   5.813   0.564   5.630  1.4778 -0.2363 -1.0855
10384TIP3    H252568   5.825   0.659   5.747 -1.2934 -1.1422  0.0181
10385TIP3   OH252569   1.867   2.707   4.705  0.0300 -0.2541 -0.1187
10385TIP3    H152570   1.881   2.801   4.710 -1.4201 -0.0578  0.4829
10385TIP3    H252571   1.830   2.682   4.789 -1.0177 -1.1003 -0.7921
10386TIP3   OH252572   2.286   1.947   1.335  0.2875  0.0735 -0.5614
10386TIP3    H152573   2.199   1.986   1.339  0.0154 -0.4047 -1.5098
10386TIP3    H252574   2.329   1.990   1.262  1.2781  1.1088  0.5847
10387TIP3   OH252575   0.178   2.152   5.897 -0.6484  0.0501  0.5064
10387TIP3    H152576   0.215   2.187   5.977 -1.9333  0.5337  0.9247
10387TIP3    H252577   0.187   2.224   5.833  0.3918 -0.3419  0.1971
10388TIP3   OH252578   1.238   2.347   5.864 -0.1283  0.6607  0.0394
10388TIP3    H152579   1.165   2.329   5.923  0.7298  1.0247  1.2522
10388TIP3    H252580   1.310   2.292   5.897  0.1384  0.2203 -1.1962
10389TIP3   OH252581   3.269   5.610  12.349 -0.0951 -0.1641 -0.5941
10389TIP3    H152582   3.266   5.573  12.438  1.5417  0.0279 -0.4289
10389TIP3    H252583   3.360   5.637  12.337 -0.6182  1.2560 -1.7614
10390TIP3   OH252584   2.075   0.907  11.024 -0.0078 -0.9796  0.2831
10390TIP3    H152585   2.075   0.999  10.995  0.0380 -1.2934 -0.7771
10390TIP3    H252586   2.167   0.888  11.040  0.1307 -1.1782 -0.6809
10391TIP3   OH252587   2.772   3.109   2.574 -0.0825 -0.1552  0.1337
10391TIP3    H152588   2.826   3.037   2.543  1.2173  1.5596 -1.8536
10391TIP3    H252589   2.835   3.178   2.598 -1.3027  1.4177 -0.9845
10392TIP3   OH252590   5.361   0.729  12.913 -0.0971  0.2159  0.2848
10392TIP3    H152591   5.448   0.688  12.905  0.9585  2.5906 -1.9491
10392TIP3    H252592   5.332   0.739  12.822 -2.2411  0.5220  0.9600
10393TIP3   OH252593   0.030   2.558  15.064  0.2231 -0.3213 -0.4677
10393TIP3    H152594   0.057   2.637  15.018  1.2297  0.1758  0.9237
10393TIP3    H252595  -0.061   2.574  15.089  0.9198  1.1862  1.3344
10394TIP3   OH252596   0.457   5.804   1.939 -0.7134 -0.3333 -0.5612
10394TIP3    H152597   0.521   5.869   1.911  0.5598 -1.4747 -0.3753
10394TIP3    H252598   0.497   5.720   1.919 -2.0937 -1.0893 -0.2908
10395TIP3   OH252599   1.653   6.377   5.198  0.3556  0.4131 -0.1684
10395TIP3    H152600   1.721   6.310   5.197 -0.1511 -0.1677  1.5523
10395TIP3    H252601   1.697   6.457   5.227  0.1669 -0.2169  2.0675
10396TIP3   OH252602   2.764   1.368  14.273 -0.0806 -0.1868 -0.2492
10396TIP3    H152603   2.669   1.368  14.263 -0.0164  0.7741 -1.0377
10396TIP3    H252604   2.791   1.280  14.248 -0.5971  0.1100 -1.9945
10397TIP3   OH252605   2.167   5.181   1.652 -0.0416  0.0743  0.1976
10397TIP3    H152606   2.167   5.238   1.729 -2.9124  0.1777  0.2049
10397TIP3    H252607   2.217   5.230   1.587  0.7721  0.8595  1.3620
10398TIP3   OH252608   4.398   0.002  12.413 -0.5831 -0.2980  0.8017
10398TIP3    H152609   4.392  -0.090  12.386  0.2877 -0.3627  0.7937
10398TIP3    H252610   4.455   0.001  12.489  1.5876  0.4831 -0.7032
10399TIP3   OH252611   3.626   0.373  14.359  0.2294  0.6184 -0.2616
10399TIP3    H152612   3.652   0.433  14.289 -0.7327  1.1194 -0.2124
10399TIP3    H252613   3.651   0.286  14.328  1.5571  1.0207 -0.3773
10400TIP3   OH252614   5.499   2.027   4.046  0.0318  0.2225 -0.2309
10400TIP3    H152615   5.582   2.063   4.077 -0.6410  0.2624  1.6840
10400TIP3    H252616   5.439   2.037   4.121 -0.7297 -3.0355 -0.2603
10401TIP3   OH252617   4.330   4.238   0.031 -0.1333  0.0378  0.0563
10401TIP3    H152618   4.332   4.145   0.051  0.0823  0.1948  0.7966
10401TIP3    H252619   4.376   4.280   0.104 -1.6006  0.8603  0.5675
10402TIP3   OH252620   2.911   3.071  14.508 -0.0974 -0.3922 -0.1390
10402TIP3    H152621   2.875   3.160  14.512 -1.0575 -0.7257 -0.9490
10402TIP3    H252622   2.856   3.020  14.567  0.3090 -0.4966  0.1488
10403TIP3   OH252623   2.300   6.789  14.937 -0.0410  0.2072 -0.1092
10403TIP3    H152624   2.223   6.795  14.879 -1.4816 -1.6048  1.4873
10403TIP3    H252625   2.281   6.714  14.994  1.8560  1.1793  1.9227
10404TIP3   OH252626   2.904   5.708   5.925 -0.2089  0.1865  0.5606
10404TIP3    H152627   2.845   5.773   5.964  0.4005  1.0927  0.0073
10404TIP3    H252628   2.989   5.752   5.921  0.0746 -0.4207 -0.4082
10405TIP3   OH252629   6.762   1.399  11.456  0.2774  0.3765 -0.1129
10405TIP3    H152630   6.732   1.341  11.526  0.2123  0.4526 -0.0771
10405TIP3    H252631   6.735   1.356  11.375 -0.4829  0.7417 -0.0654
10406TIP3   OH252632   3.443   0.012  12.920  0.2027 -0.2691  0.1665
10406TIP3    H152633   3.416   0.102  12.939 -0.7213 -0.3709 -0.5676
10406TIP3    H252634   3.378  -0.043  12.963  1.8752 -0.6861  2.3192
10407TIP3   OH252635   6.246   3.483   4.897 -0.5604  0.4467  0.4487
10407TIP3    H152636   6.329   3.488   4.946 -0.4434  0.6891  0.2257
10407TIP3    H252637   6.178   3.490   4.965 -0.4330 -1.6825  0.8735
10408TIP3   OH252638   6.681   0.170   1.390  0.4620 -0.1121 -0.0110
10408TIP3    H152639   6.644   0.246   1.434 -1.0095 -0.5736 -0.4127
10408TIP3    H252640   6.622   0.153   1.317  1.5785 -0.7718 -0.7958
10409TIP3   OH252641   5.113   6.403   4.104  0.0894 -0.0315 -0.0447
10409TIP3    H152642   5.029   6.406   4.149  0.0548  0.8132 -0.1570
10409TIP3    H252643   5.160   6.481   4.135  1.3791 -1.1777  1.0723
10410TIP3   OH252644   6.154   2.321  14.442 -0.7031  0.1683  0.3550
10410TIP3    H152645   6.150   2.389  14.374 -1.2926 -2.0920 -2.0485
10410TIP3    H252646   6.080   2.264  14.423 -0.3122 -1.0910  2.3540
10411TIP3   OH252647   0.616   4.534   1.084 -0.4830 -0.3432  0.0094
10411TIP3    H152648   0.692   4.519   1.027 -0.4792 -1.5320  0.3034
10411TIP3    H252649   0.621   4.464   1.149 -2.0506 -0.6836 -0.2018
10412TIP3   OH252650   0.739   5.121  14.403 -0.6877 -0.2017  0.2121
10412TIP3    H152651   0.657   5.100  14.448 -1.1141 -2.8412 -1.5953
10412TIP3    H252652   0.763   5.208  14.437 -3.7152  0.2688  1.4788
10413TIP3   OH252653   2.705   0.838   0.070  0.4284 -0.3090  0.0582
10413TIP3    H152654   2.617   0.876   0.070  1.2320  1.8632 -2.0757
10413TIP3    H252655   2.691   0.744   0.056 -1.5498 -0.0499 -0.0155
10414TIP3   OH252656   5.553   2.990   1.424 -0.0758 -0.0488  0.8098
10414TIP3    H152657   5.641   2.965   1.396 -0.1371 -0.3182  0.8528
10414TIP3    H252658   5.511   3.023   1.345 -0.0902 -0.3624  0.6836
10415TIP3   OH252659   6.174   4.440  12.779 -0.3223  0.0744 -0.2228
10415TIP3    H152660   6.216   4.511  12.730  1.1700 -0.9900 -0.5518
10415TIP3    H252661   6.089   4.476  12.805 -0.4941  1.2552 -2.1716
10416TIP3   OH252662   1.461   1.305   3.311  0.1789 -0.0841 -0.2948
10416TIP3    H152663   1.475   1.237   3.246  0.0805 -0.3731 -0.0124
10416TIP3    H252664   1.442   1.258   3.392 -3.2141  0.2778 -0.7726
10417TIP3   OH252665   4.780   3.941   3.111 -0.2775  0.3800 -0.4750
10417TIP3    H152666   4.874   3.956   3.098 -0.1223 -0.9898 -1.0361
10417TIP3    H252667   4.771   3.929   3.206  0.4975 -1.7319 -0.6202
10418TIP3   OH252668   3.584   3.958  16.159 -0.0367 -0.0528  0.1707
10418TIP3    H152669   3.552   3.920  16.241 -1.4978  0.5938 -0.0729
10418TIP3    H252670   3.587   4.052  16.175 -2.0354  0.2711 -1.0235
10419TIP3   OH252671   6.427   1.039   4.489  0.0796 -0.0213 -0.3385
10419TIP3    H152672   6.498   0.981   4.461 -0.8081 -1.6354  0.6149
10419TIP3    H252673   6.451   1.066   4.577 -0.1342  0.0239 -0.2934
10420TIP3   OH252674   2.218   2.898  12.588 -0.5398  0.3191 -0.6022
10420TIP3    H152675   2.190   2.922  12.500  0.3560  2.5711 -0.3376
10420TIP3    H252676   2.247   2.980  12.628  1.5240 -1.0293  0.9108
10421TIP3   OH252677   4.841   6.564  17.106  0.5005  0.1728  0.3841
10421TIP3    H152678   4.922   6.589  17.062  0.2464  0.0923 -0.1424
10421TIP3    H252679   4.772   6.590  17.045  0.0445  1.5326  1.4293
10422TIP3   OH252680   0.810   2.547   0.105  0.0244 -0.0259 -0.1958
10422TIP3    H152681   0.745   2.490   0.065  1.6427 -0.0146 -3.0410
10422TIP3    H252682   0.837   2.501   0.184 -1.6296 -1.1825 -0.2581
10423TIP3   OH252683   2.769   0.191   4.103 -0.1850  0.0093  0.3453
10423TIP3    H152684   2.812   0.118   4.059  1.1309  0.6625  0.4964
10423TIP3    H252685   2.727   0.240   4.032  2.3107  1.3115 -0.3180
10424TIP3   OH252686   1.229   2.867   0.195 -0.0432 -0.4328  0.4113
10424TIP3    H152687   1.223   2.776   0.225  0.6274 -0.8811 -0.7679
10424TIP3    H252688   1.314   2.898   0.226  0.5100 -0.7936 -0.6954
10425TIP3   OH252689   0.573   3.722   1.834  0.5962 -0.0580 -0.0450
10425TIP3    H152690   0.619   3.736   1.917  1.2892  0.1337 -0.4553
10425TIP3    H252691   0.631   3.664   1.784 -0.7881 -1.9361  0.4193
10426TIP3   OH252692   0.555   5.975  13.516 -0.4692  0.5796  0.3445
10426TIP3    H152693   0.522   5.952  13.603  0.1342 -1.1555  0.1491
10426TIP3    H252694   0.586   6.065  13.526 -0.9087  0.6063  1.7775
10427TIP3   OH252695   1.027   4.542   0.656 -0.1812 -0.2137 -0.3891
10427TIP3    H152696   1.073   4.459   0.671 -0.2854 -0.5037 -1.5938
10427TIP3    H252697   0.935   4.516   0.648 -0.5184  0.2905  1.3712
10428TIP3   OH252698   5.325   1.574   0.411 -0.7849  0.6007  0.1251
10428TIP3    H152699   5.323   1.638   0.340  0.3327  0.1911 -0.2978
10428TIP3    H252700   5.327   1.627   0.491  2.0266  1.2225 -0.2374
10429TIP3   OH252701   6.689   0.078   0.958 -0.0846 -0.5166 -0.3274
10429TIP3    H152702   6.679   0.011   0.890  0.8730 -2.7352  1.5750
10429TIP3    H252703   6.766   0.128   0.930 -0.0169 -1.0593 -1.1493
10430TIP3   OH252704   0.348   6.205  15.368 -0.1190  0.6919 -0.2495
10430TIP3    H152705   0.397   6.225  15.448  0.1902 -2.8831  0.6392
10430TIP3    H252706   0.268   6.257  15.375  0.1099  0.8229  2.1817
10431TIP3   OH252707   3.635   3.341   0.255  0.4442  0.1022 -0.2019
10431TIP3    H152708   3.666   3.252   0.237 -0.7891 -0.5022  0.5044
10431TIP3    H252709   3.542   3.339   0.230  0.2627  1.0235  0.3589
10432TIP3   OH252710   5.296   1.998  11.834 -0.3233 -0.2941 -0.0690
10432TIP3    H152711   5.328   1.981  11.746 -2.0772  1.1368 -1.0552
10432TIP3    H252712   5.225   1.937  11.846  0.3124 -0.9156  0.6346
10433TIP3   OH252713   1.273   1.789  16.660  0.0049  0.6915 -0.2891
10433TIP3    H152714   1.188   1.745  16.665 -2.4635  4.9510  0.1458
10433TIP3    H252715   1.303   1.793  16.751  0.7336 -0.7312 -0.4324
10434TIP3   OH252716   5.585   5.352   3.073 -0.1428  0.6721  0.1882
10434TIP3    H152717   5.530   5.422   3.109  0.1605  1.3618 -0.6427
10434TIP3    H252718   5.674   5.383   3.088  0.0381  1.8833 -2.6781
10435TIP3   OH252719   5.939   5.617  14.023 -0.6510 -0.1040 -0.6343
10435TIP3    H152720   5.964   5.702  13.986 -0.8645 -0.5068 -1.7651
10435TIP3    H252721   5.866   5.636  14.082  0.8972  0.8079  1.0812
10436TIP3   OH252722   6.572   1.650  12.227  0.4619  0.0964 -0.1028
10436TIP3    H152723   6.625   1.596  12.285  2.0272  0.9233 -0.7124
10436TIP3    H252724   6.635   1.692  12.168 -1.0028 -0.3586 -2.1266
10437TIP3   OH252725   3.157   4.504  12.438  0.3653  0.1626  0.0158
10437TIP3    H152726   3.149   4.437  12.505 -2.4062 -0.0296 -0.4018
10437TIP3    H252727   3.166   4.586  12.487  4.0964 -0.3604  0.5319
10438TIP3   OH252728   4.086   1.329  14.757  0.5962 -0.4786  0.3567
10438TIP3    H152729   4.089   1.356  14.849 -1.5929 -1.7297  0.8798
10438TIP3    H252730   3.995   1.346  14.730  1.5076  1.1738 -2.0455
10439TIP3   OH252731   3.181   4.936   5.056 -0.3121 -0.5736  0.2823
10439TIP3    H152732   3.091   4.953   5.029 -0.9269 -2.2989  1.0715
10439TIP3    H252733   3.204   5.010   5.113 -0.8757  0.3599 -0.6771
10440TIP3   OH252734   0.297   3.068  16.638 -1.0539  0.3188  0.5348
10440TIP3    H152735   0.344   3.005  16.583 -1.9985 -0.6584  0.8080
10440TIP3    H252736   0.351   3.077  16.716  0.1745  1.5241 -0.3925
10441TIP3   OH252737   6.023   5.751   4.039 -0.1408 -0.3186 -0.0146
10441TIP3    H152738   6.040   5.755   4.133 -1.8088 -1.8682  0.4298
10441TIP3    H252739   5.946   5.694   4.032  0.5287 -1.0298 -2.3925
10442TIP3   OH252740   3.806   4.119   3.910 -0.4213 -0.0917 -0.0843
10442TIP3    H152741   3.755   4.079   3.980  0.3733 -0.2112  0.4343
10442TIP3    H252742   3.814   4.051   3.844 -3.4384  0.8158 -1.5510
10443TIP3   OH252743   5.995   2.465  15.349  0.2553  0.1052 -0.1408
10443TIP3    H152744   6.048   2.409  15.406  0.3870 -0.7934 -1.1179
10443TIP3    H252745   6.051   2.540  15.330  0.9307 -0.5057 -0.6146
10444TIP3   OH252746   2.773   0.835  16.842 -0.4904 -0.1473  0.1902
10444TIP3    H152747   2.846   0.788  16.802 -1.6537 -0.9496 -1.0587
10444TIP3    H252748   2.729   0.769  16.896 -0.1321  0.4155  1.2038
10445TIP3   OH252749   0.960   6.629   5.850  0.4165  0.6655  0.1185
10445TIP3    H152750   0.890   6.690   5.875  2.1903  1.9683  2.3592
10445TIP3    H252751   0.934   6.545   5.888  0.2168  1.2386  1.2886
10446TIP3   OH252752   3.101   0.118   5.693 -0.2396 -0.1964 -0.4154
10446TIP3    H152753   3.172   0.114   5.757  0.2510 -1.1320 -0.9984
10446TIP3    H252754   3.083   0.211   5.682 -0.4063 -0.0153  1.1563
10447TIP3   OH252755   5.428   3.791   0.687 -0.3173  0.0262  0.5622
10447TIP3    H152756   5.404   3.810   0.596 -1.8201  0.4436  1.0162
10447TIP3    H252757   5.422   3.696   0.694 -1.2891  0.0700  0.4892
10448TIP3   OH252758   0.318   2.659   1.088  0.3230 -0.4097 -0.5106
10448TIP3    H152759   0.246   2.603   1.059  1.0371 -1.4276 -0.3520
10448TIP3    H252760   0.382   2.599   1.127  1.7901  0.3173 -1.6904
10449TIP3   OH252761   2.861   3.550  13.389 -0.2721  0.4000 -0.1014
10449TIP3    H152762   2.811   3.501  13.454 -1.4714 -0.4656 -1.6063
10449TIP3    H252763   2.951   3.520  13.401 -0.5635 -0.1959  0.7434
10450TIP3   OH252764   0.009   4.638   5.081 -0.0914 -0.1628 -0.2948
10450TIP3    H152765   0.008   4.558   5.029  0.8942 -0.0172 -0.5525
10450TIP3    H252766   0.102   4.660   5.091 -0.2713  0.0407  1.1765
10451TIP3   OH252767   2.877   3.857  14.176 -0.4555 -0.0195  0.5209
10451TIP3    H152768   2.917   3.773  14.199 -0.6203  0.0926  1.2530
10451TIP3    H252769   2.797   3.834  14.128  0.0753 -0.2551 -0.2646
10452TIP3   OH252770   1.565   3.611  13.219  0.1593  0.6437  0.3849
10452TIP3    H152771   1.501   3.627  13.150 -0.0027 -0.5406  0.2364
10452TIP3    H252772   1.541   3.671  13.289 -0.7515  0.6201  0.0984
10453TIP3   OH252773   1.853   5.465   0.074  0.0064  0.2137 -0.8794
10453TIP3    H152774   1.884   5.550   0.106  0.7503 -0.2154 -0.4191
10453TIP3    H252775   1.928   5.406   0.087 -0.9228 -0.8127  0.0742
10454TIP3   OH252776   1.117   0.537  14.280 -0.3318  0.0683  0.1168
10454TIP3    H152777   1.093   0.619  14.322  1.7527  0.2557  1.0422
10454TIP3    H252778   1.175   0.563  14.208  1.5586 -0.6305  1.3354
10455TIP3   OH252779   4.023   1.591  16.826  0.1760  0.1986 -0.2794
10455TIP3    H152780   4.011   1.681  16.795 -0.5557  0.3167  0.3213
10455TIP3    H252781   4.010   1.597  16.920 -0.9078 -0.7213 -0.3649
10456TIP3   OH252782   1.232   1.531  12.899  0.0060 -0.4150 -0.5136
10456TIP3    H152783   1.170   1.588  12.944  1.0555 -1.1080  1.9900
10456TIP3    H252784   1.202   1.529  12.808 -1.6819  1.8490 -0.0837
10457TIP3   OH252785   6.599   6.747  15.616  0.1907 -0.0340 -0.3079
10457TIP3    H152786   6.646   6.797  15.549  0.0714  0.5938  0.0671
10457TIP3    H252787   6.634   6.780  15.698 -0.5597  0.0860 -0.0364
10458TIP3   OH252788   3.085   0.138  15.835 -0.0150 -0.0213 -0.3539
10458TIP3    H152789   3.039   0.218  15.809  0.0754  0.5478  1.1917
10458TIP3    H252790   3.069   0.130  15.929  0.1834 -1.6978 -0.4282
10459TIP3   OH252791   5.972   5.091  14.073  0.8888  0.6110 -0.1658
10459TIP3    H152792   6.068   5.092  14.074  0.8979  0.1014  0.8891
10459TIP3    H252793   5.947   5.176  14.037  1.7404  0.8114 -0.2970
10460TIP3   OH252794   2.430   3.866   4.037 -0.2782 -0.0076 -0.5986
10460TIP3    H152795   2.413   3.955   4.007 -1.1308  0.4219  1.0090
10460TIP3    H252796   2.347   3.820   4.024 -0.4960  0.0410  0.5026
10461TIP3   OH252797   5.461   1.936   6.296 -0.6547  0.0981  0.4083
10461TIP3    H152798   5.483   1.925   6.203 -0.7095 -0.4622  0.4610
10461TIP3    H252799   5.488   1.854   6.337 -1.4465  0.0003  0.7423
10462TIP3   OH252800   4.161   6.076  12.724 -0.2129  0.4245 -0.3769
10462TIP3    H152801   4.082   6.130  12.720 -0.4093  0.4139  2.0714
10462TIP3    H252802   4.230   6.137  12.752  0.4583  0.2261 -1.5413
10463TIP3   OH252803   0.242   5.573   2.592  0.1919 -0.6627 -0.3351
10463TIP3    H152804   0.278   5.590   2.505 -0.7346  0.1857 -0.5830
10463TIP3    H252805   0.190   5.494   2.581 -1.1391  0.2588 -0.9594
10464TIP3   OH252806   4.842   0.499   5.066  0.0353 -0.0787  0.1857
10464TIP3    H152807   4.836   0.420   5.120 -0.2222 -0.4669 -0.3953
10464TIP3    H252808   4.841   0.466   4.976  0.3370  0.5658 -0.0572
10465TIP3   OH252809   1.828   0.897   4.189  0.3084  0.4878 -0.3655
10465TIP3    H152810   1.816   0.804   4.205  0.3976  0.5654  0.1610
10465TIP3    H252811   1.892   0.925   4.254  0.5873  0.8369 -0.7786
10466TIP3   OH252812   4.041   2.013  13.242 -0.0201 -1.0022 -0.4884
10466TIP3    H152813   4.114   2.073  13.255 -0.4717 -0.6130  0.3412
10466TIP3    H252814   4.038   1.961  13.323 -2.1449  0.6379  0.5920
10467TIP3   OH252815   6.088   1.476   0.193  0.1344 -0.1518  0.4968
10467TIP3    H152816   6.140   1.481   0.273  0.3843 -0.7964  0.3871
10467TIP3    H252817   6.146   1.433   0.129 -0.5255 -0.8896  0.3753
10468TIP3   OH252818   3.511   2.262   1.255 -0.3360 -0.1621  0.2612
10468TIP3    H152819   3.424   2.229   1.278  0.2899 -1.4691  0.8487
10468TIP3    H252820   3.531   2.326   1.323 -1.2216  0.8554 -0.4157
10469TIP3   OH252821   1.252   4.772  15.263 -0.3227  0.4681  0.3022
10469TIP3    H152822   1.200   4.850  15.246 -0.1412  0.6069  0.3756
10469TIP3    H252823   1.279   4.742  15.175 -0.3003  0.5519  0.2810
10470TIP3   OH252824   4.670   6.387  10.528 -0.2563 -0.0481  0.1678
10470TIP3    H152825   4.734   6.456  10.508 -1.4987  0.8756 -0.7501
10470TIP3    H252826   4.665   6.386  10.624  0.6581  0.2974  0.2318
10471TIP3   OH252827   5.700   3.828   1.333  0.1037  0.5720 -0.4197
10471TIP3    H152828   5.710   3.852   1.240 -0.2410  0.5703 -0.4602
10471TIP3    H252829   5.692   3.733   1.333  0.9000  0.5025 -0.3118
10472TIP3   OH252830   3.249   3.284   4.372 -0.4616  0.4012 -0.3538
10472TIP3    H152831   3.221   3.372   4.397 -2.3349 -0.4247  0.6577
10472TIP3    H252832   3.180   3.252   4.314  0.3912 -0.2830 -1.0226
10473TIP3   OH252833   3.240   5.403   5.485  0.1284 -0.1284 -0.2997
10473TIP3    H152834   3.191   5.325   5.461  0.9405 -0.2080 -1.8184
10473TIP3    H252835   3.286   5.379   5.566 -0.1184 -1.0043 -0.4143
10474TIP3   OH252836   2.714   5.863  10.658  0.0230 -0.4519 -0.3051
10474TIP3    H152837   2.767   5.884  10.582 -0.8464  0.5296 -0.6792
10474TIP3    H252838   2.640   5.812  10.623  0.1256 -0.8361  0.0307
10475TIP3   OH252839   5.848   6.197   4.690 -0.0483  0.1472  0.4456
10475TIP3    H152840   5.828   6.185   4.783  2.1554  0.0673  0.9631
10475TIP3    H252841   5.936   6.236   4.688 -0.3913  0.9838 -1.5994
10476TIP3   OH252842   4.767   5.733   2.496  0.2071 -0.0686  0.0470
10476TIP3    H152843   4.848   5.731   2.445  0.5871 -2.2414  0.6453
10476TIP3    H252844   4.707   5.675   2.450  0.6732 -2.3841  2.1317
10477TIP3   OH252845   0.441   5.414   4.312 -0.2544  0.2389 -0.6457
10477TIP3    H152846   0.532   5.409   4.341  0.0003 -0.2334 -1.4861
10477TIP3    H252847   0.389   5.395   4.390  0.4009 -0.6840 -0.4204
10478TIP3   OH252848   0.220   3.785  17.059  0.6007 -0.0073  0.1029
10478TIP3    H152849   0.214   3.690  17.071  0.0770 -0.1289 -0.9926
10478TIP3    H252850   0.304   3.809  17.098  1.4185 -1.1407 -0.8842
10479TIP3   OH252851   2.065   6.385  15.328  0.0840  0.4289  0.0518
10479TIP3    H152852   2.136   6.325  15.350 -1.1228 -0.8989  0.5299
10479TIP3    H252853   1.990   6.353  15.378 -0.4555  2.7952  0.8798
10480TIP3   OH252854   5.471   0.935   3.680 -0.0981  0.4345  0.4054
10480TIP3    H152855   5.425   0.913   3.760  0.9418 -2.8371  0.2647
10480TIP3    H252856   5.429   0.882   3.612  2.7940 -1.7206  0.0486
10481TIP3   OH252857   1.375   1.941  13.827 -0.0026 -0.5929  0.5777
10481TIP3    H152858   1.370   1.968  13.919 -0.7853 -0.3080  0.4659
10481TIP3    H252859   1.467   1.948  13.805  0.0596  0.3441  1.0552
10482TIP3   OH252860   3.681   5.606   3.575 -0.5999  0.2624 -0.0753
10482TIP3    H152861   3.685   5.516   3.606  0.7977  0.1489 -0.5124
10482TIP3    H252862   3.751   5.651   3.622 -0.4786  0.8138 -0.7569
10483TIP3   OH252863   4.558   0.581   1.365  0.2250  0.1384 -0.5853
10483TIP3    H152864   4.582   0.509   1.307  0.1990  0.7466 -1.3721
10483TIP3    H252865   4.483   0.622   1.322 -1.4769 -0.9620  1.1999
10484TIP3   OH252866   5.364   2.439  12.557 -0.3236  0.6021 -0.1981
10484TIP3    H152867   5.349   2.348  12.580  0.2272  0.6437  0.3658
10484TIP3    H252868   5.455   2.455  12.581 -0.4525  1.3363 -0.1613
10485TIP3   OH252869   0.042   3.360   5.942  0.1010  0.3159 -0.1515
10485TIP3    H152870   0.038   3.319   6.029 -0.1390  2.2289  0.8163
10485TIP3    H252871   0.134   3.382   5.930  0.2259 -0.4867 -0.6515
10486TIP3   OH252872   2.398   3.259   1.565  0.4560  0.3513  0.1604
10486TIP3    H152873   2.346   3.224   1.492 -0.2611  1.1675  0.2609
10486TIP3    H252874   2.338   3.254   1.640  0.4148  1.5544  0.2228
10487TIP3   OH252875   1.707   4.254   1.686 -0.1721  0.4531  0.0861
10487TIP3    H152876   1.704   4.340   1.644 -1.3179  0.4235  0.0888
10487TIP3    H252877   1.757   4.200   1.625  3.3027  1.7972  1.4445
10488TIP3   OH252878   2.581   3.759   0.076 -0.1557 -0.6648 -0.0669
10488TIP3    H152879   2.535   3.809   0.143 -0.9194 -1.9200  0.3697
10488TIP3    H252880   2.621   3.686   0.123 -0.0716 -1.1480 -0.8712
10489TIP3   OH252881   4.893   0.173   2.160  0.4091  0.2477  0.0133
10489TIP3    H152882   4.812   0.199   2.115  0.2289 -0.3120  0.0109
10489TIP3    H252883   4.915   0.249   2.214  0.9304  1.1464 -1.4215
10490TIP3   OH252884   6.520   3.760   2.281 -0.0297  0.4901  0.5928
10490TIP3    H152885   6.512   3.852   2.306 -0.8553  0.3819  0.7560
10490TIP3    H252886   6.447   3.746   2.221  0.2966  0.0277  0.3038
10491TIP3   OH252887   4.969   3.211   3.246 -0.4440 -0.2801  0.2939
10491TIP3    H152888   4.958   3.212   3.341 -0.1486  1.1965  0.3421
10491TIP3    H252889   5.058   3.243   3.233 -0.6743  0.0530 -0.4919
10492TIP3   OH252890   3.285   0.507  11.368  0.0305  0.1812  0.2441
10492TIP3    H152891   3.269   0.412  11.362  0.1437  0.0917  1.1840
10492TIP3    H252892   3.308   0.533  11.279  1.0976 -0.8874  0.1801
10493TIP3   OH252893   0.803   0.506  14.813 -0.6519  0.3736  0.5444
10493TIP3    H152894   0.893   0.473  14.816  0.5572  3.0471 -1.9768
10493TIP3    H252895   0.783   0.527  14.904  0.3901 -2.2351  1.4792
10494TIP3   OH252896   0.254   0.217  14.130  0.1455 -0.0618 -0.0337
10494TIP3    H152897   0.333   0.165  14.138  0.2061  0.1168  0.5589
10494TIP3    H252898   0.209   0.181  14.053  0.3172 -0.8033  0.2079
10495TIP3   OH252899   6.566   3.949   5.342  0.0852  0.6417 -0.0688
10495TIP3    H152900   6.504   3.882   5.373  0.6817 -0.4267 -1.1123
10495TIP3    H252901   6.511   4.027   5.329 -1.0908 -0.3246 -1.1305
10496TIP3   OH252902   3.489   0.381  12.721 -0.2443 -0.0376 -0.2120
10496TIP3    H152903   3.406   0.353  12.680 -0.0592 -0.2431 -0.4551
10496TIP3    H252904   3.497   0.473  12.699 -0.2258 -0.1087 -0.5104
10497TIP3   OH252905   0.946   1.321  14.558  0.0860 -0.3600 -0.2692
10497TIP3    H152906   0.869   1.349  14.508  0.5559  0.8875 -0.3326
10497TIP3    H252907   0.985   1.253  14.504  0.3748  0.6979 -1.4547
10498TIP3   OH252908   3.688   5.893   4.281 -0.1247 -0.1626  0.8442
10498TIP3    H152909   3.743   5.957   4.326  0.1569 -0.1675  0.5145
10498TIP3    H252910   3.741   5.864   4.207 -0.5417 -0.2259  0.5645
10499TIP3   OH252911   3.954   3.622   2.644 -0.4123  0.0508  0.0231
10499TIP3    H152912   3.995   3.622   2.557  0.9576 -1.9853  0.5884
10499TIP3    H252913   3.922   3.712   2.656  4.6252  2.2145 -0.2181
10500TIP3   OH252914   4.603   6.383  13.628  0.3396  0.0502  0.2586
10500TIP3    H152915   4.680   6.435  13.605  1.1917 -0.8033  1.0596
10500TIP3    H252916   4.639   6.297  13.652 -0.6407  0.2778  2.8229
10501TIP3   OH252917   2.168   0.186   6.340 -0.5957 -0.1920 -0.1359
10501TIP3    H152918   2.088   0.137   6.324 -0.5330 -0.1157 -0.7014
10501TIP3    H252919   2.145   0.249   6.409 -1.1673  0.1817 -0.6626
10502TIP3   OH252920   1.277   2.608   5.725  0.5077  0.0417  0.2804
10502TIP3    H152921   1.329   2.678   5.766  0.5731  0.9515 -1.2604
10502TIP3    H252922   1.292   2.531   5.780  2.1530  0.7063  0.8241
10503TIP3   OH252923   2.698   0.297  12.528 -0.6040 -0.2328 -0.0086
10503TIP3    H152924   2.624   0.338  12.484 -0.4555 -0.3662 -0.3892
10503TIP3    H252925   2.774   0.350  12.502 -0.0882 -1.8784 -2.1517
10504TIP3   OH252926   5.254   3.589  15.876  0.2367 -0.0847 -0.1890
10504TIP3    H152927   5.204   3.562  15.953 -0.2122 -0.0802 -0.4823
10504TIP3    H252928   5.299   3.509  15.848  0.7164  0.0018  0.3113
10505TIP3   OH252929   6.742   2.094   3.419 -0.1188  0.8484 -0.2067
10505TIP3    H152930   6.806   2.119   3.353  0.2188 -0.0411 -0.2356
10505TIP3    H252931   6.727   2.173   3.470  3.0639  0.4870  1.5253
10506TIP3   OH252932   0.769   2.406   4.390  0.3484  0.8512  0.2964
10506TIP3    H152933   0.772   2.315   4.361 -0.9358  1.1944 -1.0598
10506TIP3    H252934   0.698   2.408   4.454  0.1564  0.9425  0.0842
10507TIP3   OH252935   4.857   3.379   2.140 -0.1883  0.4001  0.0033
10507TIP3    H152936   4.940   3.399   2.096  0.1720  2.1853  1.3642
10507TIP3    H252937   4.861   3.285   2.158  2.0934  0.6359  1.0418
10508TIP3   OH252938   1.799   0.363  13.418  0.2753 -0.6182 -0.4060
10508TIP3    H152939   1.888   0.385  13.444 -0.2974  1.0968  0.2492
10508TIP3    H252940   1.799   0.370  13.322  0.7730 -0.3162 -0.3865
10509TIP3   OH252941   4.225   4.768  16.227 -0.1594 -0.8601  0.4939
10509TIP3    H152942   4.174   4.688  16.240 -0.4696 -0.5171  1.4095
10509TIP3    H252943   4.313   4.744  16.256 -0.2240 -0.9084  0.6515
10510TIP3   OH252944   3.824   4.068  15.061  0.4167 -0.4347 -0.2051
10510TIP3    H152945   3.803   4.158  15.088 -0.8136 -0.2048 -1.7559
10510TIP3    H252946   3.796   4.014  15.135 -0.4282  0.3449  0.0805
10511TIP3   OH252947   6.600   1.951   0.684  0.1321 -0.2188  0.0527
10511TIP3    H152948   6.665   1.981   0.620 -0.5561  4.0255  1.0660
10511TIP3    H252949   6.524   1.928   0.630  0.6083  0.1559 -0.8080
10512TIP3   OH252950   0.226   5.432  14.435 -0.3931 -0.5342 -0.0856
10512TIP3    H152951   0.274   5.456  14.514  1.6520 -1.4325 -0.9604
10512TIP3    H252952   0.174   5.355  14.460  1.0322 -1.4586  0.1889
10513TIP3   OH252953   6.064   2.817  12.211 -0.0504 -0.0337 -0.4448
10513TIP3    H152954   6.130   2.747  12.213  0.8553  0.8068  0.5767
10513TIP3    H252955   6.082   2.865  12.130  2.9040  2.2222  1.3351
10514TIP3   OH252956   5.790   0.239   0.672 -0.0505 -0.2915  0.4222
10514TIP3    H152957   5.862   0.301   0.662 -1.2067  1.0416  0.1866
10514TIP3    H252958   5.823   0.158   0.631  2.7398 -0.9988  3.5398
10515TIP3   OH252959   6.572   3.819  16.179 -0.4013 -0.1629  0.2427
10515TIP3    H152960   6.665   3.817  16.157 -0.7524 -1.5713 -1.3835
10515TIP3    H252961   6.535   3.883  16.118 -0.7530 -0.9844 -0.4277
10516TIP3   OH252962   6.163   2.273   2.276 -0.1576  0.1179  0.4728
10516TIP3    H152963   6.258   2.267   2.270 -0.3452 -2.5887 -1.7195
10516TIP3    H252964   6.147   2.341   2.342  3.2489  0.4248  1.1445
10517TIP3   OH252965   2.592   6.623  12.645  0.2050  0.3647 -0.2537
10517TIP3    H152966   2.573   6.585  12.559 -1.4812 -0.3742  0.4002
10517TIP3    H252967   2.636   6.706  12.625  1.6265 -0.6871 -1.7636
10518TIP3   OH252968   3.714   2.857   2.718  0.7211  0.2644  0.2220
10518TIP3    H152969   3.799   2.831   2.683  0.5401 -1.4032  0.9401
10518TIP3    H252970   3.653   2.843   2.646  0.6927 -0.9550  0.4694
10519TIP3   OH252971   6.233   3.538  16.132 -1.1740 -0.1063 -0.5782
10519TIP3    H152972   6.200   3.448  16.127 -0.2700 -0.3996 -2.5942
10519TIP3    H252973   6.273   3.544  16.219 -0.7436 -1.8742 -0.6036
10520TIP3   OH252974   5.218   4.888  15.917  0.1131  0.0293  0.6889
10520TIP3    H152975   5.248   4.979  15.915 -0.4352  0.4893  5.0242
10520TIP3    H252976   5.299   4.836  15.917  0.4299  0.3073 -2.3228
10521TIP3   OH252977   6.543   3.376  15.080  0.2447  0.0764 -0.8690
10521TIP3    H152978   6.624   3.366  15.031  0.3797  1.8747 -1.1012
10521TIP3    H252979   6.563   3.441  15.147 -0.5325 -0.7637  0.2050
10522TIP3   OH252980   2.052   2.942   2.156 -0.4470 -0.5470 -0.1068
10522TIP3    H152981   2.121   3.008   2.159 -0.3458 -0.6948  1.8363
10522TIP3    H252982   2.095   2.864   2.121 -0.0752 -0.1682 -0.5053
10523TIP3   OH252983   1.329   5.546  14.756  0.4295 -0.5623  0.2529
10523TIP3    H152984   1.389   5.585  14.819  1.4111 -0.4420 -0.7096
10523TIP3    H252985   1.386   5.516  14.685 -0.6005 -1.0200 -0.4041
10524TIP3   OH252986   4.262   0.215  16.119  0.0326  0.0819 -0.2176
10524TIP3    H152987   4.350   0.251  16.134  0.0011  1.9306 -3.5574
10524TIP3    H252988   4.210   0.248  16.192  1.5730  1.0468  0.5006
10525TIP3   OH252989   0.200   4.054   4.733 -0.5903 -0.5098  0.1902
10525TIP3    H152990   0.206   4.040   4.827  1.9797  0.1664  0.2081
10525TIP3    H252991   0.187   3.967   4.696 -0.8221 -0.8802  1.1163
10526TIP3   OH252992   0.535   4.604  14.248 -0.6688  0.3042 -0.2844
10526TIP3    H152993   0.542   4.688  14.294  0.2851  1.0985 -1.7899
10526TIP3    H252994   0.566   4.539  14.312 -1.7883  1.0266  1.0321
10527TIP3   OH252995   1.361   4.958   1.450 -0.0654 -0.5594  0.3699
10527TIP3    H152996   1.329   5.038   1.491  0.8563 -0.4811  0.9528
10527TIP3    H252997   1.449   4.980   1.418 -0.8899 -0.4951 -2.0475
10528TIP3   OH252998   5.641   5.580   1.171  0.3556 -0.4951  0.0476
10528TIP3    H152999   5.615   5.554   1.259 -0.9410 -0.7334 -0.3951
10528TIP3    H253000   5.571   5.548   1.114  1.8189 -1.5361 -1.2448
10529TIP3   OH253001   2.990   2.160  15.215 -0.0996 -0.3969  0.4236
10529TIP3    H153002   3.011   2.210  15.293  1.2805  0.9418 -0.7453
10529TIP3    H253003   3.022   2.072  15.233  1.1328  0.1512  0.9804
10530TIP3   OH253004   4.358   5.309   5.176  0.2520  0.1082  0.4522
10530TIP3    H153005   4.421   5.240   5.154  1.0834  0.8438  0.4587
10530TIP3    H253006   4.412   5.388   5.188 -0.7854  1.0953 -0.9727
10531TIP3   OH253007   2.757   6.623   3.932  0.1878  0.4318 -0.4218
10531TIP3    H153008   2.682   6.672   3.966 -0.0775  0.9323 -1.6761
10531TIP3    H253009   2.762   6.545   3.988 -1.0882  0.5353 -0.1423
10532TIP3   OH253010   0.474   3.987   1.032  0.1464  0.4812 -0.4958
10532TIP3    H153011   0.502   4.008   1.121  0.1603  0.9842 -0.6163
10532TIP3    H253012   0.444   3.896   1.037 -0.5104  0.7291  0.1709
10533TIP3   OH253013   3.517   2.817   0.162 -0.0318 -0.5152 -0.1833
10533TIP3    H153014   3.531   2.736   0.211  2.9765 -1.2161 -1.9030
10533TIP3    H253015   3.477   2.789   0.080  0.7696 -0.2480 -0.6759
10534TIP3   OH253016   3.925   6.229  12.952  0.4607 -0.3523 -0.0632
10534TIP3    H153017   3.893   6.139  12.941 -1.7868  0.3632  0.0251
10534TIP3    H253018   3.931   6.263  12.863  3.2040 -1.0962 -0.2659
10535TIP3   OH253019   3.521   1.991   4.455  0.2853  0.4867 -0.1558
10535TIP3    H153020   3.497   1.956   4.369 -0.6425 -1.6737  0.8831
10535TIP3    H253021   3.437   2.013   4.496  0.5818 -0.0728  0.7828
10536TIP3   OH253022   2.538   0.226  13.483  0.7091  0.6270 -0.9721
10536TIP3    H153023   2.539   0.159  13.415  0.0670 -1.1015  0.6222
10536TIP3    H253024   2.557   0.178  13.564 -0.4505  2.2648  0.3323
10537TIP3   OH253025   1.016   5.123  17.025  0.1811  0.5303  0.3256
10537TIP3    H153026   1.001   5.113  16.931 -0.5481 -0.6277  0.5466
10537TIP3    H253027   1.088   5.062  17.045  0.4872  0.9390  0.4809
10538TIP3   OH253028   5.352   1.995   2.668 -0.1191 -0.2181 -0.5756
10538TIP3    H153029   5.377   1.915   2.621  1.6694  0.8729 -1.6130
10538TIP3    H253030   5.371   2.066   2.607 -0.3053  1.0917  0.8210
10539TIP3   OH253031   4.547   4.104  11.357  0.2732  0.0873 -0.2034
10539TIP3    H153032   4.524   4.146  11.274 -0.3560  1.2772  0.5436
10539TIP3    H253033   4.486   4.031  11.364  0.3538 -0.0438 -0.7961
10540TIP3   OH253034   3.917   5.459  16.907  0.2694  0.9100  0.5227
10540TIP3    H153035   3.950   5.371  16.891 -2.1136  0.0548 -0.1338
10540TIP3    H253036   3.902   5.462  17.002 -1.9172 -0.3404  0.2830
10541TIP3   OH253037   0.893   2.663   3.247 -0.3357  0.1503 -0.0736
10541TIP3    H153038   0.966   2.625   3.296 -0.2744  1.4832  0.9218
10541TIP3    H253039   0.818   2.609   3.271  0.2955 -1.2800 -1.1614
10542TIP3   OH253040   0.383   5.860  11.278  0.0903 -0.2209 -0.2291
10542TIP3    H153041   0.349   5.877  11.190 -3.5611  2.5209  1.4444
10542TIP3    H253042   0.474   5.890  11.275  0.3095 -0.8539 -3.1424
10543TIP3   OH253043   4.745   6.730   2.662  0.5238 -0.1591  0.0203
10543TIP3    H153044   4.684   6.656   2.667 -0.4525  0.6877  0.9936
10543TIP3    H253045   4.806   6.716   2.734 -1.1980  1.2689  1.8571
10544TIP3   OH253046   6.054   0.115  15.476  0.3175 -0.1419  0.0942
10544TIP3    H153047   6.109   0.192  15.483  1.1468 -0.8520  2.9522
10544TIP3    H253048   6.099   0.057  15.415 -0.5599  1.7052 -2.4652
10545TIP3   OH253049   6.338   4.073  13.061 -0.0930  0.4461 -0.4419
10545TIP3    H153050   6.355   4.160  13.097  0.3603  1.6174 -3.1691
10545TIP3    H253051   6.424   4.031  13.059  0.5932  1.7475 -3.1863
10546TIP3   OH253052   1.758   0.270   0.967 -1.1962 -0.6224  0.0889
10546TIP3    H153053   1.764   0.318   1.049 -0.6288 -2.1585  0.9840
10546TIP3    H253054   1.664   0.262   0.950 -1.3521 -1.2071  1.1630
10547TIP3   OH253055   6.040   0.348  14.776 -0.9255  0.2850 -0.0861
10547TIP3    H153056   5.987   0.275  14.744 -0.2055 -0.0610 -0.5187
10547TIP3    H253057   6.015   0.422  14.721  1.1106 -0.5559 -2.3600
10548TIP3   OH253058   3.964   3.601   5.535 -0.1435 -0.1800  0.2116
10548TIP3    H153059   4.032   3.667   5.518 -0.4913  0.1883  0.2190
10548TIP3    H253060   3.968   3.541   5.461  0.6540 -0.5552  0.5563
10549TIP3   OH253061   4.515   5.816  16.448  0.4062 -0.1947 -0.2268
10549TIP3    H153062   4.561   5.900  16.444 -0.6210  0.3668 -0.7595
10549TIP3    H253063   4.578   5.752  16.413  0.8828  0.5017 -0.6733
10550TIP3   OH253064   4.027   0.904   0.041  0.0028  0.5004 -0.6672
10550TIP3    H153065   4.035   0.854  -0.041  0.8022 -1.7569  0.7049
10550TIP3    H253066   3.935   0.928   0.045 -0.2198 -0.0665 -1.8240
10551TIP3   OH253067   3.476   3.341   1.928  0.3199 -1.1958 -0.4121
10551TIP3    H153068   3.572   3.349   1.923  0.2837 -1.1256 -1.1347
10551TIP3    H253069   3.444   3.402   1.861 -0.2753 -0.3194  0.6504
10552TIP3   OH253070   3.919   2.664  17.061  0.6717  0.6791  0.6512
10552TIP3    H153071   3.850   2.611  17.100  0.5269  1.4426  1.4809
10552TIP3    H253072   3.959   2.607  16.996 -0.5411  0.1209  0.3614
10553TIP3   OH253073   4.155   3.482  12.565  0.5486  0.5471  0.8514
10553TIP3    H153074   4.127   3.441  12.647 -0.8221 -0.4948 -0.0793
10553TIP3    H253075   4.073   3.498  12.517  1.3585 -2.4194 -1.9308
10554TIP3   OH253076   0.684   2.243   6.310 -0.2752  0.5241  0.2117
10554TIP3    H153077   0.626   2.317   6.325 -1.6134 -0.3507 -0.4179
10554TIP3    H253078   0.628   2.166   6.324  0.8251 -0.3499 -0.0831
10555TIP3   OH253079   5.726   1.467   0.042  0.1851 -0.1773  0.2829
10555TIP3    H153080   5.765   1.453   0.129 -0.1189  2.3228  0.9053
10555TIP3    H253081   5.786   1.527  -0.001 -0.9251  0.5488 -0.2800
10556TIP3   OH253082   2.012   0.010  14.837  0.1957 -0.5159  0.2767
10556TIP3    H153083   2.013   0.046  14.926  2.2233 -0.7073  0.3762
10556TIP3    H253084   1.941  -0.054  14.838  0.0812 -0.4030  1.7268
10557TIP3   OH253085   1.512   3.506   0.483  0.8075 -0.4520 -0.3483
10557TIP3    H153086   1.444   3.573   0.487  1.6737  0.4122  0.2003
10557TIP3    H253087   1.475   3.431   0.529  0.0334 -0.1729 -0.5067
10558TIP3   OH253088   5.482   4.274  13.820 -0.0970  0.0370 -0.4808
10558TIP3    H153089   5.387   4.274  13.832 -0.0031 -0.0315  0.3609
10558TIP3    H253090   5.505   4.365  13.807 -0.4104 -0.0729 -1.9185
10559TIP3   OH253091   6.085   2.655  12.717 -0.2460  0.2345 -0.6992
10559TIP3    H153092   6.120   2.651  12.628 -1.4214  1.6906 -1.2919
10559TIP3    H253093   6.006   2.709  12.708 -0.9727 -0.4803  1.0539
10560TIP3   OH253094   0.624   2.784   5.102  0.4217  0.0390  0.1911
10560TIP3    H153095   0.612   2.706   5.156 -1.3359  1.2365  1.6471
10560TIP3    H253096   0.705   2.823   5.134  0.7322 -0.5883  0.1984
10561TIP3   OH253097   3.197   6.049   0.886 -0.4541 -0.3233  0.1290
10561TIP3    H153098   3.186   6.026   0.794 -0.3825  0.1122  0.0094
10561TIP3    H253099   3.109   6.042   0.923 -1.0507  2.2152 -0.6119
10562TIP3   OH253100   2.659   3.201   1.629 -0.2586  0.2303  0.3054
10562TIP3    H153101   2.567   3.227   1.619 -0.3662 -0.4607 -0.6569
10562TIP3    H253102   2.656   3.106   1.636  0.3960  0.1936  0.0887
10563TIP3   OH253103   4.426   1.413   5.766  0.2466  0.2276 -0.0795
10563TIP3    H153104   4.491   1.369   5.821 -0.3456  0.9530  1.2605
10563TIP3    H253105   4.343   1.369   5.788 -0.0353  0.6923 -0.1881
10564TIP3   OH253106   4.719   3.544   0.580  0.1159  0.3997 -0.6841
10564TIP3    H153107   4.738   3.614   0.517  2.6154  0.4826  0.0396
10564TIP3    H253108   4.635   3.568   0.619 -0.8760  1.0282 -3.0127
10565TIP3   OH253109   0.846   4.359  16.821 -0.0953 -0.1133  0.2907
10565TIP3    H153110   0.821   4.312  16.901  0.0713  2.0434  1.6958
10565TIP3    H253111   0.940   4.342  16.812 -0.2711 -1.0016  0.1048
10566TIP3   OH253112   6.419   4.193  12.036  0.1543  0.2600  0.3119
10566TIP3    H153113   6.424   4.281  11.997 -2.4343  1.1679  1.7780
10566TIP3    H253114   6.498   4.187  12.091  2.3726  0.0523 -2.6626
10567TIP3   OH253115   6.433   3.459  15.562 -0.0311  0.1014  0.0845
10567TIP3    H153116   6.445   3.512  15.484 -1.6108 -0.8157 -0.8520
10567TIP3    H253117   6.339   3.440  15.563 -0.0596  0.1161  2.2439
10568TIP3   OH253118   0.809   3.491  14.669  0.1463  0.2281  0.0665
10568TIP3    H153119   0.720   3.525  14.664 -0.0449  0.0191  1.4482
10568TIP3    H253120   0.808   3.433  14.745  1.6858  0.9733  0.7073
10569TIP3   OH253121   6.424   1.478   2.987  0.3224 -0.5131 -0.2892
10569TIP3    H153122   6.508   1.481   3.032  0.5111 -2.8829 -0.3299
10569TIP3    H253123   6.446   1.475   2.894  0.1613 -0.3697 -0.3327
10570TIP3   OH253124   6.139   6.556  15.584  0.1544 -0.4728 -0.1927
10570TIP3    H153125   6.186   6.477  15.611  0.4803  0.3387  1.7989
10570TIP3    H253126   6.059   6.555  15.636 -0.0671  0.2636 -0.5098
10571TIP3   OH253127   6.152   5.631  13.625 -0.3079 -0.2527  0.2704
10571TIP3    H153128   6.118   5.689  13.557  0.3937  0.6172  0.6474
10571TIP3    H253129   6.205   5.567  13.578 -0.6091 -0.2399 -0.0923
10572TIP3   OH253130   4.435   6.241  10.451 -0.7549  0.0625  0.6114
10572TIP3    H153131   4.509   6.288  10.492 -1.3057  2.0103 -0.4761
10572TIP3    H253132   4.433   6.275  10.361 -0.8246 -2.5890 -0.4583
10573TIP3   OH253133   3.781   1.064  14.295  0.2325  0.6456  0.0930
10573TIP3    H153134   3.862   1.013  14.297 -0.1945 -0.0574 -0.2128
10573TIP3    H253135   3.765   1.088  14.386  1.5699  2.0668 -0.0035
10574TIP3   OH253136   4.009   4.073  12.201  0.0779 -0.0124  0.1586
10574TIP3    H153137   4.028   4.114  12.285 -0.5770 -0.2656  0.4326
10574TIP3    H253138   3.913   4.075  12.194  0.0950 -0.5856 -0.2798
10575TIP3   OH253139   2.885   3.924   3.619  0.3161 -0.2915  0.0254
10575TIP3    H153140   2.852   3.921   3.709 -2.9153  0.9347 -0.9789
10575TIP3    H253141   2.913   4.014   3.607 -1.1200  0.0893 -0.7123
10576TIP3   OH253142   5.866   4.419  12.754  0.4675 -0.2415  0.4797
10576TIP3    H153143   5.879   4.376  12.839  0.9270 -0.5539  0.2546
10576TIP3    H253144   5.786   4.470  12.765  0.9376  0.3479  1.3523
10577TIP3   OH253145   5.933   5.780  16.603  0.4558  0.2827 -0.4557
10577TIP3    H153146   5.985   5.812  16.677  0.2418 -0.2823 -0.0555
10577TIP3    H253147   5.972   5.696  16.580 -1.0293 -0.7751  0.6777
10578TIP3   OH253148   5.406   2.771   0.324 -0.1308  0.3429 -0.1553
10578TIP3    H153149   5.358   2.762   0.241 -1.7005  2.2500  0.4566
10578TIP3    H253150   5.475   2.706   0.319 -0.1761  0.3791 -2.9840
10579TIP3   OH253151   3.814   1.016   0.532 -0.1961  0.0881 -0.1273
10579TIP3    H153152   3.824   0.950   0.464  0.7132 -1.3696  1.3422
10579TIP3    H253153   3.904   1.048   0.546 -0.5652  1.3403 -0.5123
10580TIP3   OH253154   6.568   0.929   1.976  0.1338  0.4998 -0.4408
10580TIP3    H153155   6.647   0.888   1.940 -0.6758 -1.2250 -0.3075
10580TIP3    H253156   6.538   0.987   1.905  1.7650  1.5901 -0.3006
10581TIP3   OH253157   4.218   1.423   2.522 -0.3145  0.7960 -0.6197
10581TIP3    H153158   4.266   1.430   2.440 -0.5878  0.8929 -0.7742
10581TIP3    H253159   4.283   1.393   2.586  0.8235  4.0970 -0.0321
10582TIP3   OH253160   0.083   2.838   2.996  0.1934 -0.3716  0.5678
10582TIP3    H153161   0.056   2.795   3.077  2.0050  0.7714  1.8506
10582TIP3    H253162   0.097   2.929   3.021  6.0353 -0.8538  0.5188
10583TIP3   OH253163   6.435   2.197  14.910  0.1684 -0.5140 -0.1777
10583TIP3    H153164   6.400   2.205  14.821  0.2327 -0.9001 -0.2414
10583TIP3    H253165   6.403   2.275  14.955 -0.4292 -0.6522 -0.3492
10584TIP3   OH253166   2.038   6.441   6.591 -0.7941  0.2761 -0.6967
10584TIP3    H153167   2.073   6.388   6.520  0.5803  0.1517  0.0411
10584TIP3    H253168   2.043   6.385   6.668  0.0111  1.2043 -0.0414
10585TIP3   OH253169   2.543   0.691  14.085  0.1663  0.4079 -0.1573
10585TIP3    H153170   2.492   0.713  14.007 -0.7151  1.3649  0.6673
10585TIP3    H253171   2.626   0.737  14.073  0.1079  0.3966 -0.6152
10586TIP3   OH253172   6.418   0.990   3.722  0.0552 -0.9638 -0.5807
10586TIP3    H153173   6.417   0.972   3.628  0.3444 -0.6521 -0.6470
10586TIP3    H253174   6.486   1.056   3.732 -0.3266 -0.6240 -0.2162
10587TIP3   OH253175   5.387   5.695   0.483  0.0535  0.3403  0.5243
10587TIP3    H153176   5.429   5.608   0.488  1.5016  1.0024  0.3982
10587TIP3    H253177   5.307   5.680   0.432  0.7643 -0.7632 -0.3244
10588TIP3   OH253178   6.422   1.789   3.113  0.4400 -0.0424  0.2081
10588TIP3    H153179   6.506   1.743   3.120  0.5766  0.1894  0.1099
10588TIP3    H253180   6.359   1.730   3.155  1.0307  0.7759  2.3927
10589TIP3   OH253181   6.397   3.525  14.672  0.6694 -0.3571  0.3062
10589TIP3    H153182   6.424   3.592  14.735  0.3933  0.7093 -0.6721
10589TIP3    H253183   6.336   3.570  14.614  0.9179 -1.3041 -0.7307
10590TIP3   OH253184   3.730   5.268  11.249 -0.1112  0.0072  0.1499
10590TIP3    H153185   3.710   5.208  11.321 -0.2448  1.6229  1.5395
10590TIP3    H253186   3.679   5.236  11.175  0.0081 -1.6957  0.7643
10591TIP3   OH253187   4.315   3.935  11.297  0.2271  0.0487 -0.0326
10591TIP3    H153188   4.227   3.896  11.297  1.1855 -2.3252 -1.5913
10591TIP3    H253189   4.308   4.009  11.237 -0.8509  0.3297  0.4034
10592TIP3   OH253190   1.999   0.196   5.249 -0.4506  0.3418 -0.4495
10592TIP3    H153191   2.079   0.243   5.229  0.7651 -1.2881  0.3436
10592TIP3    H253192   1.986   0.137   5.174  0.3095 -0.8995  0.3617
10593TIP3   OH253193   5.235   5.041  12.375  0.0213  0.3271 -0.1364
10593TIP3    H153194   5.228   5.027  12.470  0.7836  1.0661  0.0447
10593TIP3    H253195   5.315   5.092  12.365  0.5177 -0.6422 -1.2934
10594TIP3   OH253196   6.419   0.616  15.657  0.0685 -1.2837  0.4003
10594TIP3    H153197   6.491   0.593  15.599  0.3612 -0.0494  0.2431
10594TIP3    H253198   6.462   0.643  15.739  0.0067  1.8525 -0.4839
10595TIP3   OH253199   2.121   4.847  15.175 -0.3258  0.2702 -0.3109
10595TIP3    H153200   2.136   4.941  15.185 -2.6107  0.8054 -1.3721
10595TIP3    H253201   2.183   4.820  15.107  1.9867  0.4478  1.5922
10596TIP3   OH253202   1.303   2.694  13.043 -0.0040  0.0826  0.1784
10596TIP3    H153203   1.315   2.599  13.041 -0.0810  0.0449 -2.3764
10596TIP3    H253204   1.392   2.729  13.040 -0.0095  0.0731 -0.0973
10597TIP3   OH253205   5.019   0.370  15.365 -0.3888 -0.0350 -0.1997
10597TIP3    H153206   5.020   0.413  15.279  0.0546  0.3391 -0.0094
10597TIP3    H253207   5.028   0.276  15.345 -1.5473 -0.0740 -0.6254
10598TIP3   OH253208   1.634   3.217  11.581  0.1896 -0.3779  0.4179
10598TIP3    H153209   1.597   3.130  11.564  0.6833 -0.5046 -0.0310
10598TIP3    H253210   1.728   3.204  11.580  0.2681  0.1757  0.2623
10599TIP3   OH253211   0.528   1.426   1.292  0.3708 -0.3238 -0.0110
10599TIP3    H153212   0.485   1.510   1.276  1.3588  0.7310  2.3368
10599TIP3    H253213   0.618   1.439   1.262  0.4526 -0.6500  0.0809
10600TIP3   OH253214   4.688   3.289  15.298  0.9666 -0.4463  0.2294
10600TIP3    H153215   4.710   3.216  15.357 -0.7533 -0.5228  0.8091
10600TIP3    H253216   4.742   3.362  15.330  0.0336 -0.4646  1.9685
10601TIP3   OH253217   5.206   0.134  14.014  0.0760  0.1130 -0.3791
10601TIP3    H153218   5.216   0.150  14.108  1.8828 -1.4292 -0.2750
10601TIP3    H253219   5.227   0.219  13.974  0.3205  0.5108  0.5501
10602TIP3   OH253220   2.832   6.513   4.576 -0.0885  0.2053 -0.5888
10602TIP3    H153221   2.820   6.503   4.482 -1.5883 -2.1956 -0.2313
10602TIP3    H253222   2.769   6.580   4.602 -0.2562  0.2790 -1.1843
10603TIP3   OH253223   1.741   6.232  13.245 -0.4142 -0.0241  0.3769
10603TIP3    H153224   1.776   6.288  13.175  0.0009 -1.0093 -0.2157
10603TIP3    H253225   1.685   6.291  13.296 -0.7701  0.7093 -0.8073
10604TIP3   OH253226   1.835   6.748   3.525 -0.5226 -0.2466  0.1347
10604TIP3    H153227   1.761   6.711   3.572  0.1301 -3.0394 -0.8120
10604TIP3    H253228   1.812   6.738   3.432  2.0293 -3.9724 -0.3374
10605TIP3   OH253229   3.963   4.156  15.509 -0.0439  0.8141 -0.1369
10605TIP3    H153230   3.958   4.222  15.579  0.2188 -0.1831  0.8577
10605TIP3    H253231   4.028   4.093  15.541  1.2963  1.1652 -2.0118
10606TIP3   OH253232   3.711   4.596   4.392 -0.4792 -0.2036  0.0668
10606TIP3    H153233   3.700   4.574   4.484 -0.1331 -1.0307 -0.0828
10606TIP3    H253234   3.719   4.692   4.391  2.1937 -0.3349  1.2014
10607TIP3   OH253235   1.741   4.317   3.863  0.1065 -0.2080 -0.1800
10607TIP3    H153236   1.732   4.411   3.877  1.4243  0.0001 -0.5692
10607TIP3    H253237   1.830   4.297   3.892 -0.5151 -1.5500  0.9173
10608TIP3   OH253238   2.585   2.561   6.167  0.9877 -0.3854  0.2714
10608TIP3    H153239   2.672   2.523   6.160  1.3956  0.3444  1.1384
10608TIP3    H253240   2.556   2.539   6.256 -0.5387 -2.2664 -0.5911
10609TIP3   OH253241   3.395   5.978   1.590 -0.3032 -0.4882  0.0414
10609TIP3    H153242   3.339   5.989   1.513  0.5580  1.4987 -0.3661
10609TIP3    H253243   3.469   6.037   1.574  1.1548 -1.8920  1.2610
10610TIP3   OH253244   1.501   1.517   6.100 -0.0590  0.8645 -0.3989
10610TIP3    H153245   1.429   1.506   6.038 -1.2029 -1.0651  1.1526
10610TIP3    H253246   1.458   1.519   6.186  1.6720  0.7230  0.5060
10611TIP3   OH253247   5.180   6.641  13.460 -0.3798  0.1634 -0.4842
10611TIP3    H153248   5.203   6.668  13.550 -1.1787  1.4489 -0.6424
10611TIP3    H253249   5.248   6.682  13.406  0.4372 -1.0825 -0.4492
10612TIP3   OH253250   0.106   2.752   2.132  0.2043  0.0618 -0.4071
10612TIP3    H153251   0.078   2.660   2.123 -1.4358  0.4168  0.8067
10612TIP3    H253252   0.111   2.767   2.226 -0.9239  1.6053 -0.5537
10613TIP3   OH253253   2.572   2.962  12.844 -0.0360  0.1261  0.2678
10613TIP3    H153254   2.579   2.987  12.937  1.4591 -1.9490  0.7966
10613TIP3    H253255   2.557   2.868  12.846  1.5300 -0.2203 -1.6042
10614TIP3   OH253256   2.787   2.882  16.616 -0.3654  0.1651  0.2271
10614TIP3    H153257   2.874   2.921  16.632 -0.2372 -0.1409  0.2841
10614TIP3    H253258   2.727   2.956  16.618 -0.4244  0.1471  2.5808
10615TIP3   OH253259   5.279   3.952  11.275  0.1735  0.1053  0.1884
10615TIP3    H153260   5.220   3.879  11.253  1.3959 -0.3746 -1.7120
10615TIP3    H253261   5.362   3.910  11.296  0.8697  0.9237 -0.8564
10616TIP3   OH253262   0.337   4.572   1.121  0.1219 -0.2539  0.5504
10616TIP3    H153263   0.328   4.667   1.114 -0.0365 -0.3595 -1.1808
10616TIP3    H253264   0.431   4.556   1.109  0.2125 -0.2871  1.2963
10617TIP3   OH253265   4.571   6.180  13.366  0.3879 -0.0229 -0.0606
10617TIP3    H153266   4.591   6.143  13.280  1.1740  2.0728 -0.8436
10617TIP3    H253267   4.650   6.166  13.418 -0.0339 -1.1586  0.2942
10618TIP3   OH253268   4.364   1.537  16.778 -0.0538 -0.5180 -0.1319
10618TIP3    H153269   4.432   1.528  16.844 -0.0145  1.2661  0.1089
10618TIP3    H253270   4.403   1.501  16.698  0.6437 -0.8076  0.3318
10619TIP3   OH253271   6.451   1.411  11.153 -0.3122 -0.0564 -0.1045
10619TIP3    H153272   6.420   1.346  11.090 -0.5280 -0.4469  0.4030
10619TIP3    H253273   6.546   1.409  11.144 -0.3727  0.6149 -1.1350
10620TIP3   OH253274   0.957   6.721  16.008 -0.2390  0.1457 -0.1440
10620TIP3    H153275   0.884   6.684  15.959  0.3618 -0.0460 -0.9017
10620TIP3    H253276   0.964   6.811  15.976 -0.4942  0.3428  0.3384
10621TIP3   OH253277   3.606   1.908  13.457 -0.0961 -0.0381 -0.1137
10621TIP3    H153278   3.628   1.987  13.406 -1.9319  0.4215 -0.2960
10621TIP3    H253279   3.553   1.855  13.397 -0.3111 -0.6044  0.5598
10622TIP3   OH253280   5.834   2.293  16.996  0.0658  0.7900 -0.3978
10622TIP3    H153281   5.756   2.261  17.042  0.6188 -0.0540 -0.0266
10622TIP3    H253282   5.877   2.350  17.060  1.9683 -2.0215  1.0493
10623TIP3   OH253283   5.328   6.196   1.590 -0.3575 -0.0583 -0.5015
10623TIP3    H153284   5.377   6.114   1.597 -1.9839 -0.9316  1.6545
10623TIP3    H253285   5.347   6.243   1.671 -1.2333  0.6485 -0.6845
10624TIP3   OH253286   2.543   2.867   3.625 -0.0018  0.1642  0.0805
10624TIP3    H153287   2.550   2.772   3.624 -1.6556 -0.0024  0.6993
10624TIP3    H253288   2.547   2.893   3.533 -0.2870 -0.5795 -0.1450
10625TIP3   OH253289   2.766   4.427  16.433 -0.1186 -0.3151 -0.2895
10625TIP3    H153290   2.744   4.366  16.503 -0.7537  0.6737  0.3963
10625TIP3    H253291   2.857   4.407  16.411 -0.2622 -1.3685  0.0515
10626TIP3   OH253292   0.252   4.898  14.823 -0.3951 -0.0770 -0.0968
10626TIP3    H153293   0.269   4.868  14.734 -0.6170  0.2573 -0.2529
10626TIP3    H253294   0.310   4.974  14.834 -0.6768  0.1392 -0.1031
10627TIP3   OH253295   3.289   3.508  10.775  0.4236  0.5147 -0.4326
10627TIP3    H153296   3.366   3.532  10.826  1.3463  2.0830 -2.4053
10627TIP3    H253297   3.304   3.416  10.752  0.5929  0.1610  1.0398
10628TIP3   OH253298   1.316   4.353  15.541 -0.1089 -0.3342  0.1738
10628TIP3    H153299   1.230   4.313  15.532  0.3154 -1.2520  0.0936
10628TIP3    H253300   1.339   4.380  15.452 -0.9274  1.2433  0.4184
10629TIP3   OH253301   3.153   1.752   1.464  0.5019  0.2339  0.1108
10629TIP3    H153302   3.093   1.763   1.389  0.8784 -0.0390 -0.2319
10629TIP3    H253303   3.223   1.815   1.447 -0.3941  1.6124  1.2505
10630TIP3   OH253304   4.607   5.112   1.211 -0.1889  0.1905  0.2288
10630TIP3    H153305   4.553   5.133   1.135  1.1483  1.8392 -0.3132
10630TIP3    H253306   4.559   5.149   1.285 -0.9050 -0.3771  0.0676
10631TIP3   OH253307   2.036   6.773  11.612  0.2158 -0.1783  0.3930
10631TIP3    H153308   2.080   6.723  11.680 -1.1592 -0.0014  1.4346
10631TIP3    H253309   1.943   6.770  11.634 -0.5859 -1.8424 -2.5863
10632TIP3   OH253310   5.723   6.679  14.121  0.5286  0.4477  0.5398
10632TIP3    H153311   5.743   6.617  14.050 -1.0061 -1.2530  1.5195
10632TIP3    H253312   5.809   6.707  14.153  1.2494 -0.0769 -0.8683
10633TIP3   OH253313   5.281   0.829  16.160 -0.3072 -0.8461 -0.0074
10633TIP3    H153314   5.217   0.871  16.103 -1.3285 -1.3441  0.7551
10633TIP3    H253315   5.366   0.850  16.120 -0.8060  1.3659 -0.0396
10634TIP3   OH253316   1.190   2.826   5.566  0.1213  0.5697 -0.0876
10634TIP3    H153317   1.274   2.872   5.554  1.0948 -1.5471 -2.1141
10634TIP3    H253318   1.214   2.747   5.614 -0.7467  0.0488 -0.5002
10635TIP3   OH253319   4.663   0.635   2.822  1.1105 -0.3212  0.1829
10635TIP3    H153320   4.637   0.627   2.730  1.0727 -2.0312  0.3118
10635TIP3    H253321   4.611   0.708   2.855 -1.0473 -1.4984 -0.4398
10636TIP3   OH253322   0.260   1.886  14.397 -0.0303  0.0893 -0.0358
10636TIP3    H153323   0.204   1.833  14.453  0.5365  0.4548  0.9085
10636TIP3    H253324   0.233   1.976  14.415 -0.9313  0.1528 -1.5661
10637TIP3   OH253325   4.058   0.345   4.144 -0.6030  0.3077  0.8197
10637TIP3    H153326   4.039   0.273   4.204 -2.9055  1.7145  1.8859
10637TIP3    H253327   4.105   0.303   4.071  0.1333 -1.8542  2.4129
10638TIP3   OH253328   3.696   3.057   0.176 -0.2622  0.1280 -0.2613
10638TIP3    H153329   3.694   2.967   0.209  1.3146  0.8188  1.9849
10638TIP3    H253330   3.763   3.056   0.108  0.9122 -0.1102  0.8587
10639TIP3   OH253331   0.425   3.689  12.877  0.4122  0.1409  0.5238
10639TIP3    H153332   0.367   3.690  12.801 -0.2653 -0.1969  1.0233
10639TIP3    H253333   0.470   3.605  12.872  1.1904  0.5735 -0.0902
10640TIP3   OH253334   4.248   0.694   2.619  0.2492  0.1947  0.4201
10640TIP3    H153335   4.308   0.650   2.560 -0.2737  0.1564 -0.0914
10640TIP3    H253336   4.255   0.787   2.596  0.7531  0.2968  0.9529
10641TIP3   OH253337   4.188   5.445  14.249 -0.1366  0.1500  0.2797
10641TIP3    H153338   4.110   5.447  14.194  0.1647 -0.2382 -0.1711
10641TIP3    H253339   4.199   5.535  14.279 -1.3061  0.0280  1.1376
10642TIP3   OH253340   2.682   3.388   0.235  0.4204  0.4777 -0.0834
10642TIP3    H153341   2.598   3.417   0.270 -0.1860 -1.2976 -0.0062
10642TIP3    H253342   2.698   3.303   0.276  1.2626 -0.1611 -1.6441
10643TIP3   OH253343   0.675   1.040  11.255 -0.5360  0.5201 -0.6174
10643TIP3    H153344   0.745   1.040  11.322 -0.3196  0.0596 -0.8410
10643TIP3    H253345   0.597   1.012  11.303 -0.4071  0.3063 -0.5287
10644TIP3   OH253346   6.235   2.449   5.715  0.3391 -0.0543 -0.0983
10644TIP3    H153347   6.292   2.434   5.790  1.6216 -2.4400 -1.4399
10644TIP3    H253348   6.164   2.503   5.750  0.1147 -2.1558  3.2221
10645TIP3   OH253349   4.782   5.965   0.364  0.0901  0.3787  0.1939
10645TIP3    H153350   4.762   5.953   0.457  0.2363  1.6378  0.3985
10645TIP3    H253351   4.763   6.057   0.347  0.2957  0.2172 -0.9724
10646TIP3   OH253352   3.083   0.158   5.258 -0.2193  0.4427 -0.2459
10646TIP3    H153353   3.081   0.069   5.223  1.5394  0.8798 -1.5971
10646TIP3    H253354   3.003   0.198   5.224 -0.0670 -0.0614 -1.2527
10647TIP3   OH253355   0.402   4.804   4.895  0.1652 -0.6665  0.4580
10647TIP3    H153356   0.308   4.819   4.888 -0.1678 -2.3430  0.9424
10647TIP3    H253357   0.433   4.873   4.954 -0.7294 -0.0765  0.2673
10648TIP3   OH253358   6.808   0.746   0.640 -0.8083 -0.1229  0.1073
10648TIP3    H153359   6.830   0.826   0.593 -1.2048  0.7206  1.3008
10648TIP3    H253360   6.891   0.717   0.678 -0.9145  0.5711  0.9040
10649TIP3   OH253361   4.003   2.893   0.133 -0.2698 -0.4830 -0.0799
10649TIP3    H153362   3.992   2.843   0.052 -0.0699  0.3082 -0.6046
10649TIP3    H253363   4.095   2.921   0.132 -0.6089  0.6702 -0.2597
10650TIP3   OH253364   2.228   5.419  15.252 -0.6533 -0.3695  0.1089
10650TIP3    H153365   2.138   5.401  15.226  0.1006 -2.5304 -1.2963
10650TIP3    H253366   2.233   5.389  15.343 -1.6054  0.7720  0.5459
10651TIP3   OH253367   3.450   6.233   2.067 -0.3333 -0.3335  0.2339
10651TIP3    H153368   3.407   6.310   2.103 -0.2387 -0.2592  0.1867
10651TIP3    H253369   3.406   6.159   2.109 -2.1229 -0.3499 -1.5335
10652TIP3   OH253370   0.430   2.710  16.202 -0.4482  0.8775 -0.3173
10652TIP3    H153371   0.474   2.630  16.175 -2.1426 -0.6189  1.1506
10652TIP3    H253372   0.500   2.766  16.235  0.8674  0.3823 -2.0906
10653TIP3   OH253373   6.373   4.981  16.603  0.5367 -0.5488  0.2787
10653TIP3    H153374   6.400   5.065  16.564  0.2177 -1.1772 -1.3893
10653TIP3    H253375   6.289   4.963  16.563  0.8244 -1.8994  0.2514
10654TIP3   OH253376   3.693   3.472  13.609 -0.1907 -0.4386 -0.8275
10654TIP3    H153377   3.702   3.491  13.515 -0.0550  0.4585 -0.6428
10654TIP3    H253378   3.764   3.411  13.628 -1.4500 -2.2848 -1.7194
10655TIP3   OH253379   0.919   4.846  12.852  0.2469 -0.4793 -0.6629
10655TIP3    H153380   1.012   4.838  12.830  0.7921  0.4887  1.0919
10655TIP3    H253381   0.909   4.791  12.930 -0.9288 -1.4156 -1.4334
10656TIP3   OH253382   5.370   5.215  13.136  0.0404  0.9263 -0.4874
10656TIP3    H153383   5.412   5.138  13.096  2.3721  0.0903  3.0686
10656TIP3    H253384   5.438   5.282  13.136 -0.2295  1.2352  0.9920
10657TIP3   OH253385   2.687   5.866  14.971  0.2925  0.6353 -0.4037
10657TIP3    H153386   2.596   5.851  14.995  0.7166 -0.4944  0.6426
10657TIP3    H253387   2.728   5.898  15.051  0.7398  1.5691 -0.9854
10658TIP3   OH253388   3.343   1.798   0.608 -0.4077  0.1495 -0.2874
10658TIP3    H153389   3.430   1.785   0.644 -0.8318 -2.5440 -0.0067
10658TIP3    H253390   3.352   1.873   0.549  1.3877  1.7203  1.8320
10659TIP3   OH253391   6.588   4.729   4.531 -0.2760 -0.2238 -0.7509
10659TIP3    H153392   6.646   4.803   4.510 -0.0805  0.1581  0.9995
10659TIP3    H253393   6.524   4.765   4.593 -0.3087 -1.4618 -0.0273
10660TIP3   OH253394   6.165   4.413   6.121  0.5539 -0.3946  0.0110
10660TIP3    H153395   6.083   4.451   6.153  0.5427  0.3399 -0.8565
10660TIP3    H253396   6.231   4.439   6.186  0.1942 -0.6025  0.4678
10661TIP3   OH253397   4.020   1.058   1.553 -0.1533  0.0162  0.2907
10661TIP3    H153398   4.071   0.996   1.606 -1.2341  0.1950  1.5968
10661TIP3    H253399   3.988   1.005   1.480 -0.3123 -0.7633  0.9032
10662TIP3   OH253400   1.956   3.336   4.437 -0.3317  0.0835  0.2549
10662TIP3    H153401   1.936   3.251   4.476  0.9843 -0.3067  0.1262
10662TIP3    H253402   2.024   3.317   4.373 -2.4102  0.6994 -2.3143
10663TIP3   OH253403   3.008   4.695  15.599 -0.1710  0.1766  0.4525
10663TIP3    H153404   3.042   4.745  15.673 -1.6848  0.9716  0.6610
10663TIP3    H253405   3.068   4.714  15.527  0.7921  0.1396  1.2324
10664TIP3   OH253406   6.389   0.199   3.398 -0.3874  0.1599 -0.4146
10664TIP3    H153407   6.419   0.108   3.393  2.8165  1.0759 -0.3252
10664TIP3    H253408   6.412   0.237   3.313 -0.3767  1.2014  0.0370
10665TIP3   OH253409   2.276   2.539   1.769 -0.0142  0.5563  0.1126
10665TIP3    H153410   2.293   2.461   1.822 -0.1532  0.0916 -0.5111
10665TIP3    H253411   2.325   2.609   1.812  3.0405 -0.5680 -1.2524
10666TIP3   OH253412   2.152   6.180   5.463  0.1867  0.8318 -0.6505
10666TIP3    H153413   2.085   6.216   5.520  0.1290  0.8582 -0.7346
10666TIP3    H253414   2.210   6.131   5.521  0.5332  1.4519 -0.4652
10667TIP3   OH253415   0.673   4.015  13.253  0.3185  0.2347  0.6237
10667TIP3    H153416   0.751   4.070  13.263  1.9898 -1.8155 -0.3937
10667TIP3    H253417   0.609   4.073  13.212  1.9049  1.5311 -0.1638
10668TIP3   OH253418   2.860   2.518   0.153  0.3825  0.0929  0.4316
10668TIP3    H153419   2.925   2.552   0.091  1.1716 -2.0229  0.0170
10668TIP3    H253420   2.866   2.576   0.229  1.6256  0.8838 -0.2421
10669TIP3   OH253421   0.231   2.370  13.471  0.5977 -0.5662 -0.0868
10669TIP3    H153422   0.213   2.307  13.402 -0.7554 -0.7382  0.3884
10669TIP3    H253423   0.264   2.317  13.544 -0.2231 -0.6947  0.1986
10670TIP3   OH253424   5.656   3.895  15.028 -0.3585 -1.2923  0.2391
10670TIP3    H153425   5.746   3.867  15.014  0.2477  0.3018  0.6435
10670TIP3    H253426   5.602   3.830  14.983  1.0578 -1.4990 -1.2323
10671TIP3   OH253427   1.255   1.035   1.676 -0.3664 -0.3338  0.0530
10671TIP3    H153428   1.334   1.068   1.718 -0.4903 -3.2503  2.9826
10671TIP3    H253429   1.184   1.069   1.730 -1.1696  1.3685 -1.9235
10672TIP3   OH253430   3.712   1.073  15.424 -0.3908  0.6914 -0.2480
10672TIP3    H153431   3.807   1.081  15.439 -0.5631  0.4929  1.0189
10672TIP3    H253432   3.684   1.162  15.404 -0.3287  1.2568  1.9091
10673TIP3   OH253433   1.787   2.330  10.640  1.2240 -0.6120  0.0524
10673TIP3    H153434   1.791   2.372  10.554 -1.5457  0.8745  0.5490
10673TIP3    H253435   1.751   2.243  10.623 -0.5361  0.1359 -0.2213
10674TIP3   OH253436   5.839   6.409  15.944 -0.5955  0.3278 -0.4096
10674TIP3    H153437   5.786   6.334  15.973 -0.4864  0.5105  0.2806
10674TIP3    H253438   5.882   6.440  16.023  1.5189 -0.5541 -1.1241
10675TIP3   OH253439   0.125   4.141  16.042 -0.5409 -0.5995  0.1394
10675TIP3    H153440   0.088   4.230  16.044 -0.7160 -0.6155 -1.2095
10675TIP3    H253441   0.064   4.091  15.989  0.1168 -1.2613 -0.0084
10676TIP3   OH253442   1.166   1.851   0.841  0.1275 -0.0608 -0.0521
10676TIP3    H153443   1.186   1.923   0.901 -0.2380  0.2129 -0.2497
10676TIP3    H253444   1.193   1.883   0.755 -2.9699  1.1951 -0.6974
10677TIP3   OH253445   2.398   1.805  11.867  0.2897 -0.3534 -0.3640
10677TIP3    H153446   2.332   1.773  11.929 -0.0597  0.8325 -0.0914
10677TIP3    H253447   2.469   1.838  11.922  0.9735 -1.2921 -0.6533
10678TIP3   OH253448   2.366   5.876  13.126 -0.3318 -0.6529 -0.2279
10678TIP3    H153449   2.348   5.895  13.034 -1.7796 -2.0963 -0.2856
10678TIP3    H253450   2.291   5.823  13.155 -0.1940  0.2415  1.9432
10679TIP3   OH253451   2.490   5.722   5.964  0.0832  0.3796 -0.0200
10679TIP3    H153452   2.502   5.745   6.056  0.6149  0.2838 -0.0600
10679TIP3    H253453   2.575   5.742   5.924  0.2743 -0.7755 -0.2312
10680TIP3   OH253454   1.483   3.753  16.209  0.2978  0.5633  0.0924
10680TIP3    H153455   1.458   3.729  16.120  0.1379  0.9621  0.0258
10680TIP3    H253456   1.572   3.719  16.220 -0.5679 -1.7538  0.6517
10681TIP3   OH253457   2.532   2.201   2.912  0.3310  0.2475 -0.2069
10681TIP3    H153458   2.508   2.292   2.924 -2.1669 -0.0792 -2.0165
10681TIP3    H253459   2.588   2.201   2.835  0.7829  0.2835  0.1154
10682TIP3   OH253460   1.069   4.055  15.820 -0.3563  0.2670 -0.4913
10682TIP3    H153461   0.981   4.080  15.849  0.0340 -0.3077  1.2865
10682TIP3    H253462   1.063   3.962  15.801  0.0118  0.0895  0.2435
10683TIP3   OH253463   3.190   1.032  11.541 -0.6232 -0.3605 -0.1534
10683TIP3    H153464   3.129   1.020  11.614 -0.6021 -1.8537 -0.3454
10683TIP3    H253465   3.250   0.958  11.549  0.9552  0.8800 -0.1893
10684TIP3   OH253466   5.562   3.547  11.940 -0.4292  0.2224 -0.2631
10684TIP3    H153467   5.617   3.577  11.868 -1.0496 -0.5236 -1.0786
10684TIP3    H253468   5.624   3.513  12.005  0.1076 -2.2729 -1.9120
10685TIP3   OH253469   4.149   0.940  12.197 -0.2214  0.1560  0.8471
10685TIP3    H153470   4.164   0.848  12.220  1.2687  0.0413 -0.3728
10685TIP3    H253471   4.142   0.940  12.102  0.5843  1.3755  0.7601
10686TIP3   OH253472   4.731   4.751  14.074  0.8210 -0.0734  0.3579
10686TIP3    H153473   4.661   4.787  14.019  1.1555 -0.9164 -0.6496
10686TIP3    H253474   4.733   4.809  14.150 -1.3450 -0.3501  0.6968
10687TIP3   OH253475   1.871   3.550   5.856  0.4810 -0.2518  0.3133
10687TIP3    H153476   1.811   3.598   5.913 -1.3611 -1.7693 -0.2606
10687TIP3    H253477   1.898   3.615   5.791 -0.5170  0.4948  0.6159
10688TIP3   OH253478   5.294   5.126   3.277 -0.0347 -0.2869 -0.2069
10688TIP3    H153479   5.278   5.219   3.262  0.2969 -0.3761 -1.1914
10688TIP3    H253480   5.208   5.086   3.273 -0.0432 -0.1976 -1.1674
10689TIP3   OH253481   2.727   6.306  13.231 -0.3062 -0.0403 -0.5488
10689TIP3    H153482   2.766   6.267  13.153 -0.7730  0.6064 -1.1129
10689TIP3    H253483   2.633   6.306  13.214 -0.4558 -0.3477  0.2291
10690TIP3   OH253484   2.479   2.306  15.542  0.2250  0.1823  0.0609
10690TIP3    H153485   2.567   2.290  15.577 -0.8928  0.2583  3.2407
10690TIP3    H253486   2.467   2.401  15.548 -0.1137  0.1598 -0.2284
10691TIP3   OH253487   1.215   2.766  13.985  0.1020  0.0032  0.3492
10691TIP3    H153488   1.195   2.855  13.956  3.5580  0.7217 -0.2398
10691TIP3    H253489   1.188   2.710  13.912  2.1878  1.1265 -1.4140
10692TIP3   OH253490   3.156   2.532  13.337  0.8209  0.5068 -0.3531
10692TIP3    H153491   3.149   2.481  13.257  0.1212 -2.0442  1.2325
10692TIP3    H253492   3.095   2.604  13.325 -2.8728 -2.3585 -0.4006
10693TIP3   OH253493   2.642   0.846   4.581 -0.4603  0.0991  0.5167
10693TIP3    H153494   2.711   0.787   4.551 -0.1331  0.3687  0.7285
10693TIP3    H253495   2.652   0.924   4.526 -1.7600 -0.5496 -0.7106
10694TIP3   OH253496   5.022   5.712   0.005  0.3951  0.1939 -0.0812
10694TIP3    H153497   4.955   5.644   0.013  0.5546  0.0836  0.3138
10694TIP3    H253498   4.996   5.779   0.067 -0.5756  1.1838 -1.5062
10695TIP3   OH253499   5.803   2.694   4.468 -0.1611  0.1648  0.1357
10695TIP3    H153500   5.860   2.618   4.477 -0.0439 -0.3972 -3.5200
10695TIP3    H253501   5.715   2.656   4.461  0.1166 -0.2936 -4.8220
10696TIP3   OH253502   4.214   2.775  15.922  0.1725  1.3328  0.0230
10696TIP3    H153503   4.127   2.795  15.957 -1.1438 -3.1348 -0.1181
10696TIP3    H253504   4.198   2.747  15.832  1.9111  1.2903 -0.3011
10697TIP3   OH253505   6.283   2.147  15.521 -0.0036 -0.4143 -0.0336
10697TIP3    H153506   6.271   2.238  15.547 -0.7254 -0.6752  0.5968
10697TIP3    H253507   6.211   2.100  15.564  1.1611 -1.4967  0.8109
10698TIP3   OH253508   0.730   2.693   4.871  0.0729  0.2543 -0.7410
10698TIP3    H153509   0.686   2.746   4.937 -0.1869  0.9454 -1.4501
10698TIP3    H253510   0.822   2.693   4.897 -0.1792 -0.3552  0.1910
10699TIP3   OH253511   0.034   3.133  13.762 -0.5019 -0.8528 -0.8465
10699TIP3    H153512   0.114   3.184  13.769 -1.6034  1.1952 -2.0239
10699TIP3    H253513   0.063   3.044  13.741  1.4331  0.2410 -3.2142
10700TIP3   OH253514   3.147   3.932   0.184 -0.3845  0.5180  0.2959
10700TIP3    H153515   3.128   3.951   0.276  0.6354  0.4685  0.5238
10700TIP3    H253516   3.063   3.943   0.140 -0.9421  0.3107  1.2668
10701TIP3   OH253517   0.992   6.224   0.177  0.0890 -0.3154  0.4855
10701TIP3    H153518   1.084   6.210   0.155 -0.1975 -1.1229 -0.2518
10701TIP3    H253519   0.984   6.196   0.268  0.1357 -2.3676 -0.1008
10702TIP3   OH253520   4.046   4.780  17.105 -0.0663 -0.0725  0.3440
10702TIP3    H153521   4.087   4.859  17.071 -1.0945  0.3596  0.0563
10702TIP3    H253522   4.115   4.736  17.155  1.5378 -0.7410 -2.2453
10703TIP3   OH253523   1.841   4.236   0.419 -0.8437  0.2008 -0.5395
10703TIP3    H153524   1.880   4.199   0.340  0.3869  0.5469 -0.1171
10703TIP3    H253525   1.855   4.169   0.486 -0.0025  0.7503 -0.1413
10704TIP3   OH253526   1.691   5.690  16.309 -0.0614 -0.1751 -0.4038
10704TIP3    H153527   1.628   5.670  16.240 -0.4995  0.6304 -0.2531
10704TIP3    H253528   1.696   5.786  16.310  1.7835 -0.2387 -0.9610
10705TIP3   OH253529   6.034   0.013   0.814 -0.1575  0.2325 -0.4221
10705TIP3    H153530   5.945   0.030   0.844 -0.1609  0.9320 -0.7985
10705TIP3    H253531   6.059   0.092   0.766  1.1596  0.6366  0.8404
10706TIP3   OH253532   1.459   1.876  15.333 -0.3383 -0.0347  0.1359
10706TIP3    H153533   1.383   1.931  15.351  0.6846  1.4291  0.2320
10706TIP3    H253534   1.426   1.805  15.279 -1.5184  1.4041 -1.1193
10707TIP3   OH253535   3.778   2.621   6.323 -0.1656 -0.3178  0.1513
10707TIP3    H153536   3.849   2.631   6.386 -0.2896  1.3558  0.0590
10707TIP3    H253537   3.814   2.562   6.257  0.5569 -0.7622  0.9172
10708TIP3   OH253538   2.232   0.458  12.543  0.1197  0.2076 -0.1109
10708TIP3    H153539   2.155   0.462  12.485  0.2214  0.5162 -0.2242
10708TIP3    H253540   2.216   0.525  12.609 -0.4032 -0.7133  0.7296
10709TIP3   OH253541   5.782   0.356  11.612  0.0091  0.8789  0.3914
10709TIP3    H153542   5.774   0.288  11.679 -0.0893  0.0848 -0.3937
10709TIP3    H253543   5.716   0.421  11.635 -0.5395  0.2494  0.6504
10710TIP3   OH253544   6.443   3.650  11.217 -0.0508  0.1888 -0.3709
10710TIP3    H153545   6.492   3.602  11.283 -0.5912  0.2513  0.0845
10710TIP3    H253546   6.502   3.654  11.142  1.2630  1.6370  0.6831
10711TIP3   OH253547   6.393   3.878  14.505  0.5765 -0.1272  0.4739
10711TIP3    H153548   6.320   3.939  14.493  1.4566  0.5080 -2.0629
10711TIP3    H253549   6.351   3.798  14.539 -1.1821  0.5157 -0.0660
10712TIP3   OH253550   2.992   3.051   4.915 -0.5891  0.3984  0.2174
10712TIP3    H153551   2.997   3.146   4.905  1.7194  0.3766  0.6707
10712TIP3    H253552   3.083   3.021   4.914 -1.1554 -2.3626 -4.7906
10713TIP3   OH253553   3.194   1.244   0.718  0.5137  0.0705 -0.1541
10713TIP3    H153554   3.134   1.313   0.690  0.2620  0.5992  1.5346
10713TIP3    H253555   3.249   1.285   0.784  1.7980 -0.8012 -0.6343
10714TIP3   OH253556   3.094   2.607  11.868 -0.0840  0.7624 -0.1319
10714TIP3    H153557   3.032   2.563  11.926  0.1842 -1.0594 -1.1240
10714TIP3    H253558   3.040   2.651  11.803 -0.4061 -1.2210 -1.2789
10715TIP3   OH253559   6.285   5.212  11.782 -0.2091  0.2100  0.6048
10715TIP3    H153560   6.381   5.212  11.772 -0.1492  0.1332  1.1281
10715TIP3    H253561   6.269   5.149  11.853 -0.7353 -0.5895 -0.2097
10716TIP3   OH253562   2.407   3.169  15.090  0.0170 -0.5152  0.1433
10716TIP3    H153563   2.363   3.121  15.020 -0.5141  0.3567 -0.1366
10716TIP3    H253564   2.498   3.140  15.086 -0.0909 -0.7512 -0.6606
10717TIP3   OH253565   5.632   5.452  13.944  0.2783 -0.3497 -0.0828
10717TIP3    H153566   5.666   5.437  13.856  1.7613 -1.1579  0.5769
10717TIP3    H253567   5.542   5.420  13.941  0.1961 -0.0237 -1.3937
10718TIP3   OH253568   1.319   6.211   3.597  0.0412  0.1604  0.4728
10718TIP3    H153569   1.332   6.128   3.550  0.1148  0.9576 -0.9837
10718TIP3    H253570   1.395   6.219   3.654  2.0999  1.0417 -2.2289
10719TIP3   OH253571   5.535   1.149  14.401  0.3912  0.2957 -0.0213
10719TIP3    H153572   5.471   1.095  14.354  0.2165 -1.3120  1.9214
10719TIP3    H253573   5.483   1.223  14.435  0.5417  1.5351 -2.2961
10720TIP3   OH253574   6.233   6.654  16.378  0.2575 -0.3896  0.2457
10720TIP3    H153575   6.160   6.715  16.386 -0.5917 -1.3319 -0.2387
10720TIP3    H253576   6.310   6.711  16.366 -0.2216  0.6393  1.7630
10721TIP3   OH253577   0.735   3.446   4.149 -0.3200  0.5476 -0.1710
10721TIP3    H153578   0.648   3.479   4.171 -1.2818 -1.8760 -0.1055
10721TIP3    H253579   0.720   3.359   4.114  1.9996  0.6056 -1.5157
10722TIP3   OH253580   4.713   5.197  11.720 -0.4092  0.5230 -0.2170
10722TIP3    H153581   4.790   5.142  11.737 -0.3116  0.7049 -0.0657
10722TIP3    H253582   4.649   5.137  11.682 -0.1270  0.4069 -0.5175
10723TIP3   OH253583   1.927   5.254   2.190  0.1587 -0.1034 -0.4228
10723TIP3    H153584   1.844   5.241   2.236  1.6694  2.2921  3.4435
10723TIP3    H253585   1.965   5.166   2.185 -0.9733 -0.7461  1.2009
10724TIP3   OH253586   2.760   1.603   3.657 -0.5891 -0.1934  0.3187
10724TIP3    H153587   2.855   1.594   3.656 -0.5517 -0.0605  1.3709
10724TIP3    H253588   2.734   1.595   3.565  0.6310  1.8237 -0.2769
10725TIP3   OH253589   5.546   0.891   2.170 -0.3557  0.3177 -0.0590
10725TIP3    H153590   5.607   0.822   2.144 -1.4052 -0.3277 -0.8619
10725TIP3    H253591   5.590   0.972   2.144 -0.2890 -0.1890 -1.6278
10726TIP3   OH253592   3.395   1.216  13.757 -0.6058  0.0424 -0.2008
10726TIP3    H153593   3.423   1.133  13.718  0.5805  0.9478 -1.3872
10726TIP3    H253594   3.344   1.258  13.688 -0.7064  0.5485  0.1813
10727TIP3   OH253595   2.106   0.293   2.967  0.1515  0.3301 -0.2530
10727TIP3    H153596   2.017   0.273   2.939  0.1958 -0.0248 -0.1458
10727TIP3    H253597   2.117   0.245   3.049  0.6408 -0.1193 -0.5698
10728TIP3   OH253598   3.389   1.352   6.147  0.3160  0.2966 -0.5910
10728TIP3    H153599   3.445   1.428   6.164 -1.1134  1.1831  0.4053
10728TIP3    H253600   3.302   1.380   6.175 -0.8242 -0.7456 -2.8424
10729TIP3   OH253601   4.322   0.246  13.939  0.2122  0.1907  0.5149
10729TIP3    H153602   4.348   0.212  13.853 -0.2161 -0.3634  0.5989
10729TIP3    H253603   4.404   0.277  13.978  0.7388 -1.3875  0.7175
10730TIP3   OH253604   4.083   6.596   4.399  0.2822  0.2990 -0.3336
10730TIP3    H153605   4.035   6.560   4.473  1.5947 -1.6839 -0.3667
10730TIP3    H253606   4.038   6.562   4.321  1.0672 -0.6831 -0.3745
10731TIP3   OH253607   1.385   6.159  13.512  0.1470 -0.0774  0.1862
10731TIP3    H153608   1.378   6.193  13.601  0.0686 -0.4598  0.3271
10731TIP3    H253609   1.465   6.199  13.478  2.2184 -2.6739  1.6538
10732TIP3   OH253610   0.762   1.052   2.932  0.3911  0.0753  0.1696
10732TIP3    H153611   0.696   1.026   2.997 -0.8426 -0.1921 -1.1225
10732TIP3    H253612   0.834   1.089   2.983  0.0384 -1.3213  1.7598
10733TIP3   OH253613   5.978   6.348   4.167 -0.2722  0.4383  0.5448
10733TIP3    H153614   5.957   6.271   4.219 -0.0186  0.2683  0.4004
10733TIP3    H253615   6.005   6.313   4.082  2.7167  0.4549  1.3648
10734TIP3   OH253616   3.314   3.533  12.717  0.1292 -0.1844 -0.4776
10734TIP3    H153617   3.273   3.620  12.721 -0.9902 -0.7412  1.0827
10734TIP3    H253618   3.378   3.540  12.647 -0.5752  1.6335 -0.9904
10735TIP3   OH253619   0.870   5.382  14.912  0.2304 -0.0551  0.2639
10735TIP3    H153620   0.825   5.333  14.843 -0.4664  0.7554  0.1388
10735TIP3    H253621   0.937   5.432  14.865  0.2797 -0.1156  0.2705
10736TIP3   OH253622   2.339   6.002  14.142  0.1308  0.1179 -0.1893
10736TIP3    H153623   2.355   6.048  14.060  0.9380  0.6717  0.2698
10736TIP3    H253624   2.395   6.046  14.206 -0.1800 -0.5699  0.5743
10737TIP3   OH253625   1.187   2.049   0.147 -0.2986  0.7343  0.1858
10737TIP3    H153626   1.261   1.989   0.135  1.1178  2.6612 -1.3898
10737TIP3    H253627   1.146   2.054   0.060 -0.7902  1.5505  0.4507
10738TIP3   OH253628   1.974   4.909   1.298  0.2443 -0.0299 -0.1224
10738TIP3    H153629   1.879   4.897   1.301  0.1609  0.6454  0.5986
10738TIP3    H253630   2.010   4.821   1.290 -0.4025 -0.4447  1.2429
10739TIP3   OH253631   2.807   6.033   0.659  0.1234  0.2496 -0.2437
10739TIP3    H153632   2.825   5.956   0.605 -0.8632 -0.4871  0.4360
10739TIP3    H253633   2.712   6.035   0.666  0.2010  0.7920  0.8024
10740TIP3   OH253634   1.269   3.252   1.160 -0.4650  0.3888  0.3811
10740TIP3    H153635   1.305   3.171   1.196  0.8919  0.8581  0.1396
10740TIP3    H253636   1.270   3.313   1.234  3.8724  1.8665 -0.5670
10741TIP3   OH253637   1.670   5.995  11.680  0.2752 -0.3692 -0.6465
10741TIP3    H153638   1.679   5.920  11.622 -1.9575 -0.5485 -0.8602
10741TIP3    H253639   1.666   5.957  11.768  2.5339 -0.1855 -0.4220
10742TIP3   OH253640   1.341   6.800  16.954  0.1602  0.3706 -0.4329
10742TIP3    H153641   1.318   6.826  17.043 -1.6160 -0.6705 -0.5352
10742TIP3    H253642   1.299   6.865  16.898 -0.6957 -0.2662 -0.5535
10743TIP3   OH253643   6.130   1.379  13.479 -0.5946 -0.2152  0.1522
10743TIP3    H153644   6.114   1.411  13.568  0.8835  0.8974  0.0556
10743TIP3    H253645   6.043   1.370  13.441 -1.1950  2.0757  0.7834
10744TIP3   OH253646   1.820   5.123  11.848  0.1985 -0.3597 -0.3732
10744TIP3    H153647   1.843   5.138  11.939 -0.6297 -1.2135 -0.0012
10744TIP3    H253648   1.780   5.205  11.819 -0.6322 -0.4796  0.4033
10745TIP3   OH253649   4.386   0.365  16.508 -0.3203  0.6268 -0.3362
10745TIP3    H153650   4.379   0.337  16.600  1.4795 -0.3868 -0.4751
10745TIP3    H253651   4.454   0.309  16.471 -1.8644  0.1311 -2.6561
10746TIP3   OH253652   6.279   0.216   0.101 -0.0723 -0.0645  0.1550
10746TIP3    H153653   6.228   0.169   0.166 -0.5876  0.3249  0.0405
10746TIP3    H253654   6.214   0.252   0.041  0.1549  2.1438  1.1293
10747TIP3   OH253655   0.331   3.389  16.657  0.6016  0.2652  0.6954
10747TIP3    H153656   0.340   3.482  16.680  0.0625  0.3940  0.4154
10747TIP3    H253657   0.266   3.355  16.719  0.4470  0.1921  0.4965
10748TIP3   OH253658   6.317   3.090  15.139  0.1369 -0.1666  1.0093
10748TIP3    H153659   6.334   3.175  15.099 -0.8051 -1.3300 -2.1904
10748TIP3    H253660   6.273   3.040  15.070 -2.5889 -2.1117  3.8746
10749TIP3   OH253661   5.529   6.633  12.042 -0.4466 -0.5487  0.1311
10749TIP3    H153662   5.613   6.672  12.017 -0.4984 -0.8209 -0.4669
10749TIP3    H253663   5.476   6.708  12.071 -0.3135 -0.2596 -0.3666
10750TIP3   OH253664   1.274   5.255   4.948  0.5211  0.2566  0.3194
10750TIP3    H153665   1.186   5.286   4.965 -0.0863 -1.1953 -0.0125
10750TIP3    H253666   1.331   5.318   4.993 -0.7872 -0.4379  3.1594
10751TIP3   OH253667   3.821   3.540   1.221 -0.4516 -0.6057 -0.2625
10751TIP3    H153668   3.840   3.498   1.137  0.7443  1.7025 -1.2250
10751TIP3    H253669   3.799   3.630   1.198  1.1623  0.4375  1.9899
10752TIP3   OH253670   6.484   6.524   1.444  0.5226 -0.3820  0.6745
10752TIP3    H153671   6.411   6.502   1.502 -1.6415 -0.4994 -1.8986
10752TIP3    H253672   6.466   6.614   1.416  2.0401  0.0156  0.8963
10753TIP3   OH253673   6.702   6.631   3.045 -0.1594  0.1738  0.2010
10753TIP3    H153674   6.682   6.717   3.083 -0.2612  0.6427 -0.8755
10753TIP3    H253675   6.768   6.594   3.103  1.2466  1.7607 -0.3190
10754TIP3   OH253676   6.767   3.350   0.641  0.0975 -0.3643 -0.2061
10754TIP3    H153677   6.673   3.343   0.622 -0.1013 -1.5844  1.0092
10754TIP3    H253678   6.785   3.274   0.697  1.9928 -0.6031 -1.0800
10755TIP3   OH253679   1.615   2.774  12.677  0.1079  0.4061 -0.1348
10755TIP3    H153680   1.636   2.862  12.646  0.8282  0.7704  1.3038
10755TIP3    H253681   1.699   2.729  12.681  0.0331  0.3633  1.2151
10756TIP3   OH253682   5.435   0.188  10.570 -0.0261 -0.2534 -0.3007
10756TIP3    H153683   5.430   0.097  10.543  1.3900 -0.0132 -1.4694
10756TIP3    H253684   5.445   0.238  10.489  0.6005  0.8127  0.3939
10757TIP3   OH253685   3.531   3.937  13.951 -0.4105 -0.3834 -0.2080
10757TIP3    H153686   3.560   4.006  14.010 -0.7789 -1.0120  0.7316
10757TIP3    H253687   3.611   3.909  13.907 -0.4393  1.4955 -1.5805
10758TIP3   OH253688   5.891   4.405   5.923  0.1663 -0.2410  0.6125
10758TIP3    H153689   5.851   4.430   5.840  1.8013 -0.9276 -0.4201
10758TIP3    H253690   5.887   4.484   5.977 -0.7539  0.2650 -0.1707
10759TIP3   OH253691   6.632   5.856  12.593  0.0235 -0.3645 -0.1001
10759TIP3    H153692   6.607   5.932  12.646  2.3353 -0.5737  1.4358
10759TIP3    H253693   6.556   5.798  12.598 -0.4117  0.2958  1.7705
10760TIP3   OH253694   5.488   2.269   4.648  0.4728 -0.7391  0.6028
10760TIP3    H153695   5.405   2.308   4.675  0.8125 -0.8684  1.9362
10760TIP3    H253696   5.477   2.247   4.556 -0.2971  0.9980  0.2585
10761TIP3   OH253697   2.475   4.889   1.929  0.3481 -0.5085  0.1375
10761TIP3    H153698   2.393   4.850   1.899  0.4777 -0.5542 -0.1630
10761TIP3    H253699   2.474   4.875   2.024  0.4293 -1.3370  0.0312
10762TIP3   OH253700   3.603   0.429  15.325 -0.6622 -0.5504 -0.4463
10762TIP3    H153701   3.627   0.363  15.260  0.1197 -1.1737  0.4619
10762TIP3    H253702   3.679   0.488  15.329 -0.4822 -0.8219  0.2820
10763TIP3   OH253703   0.016   3.589   5.532 -0.0827 -0.6449  0.1488
10763TIP3    H153704  -0.064   3.618   5.577  0.8338  0.0506  1.4094
10763TIP3    H253705   0.012   3.632   5.446 -0.1194  1.0379  0.9426
10764TIP3   OH253706   3.075   6.259  13.360 -0.2540  0.6937  0.2605
10764TIP3    H153707   3.056   6.250  13.267  1.1378 -0.8418  0.0727
10764TIP3    H253708   3.167   6.235  13.368 -0.3427  0.8071  2.0343
10765TIP3   OH253709   4.037   0.093  10.850  0.0245 -0.0210 -0.1977
10765TIP3    H153710   4.006   0.149  10.921 -0.4056 -1.2552  0.6172
10765TIP3    H253711   4.127   0.070  10.874 -0.4205 -1.1740  0.4428
10766TIP3   OH253712   1.528   2.803   1.298 -0.3638  0.0017  0.5102
10766TIP3    H153713   1.599   2.739   1.300 -1.6688 -1.5288  2.5463
10766TIP3    H253714   1.564   2.877   1.249  1.4449 -1.9879 -1.4493
10767TIP3   OH253715   4.909   0.123  14.014  0.5332 -0.1044 -0.4235
10767TIP3    H153716   4.852   0.065  13.964 -0.2408  1.0397 -0.9072
10767TIP3    H253717   4.998   0.097  13.990  0.1831  0.0677 -2.0031
10768TIP3   OH253718   2.263   5.356  13.714 -0.0089 -0.4747 -0.5261
10768TIP3    H153719   2.201   5.283  13.723 -0.0305 -0.6271 -1.6574
10768TIP3    H253720   2.349   5.313  13.710  0.0408 -0.3795 -0.4695
10769TIP3   OH253721   4.440   5.739  15.844  0.4555 -0.0802 -0.2021
10769TIP3    H153722   4.471   5.652  15.867 -0.6024 -0.1741  0.9978
10769TIP3    H253723   4.503   5.799  15.884  0.5452 -0.2783 -0.0486
10770TIP3   OH253724   0.811   0.352   0.480 -0.3672 -0.6177 -0.0305
10770TIP3    H153725   0.888   0.330   0.532 -0.0311  0.0141 -0.2424
10770TIP3    H253726   0.808   0.286   0.412  0.1548 -0.4859 -0.1849
10771TIP3   OH253727   4.072   1.447  16.005 -0.3420 -0.0415  0.1345
10771TIP3    H153728   4.138   1.511  15.981 -0.6257  0.4386  0.6216
10771TIP3    H253729   4.106   1.364  15.972  1.1883 -0.0452  1.5855
10772TIP3   OH253730   6.771   2.791   5.521  0.0070 -0.4066  0.3788
10772TIP3    H153731   6.848   2.849   5.521 -0.3781  0.1217  1.1900
10772TIP3    H253732   6.728   2.808   5.437  0.1997  0.0835  0.3753
10773TIP3   OH253733   1.904   0.026  16.774  0.0029 -0.2544 -0.5272
10773TIP3    H153734   1.920  -0.016  16.858  1.2941  0.5324 -0.3474
10773TIP3    H253735   1.812   0.053  16.777  0.9052  3.2478  2.2936
10774TIP3   OH253736   1.081   5.221   2.092  0.6090  0.3037 -0.5487
10774TIP3    H153737   1.008   5.273   2.125  1.3460 -0.2274  2.1955
10774TIP3    H253738   1.049   5.183   2.011 -2.1456  0.1306  0.5268
10775TIP3   OH253739   6.360   0.636   0.577 -0.1427  0.4095 -0.5792
10775TIP3    H153740   6.398   0.559   0.618 -1.5699  0.3570  0.7280
10775TIP3    H253741   6.434   0.694   0.560  0.8373 -0.8571 -0.7699
10776TIP3   OH253742   0.755   0.163   0.290  0.0023  0.2993 -0.1033
10776TIP3    H153743   0.664   0.187   0.273  0.5526  1.6151 -1.4052
10776TIP3    H253744   0.789   0.135   0.205  0.9029  0.1240  0.3018
10777TIP3   OH253745   5.175   6.185  16.103 -0.2512  0.3637 -0.2666
10777TIP3    H153746   5.161   6.186  16.008 -1.7624  0.6265 -0.0724
10777TIP3    H253747   5.204   6.273  16.124 -0.7797  0.5734 -0.3899
10778TIP3   OH253748   6.635   2.306   4.119 -0.1687 -0.0923  0.3532
10778TIP3    H153749   6.647   2.215   4.146  0.1597 -0.1560 -0.0022
10778TIP3    H253750   6.567   2.339   4.178 -0.7695 -0.7574  0.0552
10779TIP3   OH253751   1.604   6.716   5.859 -0.0887 -0.1937 -0.5156
10779TIP3    H153752   1.549   6.690   5.784 -0.6848  2.0258 -0.9366
10779TIP3    H253753   1.685   6.747   5.819 -0.2909  0.7165 -0.2387
10780TIP3   OH253754   2.553   5.129   2.564  0.5176 -0.1665  0.5598
10780TIP3    H153755   2.522   5.049   2.607  1.0360  0.2439  1.7488
10780TIP3    H253756   2.638   5.104   2.527 -0.5061 -0.8890 -1.4471
10781TIP3   OH253757   0.781   5.712   3.120  0.5863 -0.1219 -0.3168
10781TIP3    H153758   0.786   5.647   3.051 -0.2959 -0.1758 -0.3455
10781TIP3    H253759   0.757   5.663   3.198 -0.1696  0.1628 -0.3556
10782TIP3   OH253760   1.708   2.112  15.473  0.3758  0.3062 -0.4386
10782TIP3    H153761   1.667   2.032  15.441 -0.2508 -0.0867  1.2396
10782TIP3    H253762   1.750   2.151  15.396 -1.3561 -0.3732 -1.7761
10783TIP3   OH253763   2.583   2.333   0.546 -0.1455 -0.4670  0.5535
10783TIP3    H153764   2.646   2.309   0.478  1.0716 -0.1697  1.5371
10783TIP3    H253765   2.509   2.273   0.534  0.7631 -1.5002 -0.0057
10784TIP3   OH253766   4.101   1.434   1.038  0.1989  0.0289 -0.7427
10784TIP3    H153767   4.111   1.510   0.981  3.4957  0.3468  0.0311
10784TIP3    H253768   4.137   1.462   1.122  2.1608 -2.4607 -0.6131
10785TIP3   OH253769   3.369   4.542  13.221  0.1636 -0.0006 -0.2778
10785TIP3    H153770   3.302   4.477  13.239  1.4234 -0.8729  1.5084
10785TIP3    H253771   3.354   4.611  13.285 -0.2001  0.7742 -1.1582
10786TIP3   OH253772   2.378   3.624  15.975 -0.5845 -0.1998  0.2343
10786TIP3    H153773   2.329   3.542  15.986 -0.6987 -0.1655 -0.0055
10786TIP3    H253774   2.341   3.682  16.042 -0.6586 -0.2735  0.2591
10787TIP3   OH253775   3.203   6.500  14.589 -0.7883 -0.3979 -0.3655
10787TIP3    H153776   3.175   6.592  14.588  0.1759 -0.0921  0.0257
10787TIP3    H253777   3.124   6.451  14.567 -2.1803  0.3011  2.5644
10788TIP3   OH253778   0.896   5.327  11.696  0.3669 -0.0226 -0.1911
10788TIP3    H153779   0.971   5.300  11.751 -0.7003 -1.2822  0.7236
10788TIP3    H253780   0.897   5.265  11.623  0.4183  0.1816 -0.3642
10789TIP3   OH253781   5.588   4.377   5.747  0.1350 -0.0319 -0.3645
10789TIP3    H153782   5.608   4.338   5.662 -1.8396 -1.5079 -0.2296
10789TIP3    H253783   5.567   4.302   5.803 -0.6445  1.0301  0.8223
10790TIP3   OH253784   4.918   3.739  15.476 -0.0648  0.5639  0.3902
10790TIP3    H153785   4.960   3.793  15.409 -0.8873  0.4647 -0.2174
10790TIP3    H253786   4.825   3.757  15.467 -0.4417 -1.4391 -0.2897
10791TIP3   OH253787   6.819   3.390  14.153 -0.4834  0.1699 -0.1361
10791TIP3    H153788   6.840   3.432  14.070 -0.3819  0.0454 -0.1732
10791TIP3    H253789   6.823   3.297  14.135 -0.3571  0.1413  0.0327
10792TIP3   OH253790   2.978   4.560  13.277  1.0989  0.4878  0.1707
10792TIP3    H153791   3.045   4.501  13.313 -0.8966 -3.0295 -1.4187
10792TIP3    H253792   2.895   4.519  13.300 -0.3770  1.4313 -2.9652
10793TIP3   OH253793   5.215   0.786  15.149  0.2166  0.1471 -0.2185
10793TIP3    H153794   5.211   0.765  15.242  0.3810  0.4732 -0.1350
10793TIP3    H253795   5.185   0.877  15.144 -1.7641 -0.4901 -0.7262
10794TIP3   OH253796   1.463   1.899  14.126  0.3730 -0.1259  0.7863
10794TIP3    H153797   1.540   1.944  14.162  0.1720  2.1176 -1.2790
10794TIP3    H253798   1.393   1.916  14.189  0.8572  0.5698  1.1463
10795TIP3   OH253799   3.260   3.026  16.869  0.3892  0.6844  0.0557
10795TIP3    H153800   3.342   3.007  16.824 -0.1954  0.8248 -1.0872
10795TIP3    H253801   3.259   2.964  16.942 -0.0320 -1.6400 -1.8138
10796TIP3   OH253802   3.743   4.306  11.995 -0.8290  1.0078 -0.6834
10796TIP3    H153803   3.772   4.354  11.917  0.4146  1.7010  0.1762
10796TIP3    H253804   3.750   4.214  11.970  0.6579  1.1897 -1.0500
10797TIP3   OH253805   1.414   3.482   3.859 -0.0913  0.7755  0.6874
10797TIP3    H153806   1.487   3.494   3.798  0.0731 -0.9166  0.5165
10797TIP3    H253807   1.456   3.461   3.943 -0.3443 -0.8588  0.4408
10798TIP3   OH253808   4.691   6.124  14.504  0.4328  0.2699 -0.3973
10798TIP3    H153809   4.673   6.044  14.554 -0.7350  0.3282 -0.6877
10798TIP3    H253810   4.622   6.185  14.531  1.2426  1.1560 -0.2626
10799TIP3   OH253811   1.483   6.258  11.390 -0.5528  0.2076  0.2527
10799TIP3    H153812   1.438   6.215  11.462 -1.5078  0.2036 -0.3245
10799TIP3    H253813   1.466   6.202  11.314  1.6426 -0.5623  0.2830
10800TIP3   OH253814   4.443   0.288  11.608  0.2659  0.1250  0.1869
10800TIP3    H153815   4.396   0.228  11.665 -0.8966 -1.9789 -2.7397
10800TIP3    H253816   4.382   0.308  11.537  2.0841  1.3880 -1.1577
10801TIP3   OH253817   2.795   1.204  15.025  0.0560  0.0188  0.2177
10801TIP3    H153818   2.774   1.293  15.052 -0.9758 -0.4315  0.9635
10801TIP3    H253819   2.723   1.151  15.059  0.0215 -0.9426 -1.2622
10802TIP3   OH253820   5.746   5.264   0.006 -0.1048 -0.0607  0.1789
10802TIP3    H153821   5.674   5.305   0.053 -0.3924 -1.1153  0.6969
10802TIP3    H253822   5.735   5.170   0.022  1.1571 -0.2734 -0.0418
10803TIP3   OH253823   6.321   6.021  11.284 -0.6897 -0.3175  0.1340
10803TIP3    H153824   6.281   6.096  11.240 -0.6181 -1.0932 -1.2879
10803TIP3    H253825   6.302   5.947  11.227  0.4652 -1.1524  0.8070
10804TIP3   OH253826   5.614   5.360  14.619 -0.0862 -0.0182  0.4189
10804TIP3    H153827   5.643   5.410  14.695 -0.8309  1.2661 -0.1111
10804TIP3    H253828   5.677   5.383  14.550 -1.2766  1.4157 -0.2453
10805TIP3   OH253829   2.687   5.705   5.471 -0.1441 -0.7629 -0.3895
10805TIP3    H153830   2.721   5.668   5.390  1.3452 -0.8422  0.2431
10805TIP3    H253831   2.765   5.734   5.519 -1.0828  0.7710  0.3050
10806TIP3   OH253832   1.804   3.464   2.317 -0.1656 -0.3151 -0.1353
10806TIP3    H153833   1.751   3.391   2.348  0.9407 -1.0649  0.0324
10806TIP3    H253834   1.744   3.539   2.317 -1.2231 -1.1504 -0.0016
10807TIP3   OH253835   2.318   3.652   5.955  0.3161 -0.7751 -0.4461
10807TIP3    H153836   2.271   3.656   6.039  0.0451 -1.2629 -0.5683
10807TIP3    H253837   2.268   3.709   5.897  1.6485  1.2166  0.2455
10808TIP3   OH253838   5.283   2.588   3.978 -0.3204 -0.0172  0.0299
10808TIP3    H153839   5.294   2.675   4.017 -0.2281 -0.9426  2.2232
10808TIP3    H253840   5.199   2.557   4.013 -1.3372 -0.0805 -2.3001
10809TIP3   OH253841   2.012   4.429   4.917 -0.3627 -0.1926 -0.1465
10809TIP3    H153842   2.009   4.371   4.841  0.6691 -0.5469  0.0667
10809TIP3    H253843   2.041   4.513   4.882  0.7770 -0.5325 -0.0662
10810TIP3   OH253844   4.706   0.247  12.386 -0.6860  0.1791 -0.4033
10810TIP3    H153845   4.702   0.158  12.348 -1.3889  0.9711 -2.3274
10810TIP3    H253846   4.759   0.297  12.324 -1.2165  1.3692  0.0814
10811TIP3   OH253847   3.761   6.202  14.923 -0.1824 -0.1718 -0.0362
10811TIP3    H153848   3.742   6.201  15.017 -0.3090 -0.3507 -0.0627
10811TIP3    H253849   3.848   6.164  14.916  0.4364  1.1449  0.1367
10812TIP3   OH253850   5.771   4.346   5.498 -0.1865  0.4103  0.6265
10812TIP3    H153851   5.768   4.258   5.536 -0.0756  0.6677  1.2302
10812TIP3    H253852   5.850   4.385   5.535 -0.3527  0.8424  0.5257
10813TIP3   OH253853   0.436   3.537   2.330  0.2007  0.8241 -0.2174
10813TIP3    H153854   0.519   3.569   2.294  0.4018  0.1787 -0.3360
10813TIP3    H253855   0.371   3.601   2.300  0.2152 -0.1034 -2.4620
10814TIP3   OH253856   1.435   5.317   2.807 -0.1876  0.1240 -0.6693
10814TIP3    H153857   1.407   5.270   2.886  0.0904  0.3140 -0.4561
10814TIP3    H253858   1.355   5.327   2.756 -0.5190  0.6494 -0.0717
10815TIP3   OH253859   0.911   3.682   6.627  0.0411  0.2166  0.1575
10815TIP3    H153860   0.853   3.729   6.686  0.3188 -0.8485  1.3174
10815TIP3    H253861   0.956   3.750   6.577  1.6642  1.3388  2.9301
10816TIP3   OH253862   0.621   6.301   4.925  0.8456 -0.5199  0.1850
10816TIP3    H153863   0.623   6.263   4.837  0.0708  0.0202 -0.0729
10816TIP3    H253864   0.687   6.370   4.923 -0.5964  0.8814 -0.6359
10817TIP3   OH253865   1.483   0.232  13.966 -0.3530  0.1333  0.7538
10817TIP3    H153866   1.510   0.234  13.874  0.0774 -1.3533  0.8117
10817TIP3    H253867   1.530   0.305  14.006  0.5098 -0.0087  0.0429
10818TIP3   OH253868   4.122   1.356   3.729 -0.3781 -0.4752  0.7028
10818TIP3    H153869   4.211   1.347   3.696 -0.5242 -0.0172  0.1754
10818TIP3    H253870   4.111   1.282   3.788  0.5139 -0.2784  1.1379
10819TIP3   OH253871   6.209   4.002  11.473  0.0843  0.1466  0.5853
10819TIP3    H153872   6.258   3.975  11.395  0.4633  1.3248  0.4018
10819TIP3    H253873   6.122   4.022  11.441  0.8372  2.8244  0.0212
10820TIP3   OH253874   2.229   3.076   4.031  0.1842  0.1942 -0.0459
10820TIP3    H153875   2.301   3.080   3.968  0.5048 -1.2797  0.1821
10820TIP3    H253876   2.204   2.984   4.032  0.5710  0.0572  2.4060
10821TIP3   OH253877   6.764   3.450  11.120  0.3878 -0.0342 -0.1757
10821TIP3    H153878   6.779   3.365  11.079  1.4661  0.5114 -0.9652
10821TIP3    H253879   6.848   3.495  11.115 -0.3964  1.4695 -0.7151
10822TIP3   OH253880   2.081   1.375  15.827 -0.2747 -0.1609 -0.0071
10822TIP3    H153881   2.091   1.430  15.904 -0.9420 -0.6030  0.3990
10822TIP3    H253882   2.005   1.411  15.781  0.3403  0.3316 -0.6656
10823TIP3   OH253883   2.509   6.664   5.346  0.0201 -0.2450  0.1884
10823TIP3    H153884   2.534   6.616   5.425 -1.4528 -0.7636  0.3588
10823TIP3    H253885   2.591   6.672   5.296  0.4671 -2.2456  0.5215
10824TIP3   OH253886   3.128   6.682  13.075 -0.0304  0.1284  0.1809
10824TIP3    H153887   3.195   6.631  13.030  0.5833  1.0660 -0.0062
10824TIP3    H253888   3.126   6.646  13.164  0.0960 -0.4850 -0.0631
10825TIP3   OH253889   1.729   4.981   3.882  0.0039  0.4797  0.2825
10825TIP3    H153890   1.802   4.962   3.940 -0.7794 -0.9325  0.8483
10825TIP3    H253891   1.651   4.962   3.934 -0.7262 -0.6837 -1.1614
10826TIP3   OH253892   0.953   6.249  16.538 -1.2176 -0.2672 -0.5197
10826TIP3    H153893   0.994   6.167  16.566 -1.7523 -0.4724 -0.3367
10826TIP3    H253894   0.871   6.253  16.586 -1.0527  0.5320 -0.2829
10827TIP3   OH253895   3.759   1.538   0.967 -0.3721  0.0834  0.0128
10827TIP3    H153896   3.808   1.613   1.002  1.3828 -0.4019 -1.2611
10827TIP3    H253897   3.712   1.574   0.891  0.4829 -0.0612 -0.6081
10828TIP3   OH253898   2.421   6.016   2.031  0.1959 -0.0394 -0.4291
10828TIP3    H153899   2.447   6.064   1.952  0.8478  0.1341 -0.1186
10828TIP3    H253900   2.502   5.973   2.059  0.0175  0.0890  0.2804
10829TIP3   OH253901   4.815   5.361   4.853  0.2618 -0.0208  0.1451
10829TIP3    H153902   4.746   5.325   4.798 -0.1427  0.2233  0.4877
10829TIP3    H253903   4.799   5.456   4.853  0.1862 -0.0278  0.7723
10830TIP3   OH253904   2.455   5.062   5.677 -0.4234  0.4917 -0.2487
10830TIP3    H153905   2.538   5.042   5.633 -0.8197  0.3988 -0.9763
10830TIP3    H253906   2.479   5.118   5.751  0.8428 -2.9471  2.2177
10831TIP3   OH253907   5.306   5.558  15.953 -0.8201  0.0130 -0.1422
10831TIP3    H153908   5.391   5.537  15.915 -1.2386 -1.1048 -0.5201
10831TIP3    H253909   5.327   5.599  16.037  0.0942  1.3245 -0.9715
10832TIP3   OH253910   6.697   3.342   0.936  0.1091 -0.0820 -0.0922
10832TIP3    H153911   6.663   3.423   0.973 -0.8297 -0.1153 -0.8569
10832TIP3    H253912   6.653   3.273   0.984  0.1371 -0.1336 -0.1399
10833TIP3   OH253913   3.869   5.674   5.447 -0.1682  0.1479 -0.4068
10833TIP3    H153914   3.905   5.608   5.507  0.0576  0.7620  0.1403
10833TIP3    H253915   3.819   5.623   5.384 -1.3984 -0.4443  0.9801
10834TIP3   OH253916   0.780   0.847  10.925 -0.6071  0.3715  0.0325
10834TIP3    H153917   0.809   0.917  10.866  0.4990 -2.1175 -2.6564
10834TIP3    H253918   0.861   0.812  10.962 -1.2605  1.4846  2.6883
10835TIP3   OH253919   2.900   1.825  12.077  0.2736 -0.4246 -0.5588
10835TIP3    H153920   2.989   1.856  12.058  0.6090 -1.6213 -1.0705
10835TIP3    H253921   2.856   1.826  11.993 -0.4891  0.9661 -0.1672
10836TIP3   OH253922   5.402   3.455   4.329  0.3026 -0.5970 -0.8009
10836TIP3    H153923   5.331   3.409   4.285  0.3717 -0.7999 -0.7018
10836TIP3    H253924   5.479   3.438   4.276 -0.2178  2.0460 -2.5943
10837TIP3   OH253925   0.853   4.901  12.039 -0.3673  0.0853  0.2524
10837TIP3    H153926   0.762   4.899  12.067 -0.5539 -2.0807 -0.3813
10837TIP3    H253927   0.848   4.929  11.947 -0.8235 -3.3449 -0.9160
10838TIP3   OH253928   5.176   6.026   5.076 -0.1389 -0.0608  0.0865
10838TIP3    H153929   5.201   6.096   5.135 -0.5163 -0.9591  1.3616
10838TIP3    H253930   5.230   6.039   4.998  0.7583  0.8308  0.8384
10839TIP3   OH253931   5.188   2.686   2.044  0.6193  0.1607  0.2618
10839TIP3    H153932   5.197   2.707   1.951 -2.4028  0.3039 -0.1121
10839TIP3    H253933   5.137   2.759   2.080 -0.4717 -1.1035  1.4240
10840TIP3   OH253934   3.404   2.225  12.963 -0.4511 -0.0143  0.3821
10840TIP3    H153935   3.451   2.146  12.936  0.3833  0.7779 -0.5478
10840TIP3    H253936   3.323   2.223  12.912 -0.8608 -0.7128  1.0318
10841TIP3   OH253937   3.292   0.617   1.588 -0.3383 -0.1263  0.2999
10841TIP3    H153938   3.335   0.678   1.648  0.6933  0.6982 -1.2018
10841TIP3    H253939   3.310   0.530   1.624 -0.1225  0.3661  1.4043
10842TIP3   OH253940   6.268   0.803  13.787  0.2729 -0.4732 -0.4977
10842TIP3    H153941   6.244   0.767  13.872 -0.4250  0.2237 -0.3889
10842TIP3    H253942   6.298   0.892  13.806 -0.9582  0.0894 -1.0936
10843TIP3   OH253943   1.267   1.652   2.990  0.4465 -0.0077  0.4143
10843TIP3    H153944   1.296   1.562   3.005 -1.3554 -1.0479 -1.6135
10843TIP3    H253945   1.332   1.689   2.930  0.3797 -0.5117  0.0266
10844TIP3   OH253946   3.904   2.746  16.477 -0.4717  0.1303 -0.6620
10844TIP3    H153947   3.819   2.750  16.433 -0.6144 -0.1169 -0.4125
10844TIP3    H253948   3.890   2.787  16.562 -0.4254 -0.2043 -0.4896
10845TIP3   OH253949   2.915   2.116  16.605  0.4421  0.0717 -0.3770
10845TIP3    H153950   3.008   2.101  16.621  0.2365 -0.3501  0.4955
10845TIP3    H253951   2.891   2.185  16.667  0.2094  0.3204 -0.7368
10846TIP3   OH253952   1.423   4.163  12.680  0.6452  0.0581  0.0354
10846TIP3    H153953   1.508   4.207  12.685  2.1161 -2.7284  2.3935
10846TIP3    H253954   1.428   4.109  12.601  1.0905 -0.1237  0.1864
10847TIP3   OH253955   4.332   4.218   4.119 -0.0541 -0.1186 -0.6521
10847TIP3    H153956   4.318   4.186   4.030 -0.8860 -2.2096  0.1855
10847TIP3    H253957   4.247   4.249   4.148  0.4377  1.6029 -0.9192
10848TIP3   OH253958   1.783   4.347   2.149  0.3616 -0.5791  0.5941
10848TIP3    H153959   1.741   4.388   2.225 -1.2803 -1.2491  0.0881
10848TIP3    H253960   1.731   4.377   2.075  1.9971  0.1393 -0.3210
10849TIP3   OH253961   0.044   1.963  15.270  0.0085  0.9790 -0.4145
10849TIP3    H153962   0.140   1.974  15.267 -0.1009  1.6900 -2.0631
10849TIP3    H253963   0.016   2.027  15.336  0.7390 -0.0681  0.9837
10850TIP3   OH253964   3.818   1.628   5.655 -0.2837 -0.3174 -0.3770
10850TIP3    H153965   3.905   1.647   5.620 -0.2432  2.8756  1.1332
10850TIP3    H253966   3.832   1.613   5.748 -1.3610  0.8100  0.0020
10851TIP3   OH253967   0.211   2.592  15.977  0.1073 -0.5355  0.0925
10851TIP3    H153968   0.271   2.642  16.032 -0.6865 -0.1913  0.6577
10851TIP3    H253969   0.201   2.509  16.024 -0.4460 -0.3031  0.3854
10852TIP3   OH253970   2.458   5.907  16.202  0.4040 -0.4810  0.1726
10852TIP3    H153971   2.423   5.974  16.143 -0.2611 -0.5212  0.5100
10852TIP3    H253972   2.396   5.905  16.275  0.4402 -1.4266  0.1963
10853TIP3   OH253973   3.283   4.940  10.495 -0.0304 -0.3364  0.5447
10853TIP3    H153974   3.335   4.860  10.498 -1.2337 -1.1911 -0.2903
10853TIP3    H253975   3.335   5.004  10.544  1.2031 -1.4716  0.7959
10854TIP3   OH253976   0.587   5.538   4.102 -0.8613  0.4587  0.2393
10854TIP3    H153977   0.589   5.472   4.171  0.9869  0.0101 -0.1905
10854TIP3    H253978   0.532   5.608   4.137 -1.0875 -0.3617  1.5823
10855TIP3   OH253979   0.113   5.589  16.819  0.1204 -0.6824 -0.6079
10855TIP3    H153980   0.050   5.517  16.826 -1.3884  0.3841 -2.2879
10855TIP3    H253981   0.106   5.618  16.728  2.5524 -0.0293 -0.6606
10856TIP3   OH253982   6.107   2.540  16.944 -0.0411 -0.5978  0.0945
10856TIP3    H153983   6.033   2.548  16.883  1.2906 -1.7754 -1.8028
10856TIP3    H253984   6.088   2.603  17.013 -1.0896  1.7438 -2.1515
10857TIP3   OH253985   6.016   0.553   3.980  0.2720 -0.3802 -0.0530
10857TIP3    H153986   6.047   0.574   3.892  0.1946 -0.6964 -0.1568
10857TIP3    H253987   6.047   0.464   3.996  2.4493  0.5400  1.2271
10858TIP3   OH253988   3.208   2.646   3.849 -0.1571  0.4352  0.2312
10858TIP3    H153989   3.145   2.593   3.898  0.2618 -0.7499 -0.4537
10858TIP3    H253990   3.161   2.673   3.770  0.1323 -0.3109 -0.2016
10859TIP3   OH253991   4.324   3.970   3.402  0.0540  0.0281 -0.0074
10859TIP3    H153992   4.308   4.060   3.429  1.0650 -0.5084  2.6363
10859TIP3    H253993   4.260   3.918   3.450  1.6097 -0.9299  1.1249
10860TIP3   OH253994   1.880   0.430   0.078 -0.9339  0.3157  0.4342
10860TIP3    H153995   1.955   0.482   0.107 -0.4997 -0.6716  1.1379
10860TIP3    H253996   1.810   0.493   0.066  0.4457  1.5452 -1.9203
10861TIP3   OH253997   3.751   6.526  15.901  0.1082 -0.5551  0.4386
10861TIP3    H153998   3.689   6.593  15.929  0.4578  0.0515 -0.2018
10861TIP3    H253999   3.712   6.488  15.822 -1.8657 -3.6457  2.6667
10862TIP3   OH254000   2.402   1.868   3.084 -0.3513 -0.5571 -0.4684
10862TIP3    H154001   2.357   1.885   3.001 -0.3850  0.4809 -0.2477
10862TIP3    H254002   2.340   1.813   3.133 -0.6354 -0.5824 -0.8461
10863TIP3   OH254003   4.211   4.806   5.004  0.1694 -0.3703 -0.4702
10863TIP3    H154004   4.169   4.795   4.919  0.6188 -0.9088 -0.6257
10863TIP3    H254005   4.154   4.868   5.050 -0.9667 -1.3018 -0.5648
10864TIP3   OH254006   6.282   5.588   0.672 -0.0724  0.2414  0.0390
10864TIP3    H154007   6.188   5.598   0.686 -0.1202 -0.7205  0.5208
10864TIP3    H254008   6.317   5.574   0.760  0.1018 -2.4316 -0.3645
10865TIP3   OH254009   3.815   2.677  13.328  0.2694  0.2083  0.0339
10865TIP3    H154010   3.805   2.729  13.248 -0.0666 -2.2382 -1.6240
10865TIP3    H254011   3.905   2.646  13.325 -0.0277 -0.6760  0.0805
10866TIP3   OH254012   5.258   3.598  12.826  0.1427 -0.1959  0.4058
10866TIP3    H154013   5.199   3.586  12.901  0.8640  1.2259  1.2583
10866TIP3    H254014   5.317   3.523  12.831  0.1162 -0.1812  1.2275
10867TIP3   OH254015   3.832   0.899   6.043  0.0815  0.7342  0.2710
10867TIP3    H154016   3.874   0.910   6.128  0.5122  0.3360  0.1139
10867TIP3    H254017   3.740   0.924   6.058 -0.0000  0.0262  1.0122
10868TIP3   OH254018   4.499   2.745  11.551 -0.0507 -0.2374 -0.5894
10868TIP3    H154019   4.500   2.840  11.562  0.3989 -0.3711  0.7438
10868TIP3    H254020   4.406   2.723  11.538 -0.3330  0.2693  0.4328
10869TIP3   OH254021   4.032   3.918   0.704  0.2199  0.5267 -0.0377
10869TIP3    H154022   3.989   3.979   0.763 -2.9452  0.0503 -1.6688
10869TIP3    H254023   3.992   3.833   0.724  2.2611 -0.4776  0.0364
10870TIP3   OH254024   4.605   5.520   3.623 -0.2169  0.2348 -0.0951
10870TIP3    H154025   4.594   5.433   3.661 -1.5947  0.5879  0.3719
10870TIP3    H254026   4.535   5.573   3.661 -0.0581  1.2800 -1.1624
10871TIP3   OH254027   2.478   4.452  14.791 -0.5370 -0.6926 -0.2319
10871TIP3    H154028   2.388   4.425  14.806 -1.3355  1.0397 -1.6124
10871TIP3    H254029   2.508   4.483  14.877 -1.1619 -1.4619  0.2812
10872TIP3   OH254030   1.171   4.157  12.805 -0.0016  0.5134  0.0047
10872TIP3    H154031   1.256   4.172  12.764 -0.3353  1.5553 -0.3247
10872TIP3    H254032   1.178   4.199  12.891  0.5085 -1.1987  0.8553
10873TIP3   OH254033   2.611   2.987  13.116 -0.2980  0.5177  0.3291
10873TIP3    H154034   2.704   2.996  13.136 -0.2667  2.0102 -0.3111
10873TIP3    H254035   2.573   2.944  13.192  0.7643  0.7493  1.0072
10874TIP3   OH254036   1.193   5.318  14.450 -0.2167 -1.0901 -0.6563
10874TIP3    H154037   1.265   5.255  14.454 -0.4422 -1.4073 -1.5386
10874TIP3    H254038   1.198   5.365  14.534 -0.0110 -2.2372 -0.0142
10875TIP3   OH254039   4.377   0.489   0.688  0.4866  0.1865  0.2488
10875TIP3    H154040   4.432   0.561   0.659  0.5074  0.3064  0.5842
10875TIP3    H254041   4.312   0.529   0.745  1.0537 -0.1846  1.1689
10876TIP3   OH254042   1.091   6.310   3.201 -0.0590 -0.7085  0.0341
10876TIP3    H154043   1.068   6.358   3.121  0.2070  0.4475  0.6232
10876TIP3    H254044   1.065   6.220   3.183 -0.4097 -0.3889 -1.1890
10877TIP3   OH254045   1.275   4.051  16.243  0.4679 -0.1706  0.2890
10877TIP3    H154046   1.209   4.120  16.239  2.5840  2.1912  2.1500
10877TIP3    H254047   1.230   3.972  16.217 -2.7196  1.5197  0.2268
10878TIP3   OH254048   1.645   0.510   3.163  0.1854 -0.1023  0.1687
10878TIP3    H154049   1.592   0.434   3.186  2.3811 -1.7814  0.0523
10878TIP3    H254050   1.663   0.553   3.246 -1.3761  0.5574  0.1981
10879TIP3   OH254051   4.808   5.070  14.702  0.4303  0.9313 -0.5779
10879TIP3    H154052   4.825   5.115  14.619  1.7562  1.9033  0.1870
10879TIP3    H254053   4.852   4.985  14.692  1.3686  1.4066 -0.5345
10880TIP3   OH254054   6.733   4.232  15.085 -0.1421  0.2732 -0.8303
10880TIP3    H154055   6.746   4.325  15.070  1.1226  0.1771 -0.4472
10880TIP3    H254056   6.702   4.226  15.175  1.5681  0.2289 -0.2106
10881TIP3   OH254057   5.683   6.406  13.563 -0.2754  0.2658 -0.4414
10881TIP3    H154058   5.634   6.378  13.641 -1.0228  1.3220 -0.5075
10881TIP3    H254059   5.625   6.385  13.490 -0.6950  1.5868 -0.5153
10882TIP3   OH254060   5.952   6.261  15.719  0.2273  0.2231 -0.2582
10882TIP3    H154061   5.935   6.341  15.767  0.4611  0.4958 -0.6202
10882TIP3    H254062   6.032   6.226  15.758 -1.0591 -1.0149  1.3883
10883TIP3   OH254063   1.000   6.095  16.157  0.2302 -0.0153  0.1181
10883TIP3    H154064   0.958   6.172  16.196 -1.8050 -1.5194  1.0551
10883TIP3    H254065   0.948   6.076  16.079  0.0956 -0.9942  0.4299
10884TIP3   OH254066   2.903   3.517   5.787 -0.2177  0.4777 -0.0328
10884TIP3    H154067   2.888   3.571   5.710 -1.2852  0.5864  0.2383
10884TIP3    H254068   2.882   3.575   5.861 -3.8644 -0.9650  0.2303
10885TIP3   OH254069   5.871   6.504  12.497  0.4208  0.4618  0.2851
10885TIP3    H154070   5.883   6.533  12.588  0.6936 -2.0298  1.1421
10885TIP3    H254071   5.785   6.463  12.496 -0.2454  1.7912 -1.0326
10886TIP3   OH254072   5.360   0.389  15.206  0.4110  0.3253  0.3395
10886TIP3    H154073   5.332   0.427  15.289  0.6263 -0.5306  0.8106
10886TIP3    H254074   5.347   0.295  15.217 -0.9727  0.3024 -1.1181
10887TIP3   OH254075   1.868   5.460  12.485  0.1303 -0.6229 -0.5920
10887TIP3    H154076   1.784   5.431  12.450 -0.4604 -0.4454  0.6409
10887TIP3    H254077   1.874   5.553  12.460  0.0192 -0.6695 -0.7912
10888TIP3   OH254078   2.142   4.051   5.560  0.1176 -0.8252  0.4029
10888TIP3    H154079   2.053   4.086   5.554  0.0185 -0.9880  0.9160
10888TIP3    H254080   2.196   4.114   5.512 -0.5856 -1.8773 -1.9508
10889TIP3   OH254081   3.997   2.403  11.071 -0.3457  0.0800 -0.2582
10889TIP3    H154082   3.908   2.407  11.106  0.1651 -0.6944  1.2346
10889TIP3    H254083   4.050   2.375  11.145  1.3123  1.5170 -0.8464
10890TIP3   OH254084   5.071   1.119  14.772 -0.0678 -0.9575 -0.2849
10890TIP3    H154085   5.072   1.029  14.741  1.7122 -0.8682 -0.5596
10890TIP3    H254086   5.059   1.172  14.693  0.5744 -0.8905 -0.3397
10891TIP3   OH254087   6.608   0.037  13.757 -0.0756  0.1579  0.2575
10891TIP3    H154088   6.636   0.128  13.766  0.5615 -0.0015 -0.0470
10891TIP3    H254089   6.670  -0.013  13.809  1.1465 -0.3449 -1.5751
10892TIP3   OH254090   0.620   2.089  11.401  0.3235 -0.3843  0.3057
10892TIP3    H154091   0.628   2.033  11.478  0.8271 -1.1786 -0.3145
10892TIP3    H254092   0.706   2.129  11.391  0.7748 -1.5719 -0.8019
10893TIP3   OH254093   4.562   0.780  15.731 -0.0983 -0.3100  0.2901
10893TIP3    H154094   4.559   0.687  15.753 -3.2718 -1.2140 -2.9715
10893TIP3    H254095   4.471   0.805  15.717  0.8530  2.4311 -2.1186
10894TIP3   OH254096   6.388   5.298  16.572 -0.0591 -0.6350 -0.3764
10894TIP3    H154097   6.465   5.322  16.625  0.2501 -0.9631 -0.6723
10894TIP3    H254098   6.374   5.374  16.515 -0.9064  0.0823  0.7312
10895TIP3   OH254099   1.281   6.658  13.989  0.4677 -0.0806 -0.1356
10895TIP3    H154100   1.247   6.657  14.079  3.0570  1.2114  0.9698
10895TIP3    H254101   1.271   6.568  13.959 -1.0378 -0.4083  1.1868
10896TIP3   OH254102   2.726   2.857   5.604 -0.1618 -0.3718  0.3974
10896TIP3    H154103   2.805   2.858   5.657 -0.7282  1.2196  1.2800
10896TIP3    H254104   2.754   2.890   5.518  0.0695  0.5950  0.8310
10897TIP3   OH254105   6.544   2.578  12.617  0.2207  0.0147  0.1540
10897TIP3    H154106   6.467   2.552  12.668 -1.3015 -0.2163 -2.1076
10897TIP3    H254107   6.571   2.499  12.572  1.4290  0.2552  0.4052
10898TIP3   OH254108   4.640   3.390  14.965 -0.4884  0.3135 -0.1143
10898TIP3    H154109   4.580   3.447  14.917 -0.8938  0.5625  0.6761
10898TIP3    H254110   4.612   3.302  14.943 -0.6089  0.4248 -0.4139
10899TIP3   OH254111   1.529   1.723  14.491 -0.5467 -0.0652 -0.0955
10899TIP3    H154112   1.445   1.769  14.498 -0.7101 -0.3280 -0.2948
10899TIP3    H254113   1.580   1.755  14.565 -0.8575  0.0280  0.0819
10900TIP3   OH254114   4.451   4.071  12.012  0.6610  0.3147 -0.0905
10900TIP3    H154115   4.397   4.122  12.072 -0.6221 -0.8208 -0.2459
10900TIP3    H254116   4.420   3.981  12.020  1.8607 -0.2112 -0.9340
10901TIP3   OH254117   3.990   0.792  15.614  0.0625 -0.4687  0.0976
10901TIP3    H154118   4.037   0.842  15.680 -0.7329 -0.6394  0.8022
10901TIP3    H254119   4.056   0.776  15.546  0.3306  1.6183 -0.2251
10902TIP3   OH254120   3.199   0.946   1.402  0.1720  0.5629  0.0250
10902TIP3    H154121   3.254   1.019   1.374  0.8899  0.0627  0.0746
10902TIP3    H254122   3.223   0.931   1.494 -0.8468  1.0326  0.3715
10903TIP3   OH254123   6.288   4.233  14.751 -0.7961 -0.4973  0.1283
10903TIP3    H154124   6.319   4.178  14.823  0.3089 -1.7131 -1.2008
10903TIP3    H254125   6.218   4.286  14.789 -0.4837 -1.3351  1.9884
10904TIP3   OH254126   4.761   0.788   4.785  0.7818 -0.1233  0.0528
10904TIP3    H154127   4.695   0.818   4.723  1.0045 -0.3881 -0.3129
10904TIP3    H254128   4.755   0.692   4.782 -0.0171 -0.1360  1.3048
10905TIP3   OH254129   0.026   4.825   2.572  0.4170 -0.6260  0.1851
10905TIP3    H154130   0.038   4.766   2.646  1.3177  0.0412  0.5921
10905TIP3    H254131   0.045   4.912   2.607 -1.4879  0.0276 -0.2319
10906TIP3   OH254132   5.075   4.141   4.779  0.0301  0.0411 -0.2281
10906TIP3    H154133   5.108   4.104   4.861 -1.1723 -1.2306 -0.2854
10906TIP3    H254134   4.992   4.183   4.804 -0.9796 -1.4252 -0.9515
10907TIP3   OH254135   6.370   4.065  14.985 -0.0411  0.2333  0.1084
10907TIP3    H154136   6.414   4.086  15.067  0.5953  0.3174 -0.2512
10907TIP3    H254137   6.353   3.971  14.990  1.2506 -0.0289 -0.2570
10908TIP3   OH254138   0.451   4.607  14.845  0.4967  0.3257 -0.6256
10908TIP3    H154139   0.535   4.560  14.849  0.3458  0.0536 -0.6813
10908TIP3    H254140   0.450   4.646  14.758  1.2327  1.5661 -0.1159
10909TIP3   OH254141   2.977   3.023  12.239 -0.1995 -0.2722 -0.1843
10909TIP3    H154142   2.900   3.050  12.288  0.0648  2.2196 -0.9857
10909TIP3    H254143   2.957   3.046  12.148  0.5484 -1.8421 -0.7813
10910TIP3   OH254144   1.013   3.440   4.968 -0.0380 -0.6619 -0.8282
10910TIP3    H154145   0.928   3.423   4.926 -0.1941 -2.8339  0.2271
10910TIP3    H254146   1.064   3.361   4.950  0.0051 -1.5667  2.6593
10911TIP3   OH254147   5.495   4.797   0.347  0.1379 -0.0740 -0.6810
10911TIP3    H154148   5.440   4.778   0.423 -1.4636 -1.0104 -2.0054
10911TIP3    H254149   5.557   4.724   0.343 -0.2356 -0.3966 -0.6613
10912TIP3   OH254150   6.326   2.903  11.580 -0.2116 -0.0593  0.2967
10912TIP3    H154151   6.421   2.888  11.575 -0.2174 -1.4742  2.7440
10912TIP3    H254152   6.314   2.993  11.551  1.9492  0.3300  0.4432
10913TIP3   OH254153   3.423   6.232  15.921  0.6376 -0.0221 -1.0292
10913TIP3    H154154   3.427   6.234  15.825 -0.0051 -0.5612 -1.0777
10913TIP3    H254155   3.386   6.317  15.945  0.8623  0.1394 -1.2583
10914TIP3   OH254156   3.675   0.089  11.120 -0.2195  0.2960  0.2559
10914TIP3    H154157   3.652  -0.002  11.139 -0.2488  0.5684  1.6273
10914TIP3    H254158   3.770   0.088  11.108 -0.1529  0.1673  0.7869
10915TIP3   OH254159   6.245   5.362  13.921  0.1577 -0.2265  0.0468
10915TIP3    H154160   6.156   5.334  13.902 -0.4350  2.9032 -2.4740
10915TIP3    H254161   6.297   5.326  13.850  0.3682  0.3994 -0.1191
10916TIP3   OH254162   1.341   2.275   4.912 -0.0355 -0.4140  0.2942
10916TIP3    H154163   1.376   2.237   4.831 -0.8701  1.9707 -1.2967
10916TIP3    H254164   1.417   2.316   4.953 -0.1522  1.3648 -1.1350
10917TIP3   OH254165   0.847   1.255   2.059 -0.2710  0.5909  0.5245
10917TIP3    H154166   0.854   1.242   2.154 -0.8307 -3.6130  0.2171
10917TIP3    H254167   0.789   1.329   2.049 -1.4199  0.2429  3.5322
10918TIP3   OH254168   6.275   2.849  15.554  0.1029 -0.0242  0.5598
10918TIP3    H154169   6.347   2.895  15.596  1.0624 -0.2005 -0.8404
10918TIP3    H254170   6.224   2.812  15.627 -0.2077  2.4656  1.6890
10919TIP3   OH254171   2.058   0.312  13.547  0.3213 -0.2849 -0.1024
10919TIP3    H154172   2.106   0.255  13.486  3.4832  2.6516 -0.6888
10919TIP3    H254173   2.095   0.292  13.633  0.6726  0.1151 -0.1572
10920TIP3   OH254174   4.536   3.204   1.901  0.1269 -0.6309  0.0103
10920TIP3    H154175   4.468   3.165   1.846  0.0962  1.2072 -1.3335
10920TIP3    H254176   4.610   3.219   1.841  1.4175 -1.7028  1.2389
10921TIP3   OH254177   2.298   3.296   1.853 -0.3381 -0.2646 -0.5186
10921TIP3    H154178   2.236   3.360   1.887 -0.5363 -1.5455  1.7243
10921TIP3    H254179   2.384   3.338   1.864 -0.5820  0.2506 -0.5703
10922TIP3   OH254180   2.220   1.543   1.402  0.3747 -0.3834 -0.0823
10922TIP3    H154181   2.235   1.449   1.416  0.7922 -0.5085 -1.2457
10922TIP3    H254182   2.133   1.559   1.436 -0.2440 -1.4956 -1.0731
10923TIP3   OH254183   1.147   4.430  12.943  0.0582 -0.3550 -0.1175
10923TIP3    H154184   1.200   4.416  13.022 -0.9577  0.7742  0.8170
10923TIP3    H254185   1.209   4.457  12.876  0.6909  1.2554  1.0381
10924TIP3   OH254186   6.002   6.130  12.608 -0.5342  0.1573  0.0674
10924TIP3    H154187   5.912   6.157  12.586 -0.6119 -0.0639  0.1037
10924TIP3    H254188   6.004   6.036  12.586  0.1409  0.4824 -1.3685
10925TIP3   OH254189   5.952   4.669  14.029  0.3256 -0.0540  0.4671
10925TIP3    H154190   5.897   4.715  13.966  0.7577 -0.1406  0.0247
10925TIP3    H254191   5.894   4.653  14.104  0.0319  0.7709  0.4300
10926TIP3   OH254192   2.102   2.986  10.991  0.0521  0.3918 -0.0008
10926TIP3    H154193   2.055   2.904  10.987  0.7471  0.0014 -0.3934
10926TIP3    H254194   2.069   3.037  10.917 -0.6824  0.6400  0.4923
10927TIP3   OH254195   2.292   0.257   0.368  0.2089  0.5694  0.1495
10927TIP3    H154196   2.351   0.314   0.416  2.1946 -1.4935  0.3108
10927TIP3    H254197   2.344   0.223   0.296 -1.0597 -0.6264 -0.2537
10928TIP3   OH254198   0.849   1.331   2.833 -0.0295 -0.5012  0.5478
10928TIP3    H154199   0.805   1.312   2.750  1.2325  1.4394 -0.6484
10928TIP3    H254200   0.779   1.333   2.898 -1.3086 -0.2752 -0.7926
10929TIP3   OH254201   4.493   2.081  11.444 -0.4275  0.0157 -0.3546
10929TIP3    H154202   4.508   2.117  11.356 -1.4137 -1.4530 -1.1658
10929TIP3    H254203   4.554   2.008  11.450 -0.0992  0.3435  0.3486
10930TIP3   OH254204   2.556   3.543   3.342  0.1240 -0.0594  0.2447
10930TIP3    H154205   2.526   3.481   3.408  0.4446  1.2692  1.6868
10930TIP3    H254206   2.652   3.540   3.348  0.1477  0.3355  0.0939
10931TIP3   OH254207   0.662   1.875  12.706  0.0472  0.5227  0.6126
10931TIP3    H154208   0.576   1.917  12.704 -0.7749 -1.0173  1.2356
10931TIP3    H254209   0.722   1.941  12.673 -1.3560  1.6908  0.2784
10932TIP3   OH254210   0.590   3.909  11.116  0.2527  0.1133  0.5712
10932TIP3    H154211   0.559   3.827  11.077  0.3225 -0.2595  1.2728
10932TIP3    H254212   0.551   3.978  11.063 -0.3215 -0.3732  0.3576
10933TIP3   OH254213   2.929   6.277   5.120 -0.0584 -0.4101 -0.1212
10933TIP3    H154214   2.951   6.337   5.049  0.4789  1.6619  1.6864
10933TIP3    H254215   2.949   6.190   5.085  0.1866  0.5214 -2.4701
10934TIP3   OH254216   5.112   5.537   2.288  0.7881 -1.2534  0.4689
10934TIP3    H154217   5.158   5.460   2.323  0.7605 -1.6797 -0.4167
10934TIP3    H254218   5.055   5.502   2.220  0.7779 -0.4377  0.0489
10935TIP3   OH254219   1.917   6.087  16.104 -0.5217  0.4098 -0.4121
10935TIP3    H154220   1.975   6.117  16.175 -1.5112 -1.0743  1.1107
10935TIP3    H254221   1.829   6.104  16.137 -1.0056 -0.1187 -1.3891
10936TIP3   OH254222   1.908   0.412   3.763 -0.2096  0.1740  0.0321
10936TIP3    H154223   1.907   0.401   3.668  1.1731 -0.4019  0.0651
10936TIP3    H254224   1.865   0.334   3.797  1.7121 -0.9738 -0.0530
10937TIP3   OH254225   1.258   2.762  11.477 -0.0127 -0.5643 -0.3745
10937TIP3    H154226   1.229   2.672  11.463 -1.2203  0.0104 -1.8884
10937TIP3    H254227   1.338   2.770  11.425  1.3288 -1.3046  1.4445
10938TIP3   OH254228   2.237   5.345   4.771  0.7654 -0.0252  0.1094
10938TIP3    H154229   2.291   5.413   4.732 -0.4412  0.8704 -0.0634
10938TIP3    H254230   2.291   5.306   4.839  1.9131  0.2586 -0.6164
10939TIP3   OH254231   1.350   3.238  13.185  0.1137  0.1531 -0.2659
10939TIP3    H154232   1.379   3.159  13.230 -0.1259 -0.4724 -1.2026
10939TIP3    H254233   1.425   3.297  13.190  1.1282 -0.9741 -1.5600
10940TIP3   OH254234   0.069   2.372  12.616  0.2319  0.0216  0.4773
10940TIP3    H154235   0.060   2.287  12.573  0.5130 -0.5022  1.4494
10940TIP3    H254236   0.162   2.378  12.639  0.3833  0.9476 -0.3004
10941TIP3   OH254237   3.552   6.603   5.322 -0.4397 -0.1332 -0.0569
10941TIP3    H154238   3.547   6.528   5.263  1.6128 -0.4078  0.0446
10941TIP3    H254239   3.565   6.565   5.409  1.6513  0.3024 -0.1365
10942TIP3   OH254240   0.616   0.135   6.821 -0.0501  0.6219 -0.5264
10942TIP3    H154241   0.532   0.145   6.777 -0.1990  1.0238 -0.1700
10942TIP3    H254242   0.673   0.200   6.779  0.1201  0.2723 -0.8448
10943TIP3   OH254243   6.814   4.730   4.224  0.2426 -0.7235  0.1999
10943TIP3    H154244   6.765   4.794   4.275 -2.2592 -3.0424  0.9432
10943TIP3    H254245   6.865   4.682   4.290  0.2625 -1.0225 -0.0307
10944TIP3   OH254246   0.644   0.468  11.549 -0.2422 -0.0066  0.3413
10944TIP3    H154247   0.555   0.452  11.519 -0.1361  0.1469 -0.0719
10944TIP3    H254248   0.643   0.448  11.642  0.2879 -4.0220 -0.3670
10945TIP3   OH254249   4.575   0.049  11.964  0.6131 -0.1753  0.4727
10945TIP3    H154250   4.515   0.071  11.893  0.4308  0.8775  0.9328
10945TIP3    H254251   4.519   0.043  12.041  0.8304 -1.1598  0.5643
10946TIP3   OH254252   4.898   1.234  10.924 -0.5483  0.8648  0.8834
10946TIP3    H154253   4.844   1.256  10.848 -0.2643  1.5507  0.8659
10946TIP3    H254254   4.835   1.205  10.990 -0.6193 -2.4664 -0.4435
10947TIP3   OH254255   5.852   1.241  16.700  0.3012  0.1674  0.4799
10947TIP3    H154256   5.799   1.319  16.681  0.1809  0.0108  0.1650
10947TIP3    H254257   5.843   1.228  16.794 -0.2344  0.1288  0.4244
10948TIP3   OH254258   4.929   4.978  13.099 -0.7043  0.1784 -0.4826
10948TIP3    H154259   4.938   4.906  13.037  1.0071 -0.2025  0.1400
10948TIP3    H254260   4.851   4.958  13.149  0.1980 -1.7307  0.2506
10949TIP3   OH254261   6.816   5.418  12.699 -0.1877  0.0468  0.2809
10949TIP3    H154262   6.754   5.487  12.673 -1.9342 -1.2524  0.7767
10949TIP3    H254263   6.778   5.381  12.778  1.0193 -1.1000  0.3504
10950TIP3   OH254264   1.895   3.181  11.465  0.0504 -0.1016  0.0320
10950TIP3    H154265   1.918   3.271  11.488 -0.5848  0.1826 -0.3896
10950TIP3    H254266   1.914   3.175  11.371  2.4754 -1.1986  0.5172
10951TIP3   OH254267   3.606   3.526  14.937 -0.0349 -0.0010  0.1585
10951TIP3    H154268   3.535   3.537  14.874 -0.3839 -0.1701  0.5189
10951TIP3    H254269   3.563   3.530  15.022  0.6198  1.8714  0.4678
10952TIP3   OH254270   2.239   2.645   3.586  0.2885 -0.2278 -0.1579
10952TIP3    H154271   2.155   2.600   3.577  0.6597 -1.0196  0.2884
10952TIP3    H254272   2.304   2.577   3.569  0.8472  0.2609  0.0264
10953TIP3   OH254273   4.030   5.535   2.854 -0.3289  0.6476 -0.0863
10953TIP3    H154274   4.057   5.506   2.767  0.6900  1.1217  0.0573
10953TIP3    H254275   3.957   5.595   2.837 -0.3279  0.5116 -0.5912
10954TIP3   OH254276   0.440   1.742   2.685  0.0629 -0.0645  0.4445
10954TIP3    H154277   0.381   1.679   2.645  0.8071 -0.1586 -0.5386
10954TIP3    H254278   0.465   1.702   2.769  0.2178 -0.8961  0.0116
10955TIP3   OH254279   2.168   4.116  16.449  0.4921  0.7894  0.2007
10955TIP3    H154280   2.259   4.121  16.419 -0.0139  0.9353 -1.4335
10955TIP3    H254281   2.136   4.034  16.413  0.4112 -0.0923  2.1722
10956TIP3   OH254282   1.965   4.777  10.477  0.6940 -0.1007  0.2013
10956TIP3    H154283   1.883   4.728  10.489  0.8658 -0.5905 -0.5451
10956TIP3    H254284   2.028   4.731  10.534  0.8047 -0.6393 -0.3424
10957TIP3   OH254285   3.300   3.629   0.068  0.8903 -0.2058  0.4023
10957TIP3    H154286   3.232   3.658   0.008  0.7794 -3.0427 -0.9880
10957TIP3    H254287   3.360   3.704   0.074 -0.3406  0.9900 -1.3665
10958TIP3   OH254288   1.794   5.346  11.418  0.0176 -0.2373  0.0952
10958TIP3    H154289   1.786   5.409  11.345  0.8269  0.5518  0.6690
10958TIP3    H254290   1.874   5.298  11.399  0.2464 -0.0071  0.4884
10959TIP3   OH254291   0.107   2.656  12.877 -0.8426  0.0941 -0.0183
10959TIP3    H154292   0.133   2.657  12.785  0.0448  0.8999  0.2254
10959TIP3    H254293   0.038   2.589  12.882 -1.6394  0.7747 -1.4426
10960TIP3   OH254294   1.948   5.220  15.303 -0.1672  0.4000 -0.5921
10960TIP3    H154295   1.864   5.192  15.266 -0.6551  1.1652 -0.1102
10960TIP3    H254296   1.940   5.199  15.397 -0.7479  2.5078 -0.1161
10961TIP3   OH254297   3.322   2.070  14.659 -0.3566 -0.1882  0.1749
10961TIP3    H154298   3.405   2.039  14.622 -1.4043 -2.6484 -0.2954
10961TIP3    H254299   3.283   2.123  14.589 -0.5901 -1.6628 -0.8579
10962TIP3   OH254300   1.573   6.162   1.581 -0.2144  0.2613  0.0340
10962TIP3    H154301   1.544   6.078   1.617 -1.9541  1.0992  0.7148
10962TIP3    H254302   1.493   6.204   1.551  0.4601  2.1440  0.7132
10963TIP3   OH254303   1.107   4.044   1.214  0.1285 -0.0186 -0.1673
10963TIP3    H154304   1.025   4.083   1.181  1.1536  1.8927 -0.5989
10963TIP3    H254305   1.132   4.101   1.287  0.4556 -1.3291  0.7803
10964TIP3   OH254306   2.575   2.832   5.945 -0.0997 -0.7753 -0.0434
10964TIP3    H154307   2.647   2.842   6.008  0.2086 -0.1406 -0.4866
10964TIP3    H254308   2.574   2.738   5.924  0.3695 -0.8438  0.2340
10965TIP3   OH254309   1.039   2.243  15.912 -0.4357 -0.0059  0.2385
10965TIP3    H154310   1.057   2.317  15.854 -1.3013 -0.5522 -0.7642
10965TIP3    H254311   0.948   2.219  15.892 -0.8855 -0.0055  2.0632
10966TIP3   OH254312   3.953   5.390   0.706 -0.2371  0.1904 -0.4019
10966TIP3    H154313   3.872   5.410   0.753 -0.5014  0.5413 -1.0007
10966TIP3    H254314   4.010   5.351   0.773 -0.7685  0.2634  0.1040
10967TIP3   OH254315   5.637   2.539   5.257  0.3753  0.6985 -0.2278
10967TIP3    H154316   5.595   2.483   5.192 -0.5088 -1.5478  2.1274
10967TIP3    H254317   5.565   2.591   5.295  0.5247  0.4836  0.3647
10968TIP3   OH254318   4.908   3.151  16.282 -0.1702 -0.6346  0.6007
10968TIP3    H154319   4.912   3.245  16.263 -2.1739 -0.6871 -0.3609
10968TIP3    H254320   4.815   3.134  16.298 -0.0233 -2.6808 -0.4570
10969TIP3   OH254321   0.537   2.472  16.133  0.0924  0.0584 -0.0760
10969TIP3    H154322   0.506   2.398  16.082 -0.5577 -0.8417  1.5448
10969TIP3    H254323   0.607   2.436  16.188  1.7199  1.2999 -1.2213
10970TIP3   OH254324   4.563   5.467   5.894 -0.2157 -0.4879  0.3917
10970TIP3    H154325   4.502   5.536   5.864 -0.2991 -0.1034  1.4202
10970TIP3    H254326   4.548   5.461   5.988  1.3779 -0.3607  0.6726
10971TIP3   OH254327   5.385   3.812  16.909  0.0061 -0.8518  0.2838
10971TIP3    H154328   5.406   3.849  16.995  1.4433 -2.5329  0.7123
10971TIP3    H254329   5.320   3.744  16.928 -1.2491  0.1429 -0.2704
10972TIP3   OH254330   2.842   0.615  14.081 -0.3364  0.0485  0.2976
10972TIP3    H154331   2.918   0.608  14.138 -0.5380  0.9707  0.6820
10972TIP3    H254332   2.800   0.529  14.088  1.5934 -1.1146 -1.2769
10973TIP3   OH254333   5.279   4.960   4.726  0.3803  0.6164 -0.3507
10973TIP3    H154334   5.289   5.047   4.764  2.6619  0.3113 -0.0845
10973TIP3    H254335   5.346   4.907   4.769 -0.3870 -1.0576 -1.1198
10974TIP3   OH254336   0.031   1.177  15.764 -0.0770  0.0543  0.5694
10974TIP3    H154337   0.071   1.150  15.847 -2.5283 -0.9572  1.5235
10974TIP3    H254338  -0.050   1.220  15.790 -1.4031 -1.1779 -1.2980
10975TIP3   OH254339   5.954   5.383  11.021  0.0058  0.2064  0.1966
10975TIP3    H154340   6.016   5.312  11.010  1.8893  1.6820  0.8367
10975TIP3    H254341   5.913   5.366  11.106 -0.3847 -0.6769 -0.1551
10976TIP3   OH254342   3.206   4.637   4.960  0.2767  0.1520 -0.1165
10976TIP3    H154343   3.285   4.603   4.918  1.0973  0.8948  0.7867
10976TIP3    H254344   3.233   4.721   4.998 -1.0777  0.6561 -0.2138
10977TIP3   OH254345   0.231   4.830   5.591 -0.0453  0.2361 -0.3607
10977TIP3    H154346   0.244   4.921   5.618  1.5872  0.3500 -1.4281
10977TIP3    H254347   0.302   4.781   5.633  0.8880 -0.0239 -2.1426
10978TIP3   OH254348   2.785   0.424   1.898 -0.5392  0.2567 -0.3680
10978TIP3    H154349   2.816   0.436   1.808 -0.6808  2.3382 -0.2053
10978TIP3    H254350   2.865   0.429   1.951 -0.6600  1.3661 -0.2530
10979TIP3   OH254351   3.370   6.239   0.891 -0.1798  0.7117  0.1383
10979TIP3    H154352   3.370   6.234   0.986 -0.5745  2.0316  0.2315
10979TIP3    H254353   3.314   6.167   0.862  0.3408  0.0035  0.8723
10980TIP3   OH254354   6.708   5.149   3.092  0.4735  0.0878 -0.1028
10980TIP3    H154355   6.640   5.216   3.081 -0.0107 -0.0368  1.8331
10980TIP3    H254356   6.668   5.069   3.057 -0.0498  0.1970  0.2289
10981TIP3   OH254357   0.493   4.693  15.954  0.6055  0.2871 -0.6181
10981TIP3    H154358   0.464   4.612  15.914 -0.8518 -0.6706  2.1364
10981TIP3    H254359   0.574   4.670  16.000  0.4936  0.5495 -0.2874
10982TIP3   OH254360   6.278   2.547   3.337  0.0437  0.4220  0.2960
10982TIP3    H154361   6.330   2.469   3.355  1.3762  1.2760  0.2708
10982TIP3    H254362   6.252   2.537   3.245  0.7051  0.2847  0.1187
10983TIP3   OH254363   4.743   4.831  15.500  0.4221 -0.8507 -0.1973
10983TIP3    H154364   4.746   4.789  15.414  2.3049 -0.1379 -0.5315
10983TIP3    H254365   4.764   4.923  15.482 -0.3914 -0.4231  0.8953
10984TIP3   OH254366   4.868   2.205  13.911 -0.3459  0.0098 -0.4909
10984TIP3    H154367   4.907   2.236  13.830 -0.0438  2.1945  0.4307
10984TIP3    H254368   4.931   2.141  13.945  0.7303  0.8846 -0.7869
10985TIP3   OH254369   4.962   2.599  16.725 -0.5796  0.1424  0.2793
10985TIP3    H154370   5.058   2.599  16.715 -0.6582 -1.1458 -0.8714
10985TIP3    H254371   4.945   2.527  16.785 -0.8496  0.0109  0.0466
10986TIP3   OH254372   2.928   2.628   3.226  0.2132  0.6551 -0.1372
10986TIP3    H154373   2.950   2.679   3.304  0.2676 -1.4131  1.2907
10986TIP3    H254374   2.858   2.678   3.183  0.5894  2.1306  0.9184
10987TIP3   OH254375   0.684   2.093   0.655  0.1753  0.4769 -0.3577
10987TIP3    H154376   0.752   2.096   0.723  0.2014  2.2895 -0.4256
10987TIP3    H254377   0.606   2.062   0.702  0.4492  0.7188  0.2781
10988TIP3   OH254378   5.744   4.337  12.181  0.2132 -0.4740 -0.1665
10988TIP3    H154379   5.706   4.334  12.269 -0.9604 -2.1913 -0.6945
10988TIP3    H254380   5.701   4.411  12.139 -0.4286 -0.6461  0.1822
10989TIP3   OH254381   1.708   4.919   2.095  0.0270  0.3233 -0.0419
10989TIP3    H154382   1.623   4.907   2.138 -0.2612  0.9370 -0.4121
10989TIP3    H254383   1.750   4.834   2.100 -0.1674  0.2805  1.0827
10990TIP3   OH254384   4.124   4.090   4.382  0.0450 -0.0066  0.1777
10990TIP3    H154385   4.110   4.103   4.288 -1.7727 -1.9574  0.1142
10990TIP3    H254386   4.078   4.163   4.424 -0.8638 -0.2263 -0.4131
10991TIP3   OH254387   2.923   2.310   1.354 -0.6734 -0.0076 -0.4590
10991TIP3    H154388   2.961   2.306   1.266 -1.4416  0.9028 -0.8454
10991TIP3    H254389   2.830   2.291   1.341 -0.9146  0.7953  0.0640
10992TIP3   OH254390   0.806   5.060   0.287  0.0902  0.3945 -0.5159
10992TIP3    H154391   0.825   5.021   0.372 -0.1990  0.7985 -0.2629
10992TIP3    H254392   0.800   5.154   0.305 -0.2223  0.4567 -0.9368
10993TIP3   OH254393   0.941   1.897  14.110  0.0223 -0.6666  0.0320
10993TIP3    H154394   0.932   1.964  14.178 -0.6015 -1.6202  0.9175
10993TIP3    H254395   0.863   1.907  14.056  0.5630  0.1524 -0.6353
10994TIP3   OH254396   2.877   2.022   0.255 -0.4836  0.4127 -0.1455
10994TIP3    H154397   2.870   1.927   0.254 -0.1388  0.3170  2.0293
10994TIP3    H254398   2.968   2.039   0.278 -0.6168  1.2656 -0.2201
10995TIP3   OH254399   2.903   4.163  16.020 -0.0876 -0.4317 -0.2226
10995TIP3    H154400   2.849   4.135  16.094 -0.1096 -0.4596 -0.2491
10995TIP3    H254401   2.993   4.147  16.048  0.0282  1.3007  0.5409
10996TIP3   OH254402   5.949   5.424  13.179 -0.4300  0.6413  0.2513
10996TIP3    H154403   5.965   5.334  13.206 -1.7823  0.5128  0.6931
10996TIP3    H254404   6.032   5.469  13.197  0.0792 -0.3802  0.5574
10997TIP3   OH254405   5.854   6.478   3.616 -0.4133  0.2482  0.0361
10997TIP3    H154406   5.812   6.397   3.587 -0.8043  0.0715  1.0526
10997TIP3    H254407   5.849   6.474   3.712  1.4165  0.4878  0.1708
10998TIP3   OH254408   1.080   2.925  16.435 -0.1368  0.5926 -0.0019
10998TIP3    H154409   1.131   2.934  16.516 -1.0781  1.7740  0.5012
10998TIP3    H254410   1.078   3.014  16.399 -0.6683  0.2890 -0.7312
10999TIP3   OH254411   5.983   0.711  13.708 -0.0153 -0.0081 -0.3190
10999TIP3    H154412   6.049   0.642  13.699 -0.1177 -0.1175 -0.2354
10999TIP3    H254413   6.026   0.778  13.761  0.2628  0.2225 -0.8335
11000TIP3   OH254414   0.097   0.975  11.494 -0.0970 -0.2437 -0.1718
11000TIP3    H154415   0.041   1.052  11.503 -1.0686 -1.0396  0.9824
11000TIP3    H254416   0.045   0.903  11.530  0.8558 -1.4150 -1.0364
11001TIP3   OH254417   4.900   0.694  15.874 -0.4627  0.1521 -0.4413
11001TIP3    H154418   4.896   0.716  15.781  1.8943 -0.0613 -0.6589
11001TIP3    H254419   4.971   0.630  15.880 -2.0158 -1.5474  1.2337
11002TIP3   OH254420   1.953   6.454  11.051 -0.1102 -0.1494  0.1004
11002TIP3    H154421   1.983   6.476  10.963 -0.3208 -0.3070 -0.0096
11002TIP3    H254422   1.865   6.490  11.057 -0.0590 -0.0487  0.2836
11003TIP3   OH254423   3.908   5.433  14.125  0.0852 -0.1455 -0.3911
11003TIP3    H154424   3.869   5.511  14.163  0.7217  0.1717 -0.3735
11003TIP3    H254425   3.861   5.420  14.042 -0.7936 -0.4098  0.1338
11004TIP3   OH254426   2.960   3.919   5.898 -0.6282  0.3997 -0.2453
11004TIP3    H154427   2.889   3.968   5.939 -0.9808 -0.4843  0.2357
11004TIP3    H254428   3.020   3.899   5.970 -0.7220 -0.2612 -0.3419
11005TIP3   OH254429   0.142   4.329   3.741 -0.5348 -0.4300 -0.4802
11005TIP3    H154430   0.187   4.244   3.744 -1.9825 -1.4281 -3.2576
11005TIP3    H254431   0.167   4.366   3.656 -1.9078  0.7619 -0.4006
11006TIP3   OH254432   4.928   6.518  12.156  0.1000 -0.2656 -0.3329
11006TIP3    H154433   4.982   6.481  12.086  0.6616  1.4495 -0.8627
11006TIP3    H254434   4.843   6.531  12.115  0.6551  1.5206 -1.0142
11007TIP3   OH254435   1.052   5.147   5.434  0.3445  0.2325  0.8854
11007TIP3    H154436   1.010   5.184   5.356  0.3634 -1.7252 -0.1035
11007TIP3    H254437   1.096   5.068   5.403 -0.5625 -1.2214  3.0365
11008TIP3   OH254438   4.504   6.103  12.879 -0.3230 -0.0244  0.1913
11008TIP3    H154439   4.456   6.178  12.845  0.5466  0.7295  0.6068
11008TIP3    H254440   4.538   6.132  12.963  0.1948 -0.8183  0.2671
11009TIP3   OH254441   5.577   2.738  16.633  0.4225  0.1639  0.0612
11009TIP3    H154442   5.633   2.769  16.562  0.1937  1.0208  0.2313
11009TIP3    H254443   5.501   2.796  16.631 -1.3804 -2.0943 -1.3099
11010TIP3   OH254444   3.612   0.201   5.918  0.1537  0.2810  0.2854
11010TIP3    H154445   3.601   0.235   6.006  0.6449  0.4574  0.2831
11010TIP3    H254446   3.672   0.264   5.875 -1.2367  1.0346 -0.6395
11011TIP3   OH254447   3.540   5.369   5.159  0.2561 -0.3060  0.0107
11011TIP3    H154448   3.548   5.433   5.231  2.0166 -0.0298 -0.3678
11011TIP3    H254449   3.458   5.391   5.116 -1.6698 -1.4206  2.7774
11012TIP3   OH254450   3.633   5.309   1.634  0.3368 -0.0967  0.3908
11012TIP3    H154451   3.620   5.390   1.584 -1.2715  0.8690  2.2480
11012TIP3    H254452   3.712   5.271   1.597  0.0900  1.3278 -1.8307
11013TIP3   OH254453   2.852   1.669   4.234 -0.0847 -0.4184  0.2354
11013TIP3    H154454   2.855   1.653   4.139 -0.2687  0.6491  0.0364
11013TIP3    H254455   2.937   1.709   4.254 -1.2117  2.3778 -0.0987
11014TIP3   OH254456   0.668   0.939   2.450 -0.0607  0.4001 -0.7071
11014TIP3    H154457   0.636   0.874   2.389 -3.8870  1.2010  0.1818
11014TIP3    H254458   0.665   1.022   2.402 -1.4522  0.7872  0.0042
11015TIP3   OH254459   3.537   3.550   1.650  0.0645  0.6903 -0.2640
11015TIP3    H154460   3.556   3.632   1.695  1.0389  0.2532  0.1444
11015TIP3    H254461   3.613   3.494   1.667 -0.6070 -0.3282 -0.4740
11016TIP3   OH254462   2.606   2.740   2.555  0.2358  0.5483 -0.0426
11016TIP3    H154463   2.634   2.772   2.469  0.3759  0.0384 -0.1868
11016TIP3    H254464   2.549   2.810   2.589  0.0212  0.6638 -0.6311
11017TIP3   OH254465   5.100   1.180  14.451 -0.1300  0.1660 -0.1343
11017TIP3    H154466   5.181   1.214  14.413 -0.7519 -0.1444 -1.7886
11017TIP3    H254467   5.037   1.250  14.438 -0.7073 -0.5006 -0.9909
11018TIP3   OH254468   4.669   3.302  14.518  0.6066  0.5554  0.2540
11018TIP3    H154469   4.720   3.379  14.541 -1.3418  0.7400  5.2938
11018TIP3    H254470   4.590   3.336  14.475  2.2147  0.6417 -2.9517
11019TIP3   OH254471   2.396   6.399   2.759 -0.2208  0.0465  0.4389
11019TIP3    H154472   2.416   6.484   2.799  0.4968 -0.2342  0.6990
11019TIP3    H254473   2.360   6.420   2.673  0.2031  0.6070  0.3928
11020TIP3   OH254474   3.792   4.440  14.802 -0.2655  0.2090 -0.1139
11020TIP3    H154475   3.722   4.455  14.739  0.9520  1.9281 -1.1488
11020TIP3    H254476   3.808   4.526  14.842  1.0475 -0.1900  0.2868
11021TIP3   OH254477   4.736   6.409  11.908 -0.5613 -0.1086  0.3966
11021TIP3    H154478   4.695   6.474  11.965 -1.1284 -0.3352  0.2568
11021TIP3    H254479   4.678   6.333  11.914  0.0733 -0.5893  0.5317
11022TIP3   OH254480   2.899   5.160  11.887  0.2192  0.4248 -0.1639
11022TIP3    H154481   2.977   5.152  11.833  0.3950 -1.9069  0.3526
11022TIP3    H254482   2.880   5.254  11.888  0.6768  0.6606 -3.5372
11023TIP3   OH254483   0.977   0.105   1.617 -0.0775  0.1938  0.6229
11023TIP3    H154484   1.011   0.171   1.677  0.8606  1.2783 -1.0055
11023TIP3    H254485   0.932   0.155   1.549 -2.1593 -1.0580  0.9849
11024TIP3   OH254486   0.073   3.293   4.998  0.9471  0.1230 -0.0717
11024TIP3    H154487   0.106   3.267   5.084  0.9701 -0.4380 -0.2423
11024TIP3    H254488   0.006   3.227   4.979  2.6646 -1.2887 -1.5801
11025TIP3   OH254489   2.668   0.198  14.550  0.3703  0.0771 -0.6826
11025TIP3    H154490   2.624   0.236  14.473 -2.2798  0.6388  0.9633
11025TIP3    H254491   2.666   0.268  14.615  1.7601 -0.6766  0.2071
11026TIP3   OH254492   5.064   3.894  15.155 -0.1956  0.2687  0.4436
11026TIP3    H154493   5.084   3.948  15.231 -1.7422  0.6186  0.6296
11026TIP3    H254494   5.149   3.863  15.124  0.6092  1.6891  1.1559
11027TIP3   OH254495   5.169   3.615   1.600 -0.1661  0.2599 -0.4914
11027TIP3    H154496   5.113   3.641   1.527 -0.0647  2.6874  0.1862
11027TIP3    H254497   5.144   3.674   1.671  0.2034 -1.5740  1.2562
11028TIP3   OH254498   2.253   6.586  10.798  0.0305 -0.3855 -0.4603
11028TIP3    H154499   2.176   6.532  10.783 -1.0422  1.2534 -1.1410
11028TIP3    H254500   2.327   6.526  10.787 -1.1007 -1.8235 -0.5484
11029TIP3   OH254501   4.696   1.150  10.655 -0.3034  0.1317  0.6903
11029TIP3    H154502   4.604   1.125  10.662  0.1526 -1.2999  2.3824
11029TIP3    H254503   4.743   1.083  10.705  1.8109  0.0157 -1.2508
11030TIP3   OH254504   3.124   0.299  17.043  0.1425  0.1218  0.1681
11030TIP3    H154505   3.087   0.212  17.059  1.0659 -0.3656 -0.2579
11030TIP3    H254506   3.218   0.284  17.034  0.5859  1.4319  2.0360
11031TIP3   OH254507   1.552   1.721   0.701 -0.3102  0.0217  0.7238
11031TIP3    H154508   1.517   1.778   0.769  0.5225  0.2227  0.9894
11031TIP3    H254509   1.590   1.647   0.749  0.5905  0.3320  0.5155
11032TIP3   OH254510   3.960   6.520   4.151  0.3233 -0.0015 -0.1036
11032TIP3    H154511   3.934   6.430   4.130 -1.6778  0.5206  0.0024
11032TIP3    H254512   3.879   6.571   4.146  1.4181  1.8187 -0.1752
11033TIP3   OH254513   6.624   6.188  15.723 -0.0576  0.3496  0.6234
11033TIP3    H154514   6.576   6.169  15.803  1.0057  0.2642  1.2710
11033TIP3    H254515   6.627   6.104  15.677 -0.4183  0.3264  0.6445
11034TIP3   OH254516   0.267   4.643   4.453  0.7001  0.2258  0.3855
11034TIP3    H154517   0.173   4.626   4.443  0.2799  2.1501  0.7660
11034TIP3    H254518   0.290   4.602   4.537 -0.0474  0.7033  0.8267
11035TIP3   OH254519   0.093   2.643  12.597  0.3532  0.2178  0.0941
11035TIP3    H154520   0.096   2.634  12.501 -0.5421  0.0128  0.0731
11035TIP3    H254521   0.089   2.553  12.629  0.0892  0.2992  0.2928
11036TIP3   OH254522   4.357   6.812  10.875 -0.6705  0.0042  0.4515
11036TIP3    H154523   4.353   6.895  10.827 -0.6379  0.2509  0.8683
11036TIP3    H254524   4.337   6.836  10.966 -1.4289 -0.5605  0.4452
11037TIP3   OH254525   1.420   0.095   1.832  0.3073  0.1807  0.4586
11037TIP3    H154526   1.348   0.062   1.886 -0.0357 -0.8802 -0.6113
11037TIP3    H254527   1.434   0.027   1.766  1.9132  0.6313  0.2906
11038TIP3   OH254528   3.312   5.097  16.806 -0.2991 -0.1536 -0.3318
11038TIP3    H154529   3.401   5.129  16.821 -0.0236 -0.2257 -1.6448
11038TIP3    H254530   3.302   5.024  16.867  0.1216  0.5739  0.6338
11039TIP3   OH254531   5.611   3.362   1.195  0.5470  0.1464  0.2276
11039TIP3    H154532   5.520   3.349   1.222  1.1874 -1.7441  1.6803
11039TIP3    H254533   5.615   3.327   1.106  0.0306 -0.5676  0.4806
11040TIP3   OH254534   6.497   2.355  15.908 -0.1068 -0.2431  0.3987
11040TIP3    H154535   6.536   2.325  15.989  0.5714  0.5788  0.3889
11040TIP3    H254536   6.568   2.353  15.844 -0.3226  0.2819  0.1313
11041TIP3   OH254537   5.171   6.694   4.476  0.5647  0.3074  0.1247
11041TIP3    H154538   5.227   6.726   4.547 -0.2866 -0.8864  1.3943
11041TIP3    H254539   5.110   6.766   4.460  0.6097  0.5004  0.7912
11042TIP3   OH254540   5.180   5.038   4.470  0.4491  0.0495 -0.4735
11042TIP3    H154541   5.257   5.030   4.414  0.6392 -0.9962 -0.0915
11042TIP3    H254542   5.203   4.990   4.550 -0.0847  0.9041  0.2162
11043TIP3   OH254543   6.504   0.670  14.889 -0.0471 -0.2668 -0.5566
11043TIP3    H154544   6.416   0.637  14.906  0.7599 -2.1764  0.1952
11043TIP3    H254545   6.514   0.665  14.794 -1.0146  0.7519 -0.7307
11044TIP3   OH254546   1.004   4.021  13.376  0.6922 -0.4488  0.6051
11044TIP3    H154547   0.957   4.100  13.349  0.3542 -0.7570  0.2785
11044TIP3    H254548   1.084   4.053  13.418  0.0390  0.1006  1.4716
11045TIP3   OH254549   4.863   5.397  15.437 -0.5950 -0.7496  0.1205
11045TIP3    H154550   4.812   5.433  15.364 -0.2282 -0.9027 -0.2173
11045TIP3    H254551   4.849   5.459  15.509  1.2945  1.0106 -0.9116
11046TIP3   OH254552   1.636   1.810  17.084 -0.3087  0.3361 -0.3014
11046TIP3    H154553   1.688   1.729  17.091  0.7768  1.0780  0.4908
11046TIP3    H254554   1.700   1.880  17.092 -1.4048  1.2916  0.3507
11047TIP3   OH254555   3.003   2.532   4.381  0.7671  0.1923 -0.2453
11047TIP3    H154556   2.925   2.540   4.327  0.6436 -0.5914 -0.1952
11047TIP3    H254557   3.074   2.565   4.327  0.2502  2.0708  0.1336
11048TIP3   OH254558   2.401   3.716  15.329  0.0948  0.1980 -1.0337
11048TIP3    H154559   2.475   3.668  15.366 -2.4271 -1.6676  2.0312
11048TIP3    H254560   2.367   3.659  15.260  0.6663  0.4644 -1.5516
11049TIP3   OH254561   1.044   6.285  14.195  0.0686  0.3773  0.4704
11049TIP3    H154562   1.072   6.194  14.203  0.0574  0.4245  1.1250
11049TIP3    H254563   1.075   6.327  14.275 -0.2105  0.8771  0.3252
11050TIP3   OH254564   3.207   4.333   2.097  0.4695  0.6686  0.1015
11050TIP3    H154565   3.259   4.361   2.022  1.9132  0.7795  1.0955
11050TIP3    H254566   3.206   4.238   2.092  3.0334  0.4836  1.4396
11051TIP3   OH254567   6.025   5.040  15.669 -0.5291 -0.2018  0.0235
11051TIP3    H154568   5.965   5.069  15.600  1.1297  0.4862 -1.2052
11051TIP3    H254569   5.971   5.033  15.747 -2.2373  0.1643 -1.0802
11052TIP3   OH254570   2.260   4.916   5.312  0.3792 -0.0983  0.6832
11052TIP3    H154571   2.291   4.847   5.253 -0.2345  0.4999 -0.3691
11052TIP3    H254572   2.167   4.898   5.324  0.1514  0.6833  0.1804
11053TIP3   OH254573   0.801   1.732  14.322  0.1358  0.3122  0.1561
11053TIP3    H154574   0.740   1.802  14.299  0.6595  1.1604  1.2791
11053TIP3    H254575   0.828   1.695  14.238 -3.4587 -1.4904 -0.4075
11054TIP3   OH254576   4.655   1.579   6.270  0.7227  0.6675 -0.1463
11054TIP3    H154577   4.698   1.653   6.227  1.1223  1.9131  2.2316
11054TIP3    H254578   4.706   1.566   6.350 -0.5788 -0.8620  0.4693
11055TIP3   OH254579   4.637   1.544   5.938  0.2780 -0.2093  0.8314
11055TIP3    H154580   4.651   1.462   5.891 -1.7200  0.7737 -1.7300
11055TIP3    H254581   4.551   1.535   5.978  0.4949  0.2775  1.4298
11056TIP3   OH254582   1.251   3.019   1.562  0.1796 -0.2256 -0.6518
11056TIP3    H154583   1.275   2.933   1.595 -1.2697 -0.8272 -1.0708
11056TIP3    H254584   1.269   3.079   1.635  0.1085 -1.0529  0.0608
11057TIP3   OH254585   1.917   4.083   1.608  0.0816  0.2662 -1.1015
11057TIP3    H154586   1.945   4.149   1.672 -0.5927 -1.1892  0.7948
11057TIP3    H254587   1.933   3.999   1.651 -0.3739 -0.7915 -2.8848
11058TIP3   OH254588   0.214   2.731  10.907 -0.5013  0.2749  0.6649
11058TIP3    H154589   0.254   2.716  10.993 -0.4220 -0.0782  0.5683
11058TIP3    H254590   0.166   2.651  10.888 -0.9970  0.5749  0.6338
11059TIP3   OH254591   4.430   0.936   4.332  0.5696 -0.4442  0.6517
11059TIP3    H154592   4.503   0.901   4.281 -0.5246  1.3984 -2.4686
11059TIP3    H254593   4.359   0.872   4.320  0.8662 -0.9552  1.5300
11060TIP3   OH254594   0.644   3.615  10.191  0.6698  0.1518  0.2959
11060TIP3    H154595   0.560   3.657  10.171  0.7406 -0.0142 -0.3627
11060TIP3    H254596   0.638   3.529  10.151  0.6892 -0.3307  1.2934
11061TIP3   OH254597   0.904   4.314  12.792 -0.3823  0.1260  0.6414
11061TIP3    H154598   0.985   4.344  12.833 -0.5894 -0.0073  1.1506
11061TIP3    H254599   0.884   4.231  12.835  0.4625 -1.0588 -1.1050
11062TIP3   OH254600   0.582   3.313   2.160  0.0142 -0.5456 -0.1876
11062TIP3    H154601   0.536   3.315   2.076  0.3143 -0.5771 -0.3554
11062TIP3    H254602   0.611   3.403   2.174  1.8853 -0.9258 -1.2067
11063TIP3   OH254603   4.122   3.818  16.549  0.1043  0.1509 -1.0390
11063TIP3    H154604   4.102   3.908  16.576  0.5836  0.0537 -0.3320
11063TIP3    H254605   4.037   3.776  16.539 -0.1154  0.6099 -1.1179
11064TIP3   OH254606   2.784   1.589   2.523 -0.0874 -0.4362  0.6256
11064TIP3    H154607   2.714   1.614   2.584 -0.0577  0.3161  0.3714
11064TIP3    H254608   2.865   1.610   2.570 -0.0220 -1.4208  0.9673
11065TIP3   OH254609   3.869   0.294   2.044  0.3023 -0.1224  0.2163
11065TIP3    H154610   3.862   0.228   2.113 -0.8245 -0.0642  0.1691
11065TIP3    H254611   3.963   0.316   2.041  0.8251 -2.1788 -0.1886
11066TIP3   OH254612   4.944   4.722   1.243  0.3793  0.3699  0.5706
11066TIP3    H154613   4.864   4.772   1.261  0.3173 -0.0561  1.5177
11066TIP3    H254614   5.015   4.783   1.262  0.2909  0.7008 -0.1255
11067TIP3   OH254615   5.487   3.532  16.405  0.1690  0.1855 -0.5445
11067TIP3    H154616   5.569   3.582  16.402  0.4728 -0.3688 -2.1378
11067TIP3    H254617   5.445   3.549  16.321  0.3910 -2.3491 -1.2572
11068TIP3   OH254618   3.711   5.949  15.158  0.0651  0.0533 -0.7377
11068TIP3    H154619   3.802   5.940  15.187 -0.5489  0.3416  1.4462
11068TIP3    H254620   3.688   6.040  15.177 -0.8542 -0.1756 -0.6880
11069TIP3   OH254621   1.642   5.535  13.435 -0.0192 -0.7317  0.4878
11069TIP3    H154622   1.608   5.621  13.458  0.5248 -0.6615  1.0607
11069TIP3    H254623   1.721   5.525  13.489  0.3788 -1.2464 -0.1729
11070TIP3   OH254624   1.544   2.506  14.709  0.2209  0.2116  0.2931
11070TIP3    H154625   1.536   2.544  14.796 -0.3014 -0.5856  0.6032
11070TIP3    H254626   1.504   2.571  14.650  1.1139  1.0211  0.5610
11071TIP3   OH254627   3.014   6.376   0.829 -0.4361  0.4254  0.3488
11071TIP3    H154628   3.099   6.397   0.868 -0.1334 -0.7958  0.3821
11071TIP3    H254629   3.004   6.281   0.842 -1.6938  0.5111  0.1285
11072TIP3   OH254630   2.191   6.114   1.988  0.3654  0.2847  0.0156
11072TIP3    H154631   2.185   6.137   1.895  0.6072 -2.1411 -0.6684
11072TIP3    H254632   2.285   6.112   2.006  0.3920 -0.8788 -0.1733
11073TIP3   OH254633   2.014   2.339   5.339 -0.3015 -0.2670  0.1785
11073TIP3    H154634   2.083   2.285   5.377  1.8158  1.9812 -0.1839
11073TIP3    H254635   1.981   2.391   5.412 -0.3846 -0.1202  0.0364
11074TIP3   OH254636   1.718   3.782  15.576  0.0555 -0.0037  0.2760
11074TIP3    H154637   1.764   3.852  15.530 -0.5248 -1.1794 -2.2351
11074TIP3    H254638   1.783   3.712  15.584 -0.0290 -0.0326  0.7775
11075TIP3   OH254639   4.848   4.323   0.384  0.4840  0.1415 -0.1677
11075TIP3    H154640   4.912   4.257   0.411  0.7595  1.0578  1.4913
11075TIP3    H254641   4.890   4.369   0.311  1.2019 -0.0798  0.1055
11076TIP3   OH254642   1.774   1.212   0.009 -1.0929 -0.2436 -0.7114
11076TIP3    H154643   1.784   1.229  -0.085  0.3496  1.5213 -0.3141
11076TIP3    H254644   1.724   1.287   0.041 -1.8653 -1.0018 -0.0970
11077TIP3   OH254645   1.791   5.904   0.912 -0.4597 -0.0360 -0.2930
11077TIP3    H154646   1.775   5.935   0.823  1.4012 -1.7723 -1.3125
11077TIP3    H254647   1.824   5.980   0.959 -1.1984  0.8330 -1.1418
11078TIP3   OH254648   6.377   4.777   4.283 -0.6233 -0.1783  0.6525
11078TIP3    H154649   6.421   4.726   4.350 -1.6438 -1.9751  0.0206
11078TIP3    H254650   6.433   4.770   4.205 -1.5549 -1.7758  0.0877
11079TIP3   OH254651   4.630   3.443  16.610  0.5324  0.0135 -0.1804
11079TIP3    H154652   4.700   3.382  16.635 -1.1246 -2.3104 -0.8424
11079TIP3    H254653   4.606   3.488  16.692  0.3457 -1.8683  0.8557
11080TIP3   OH254654   1.892   3.123  11.844  0.6890 -0.0350  0.2644
11080TIP3    H154655   1.830   3.187  11.877 -0.2033 -0.3815 -0.6831
11080TIP3    H254656   1.851   3.038  11.860  2.0495 -0.4406  1.9035
11081TIP3   OH254657   6.057   0.173  14.014 -0.6075  0.2895 -0.4372
11081TIP3    H154658   6.043   0.081  13.994 -0.6193  0.5017 -1.4631
11081TIP3    H254659   5.972   0.215  13.999 -1.0181  0.2551  1.4889
11082TIP3   OH254660   5.885   6.635  10.543  0.0816  0.3257 -0.6025
11082TIP3    H154661   5.959   6.693  10.524 -0.7776  1.1579 -1.5353
11082TIP3    H254662   5.911   6.588  10.622  0.9277  1.7938  0.0335
11083TIP3   OH254663   5.073   1.689  13.593  0.6674  0.1575 -0.0537
11083TIP3    H154664   4.980   1.711  13.592  0.4220 -0.8390  0.3948
11083TIP3    H254665   5.098   1.693  13.686  0.8915 -0.3369 -0.0921
11084TIP3   OH254666   4.375   4.798  14.861 -0.6048 -0.3469 -0.2158
11084TIP3    H154667   4.293   4.839  14.887 -0.3277  0.3785 -0.4653
11084TIP3    H254668   4.439   4.826  14.927 -1.0475 -2.9077  1.4388
11085TIP3   OH254669   5.636   3.649   4.947 -0.2214  0.3252 -0.1226
11085TIP3    H154670   5.613   3.561   4.920 -0.7146  0.3749  0.1082
11085TIP3    H254671   5.704   3.677   4.886 -0.5469  0.0383 -0.6263
11086TIP3   OH254672   4.088   1.412  16.259 -0.0708 -0.1630 -0.9271
11086TIP3    H154673   4.071   1.439  16.169 -1.6939  0.7933 -0.3690
11086TIP3    H254674   4.095   1.494  16.308 -2.1891 -0.6373  0.2995
11087TIP3   OH254675   2.006   0.463   4.142 -0.1029  0.0494 -0.1559
11087TIP3    H154676   1.984   0.385   4.192 -0.1247  0.4491  0.4755
11087TIP3    H254677   1.950   0.532   4.178  1.3471  0.8287  0.7176
11088TIP3   OH254678   3.724   2.567  16.786  0.2897 -0.1862 -0.1439
11088TIP3    H154679   3.658   2.536  16.848 -0.6092 -1.4834 -1.6603
11088TIP3    H254680   3.761   2.487  16.749  1.9802  0.5424 -0.0990
11089TIP3   OH254681   3.759   0.385   3.531 -0.7658 -0.0543 -0.3331
11089TIP3    H154682   3.707   0.314   3.493 -1.1326  0.2240 -0.3599
11089TIP3    H254683   3.842   0.382   3.484 -1.0862  0.0592 -0.9124
11090TIP3   OH254684   1.548   5.023  14.015 -0.0140  0.2351 -0.5052
11090TIP3    H154685   1.596   5.015  13.932 -0.0174  1.0133 -0.5878
11090TIP3    H254686   1.616   5.025  14.082  0.0609  0.8549 -0.5878
11091TIP3   OH254687   5.325   3.846   0.385 -0.6016 -0.0007 -0.5279
11091TIP3    H154688   5.279   3.888   0.313 -1.4163  2.1294  1.1398
11091TIP3    H254689   5.408   3.893   0.391 -0.0380 -0.9473 -0.8011
11092TIP3   OH254690   5.956   6.324  17.036 -0.0594  0.2561  0.2953
11092TIP3    H154691   5.960   6.366  17.122  1.9950 -0.2940  0.5120
11092TIP3    H254692   6.014   6.376  16.981 -2.1641  1.2626 -1.1418
11093TIP3   OH254693   6.343   2.758   2.812 -0.2680  0.1144  0.6187
11093TIP3    H154694   6.432   2.766   2.779 -0.5900  0.3356 -0.2156
11093TIP3    H254695   6.309   2.847   2.812 -0.7944 -0.0728  0.0364
11094TIP3   OH254696   2.608   1.697  14.821  0.1121  0.4939 -0.7608
11094TIP3    H154697   2.651   1.723  14.739  0.3928  0.0064 -0.7798
11094TIP3    H254698   2.546   1.629  14.795 -1.0133  1.5023 -0.7928
11095TIP3   OH254699   1.800   5.619   4.641 -0.0018  0.4342  0.0328
11095TIP3    H154700   1.731   5.637   4.704  1.0095 -0.6254  1.5293
11095TIP3    H254701   1.881   5.630   4.691  0.9258  1.4242 -1.6097
11096TIP3   OH254702   0.202   4.103  11.463  0.4683  0.7476 -0.0106
11096TIP3    H154703   0.111   4.122  11.485 -0.2253 -0.3826 -1.6663
11096TIP3    H254704   0.245   4.091  11.548 -1.3658 -0.5898  0.8172
11097TIP3   OH254705   1.189   4.333   0.698 -0.0262 -0.7650  0.3392
11097TIP3    H154706   1.226   4.273   0.633 -1.0523 -0.3069 -0.6868
11097TIP3    H254707   1.261   4.393   0.719  0.1377 -0.5248 -0.8527
11098TIP3   OH254708   6.005   1.607   4.809 -0.4245  0.1322  0.5046
11098TIP3    H154709   6.091   1.568   4.794 -0.3298  0.5730 -0.1670
11098TIP3    H254710   6.008   1.689   4.761 -0.8234  0.6945  1.4262
11099TIP3   OH254711   2.361   1.605   0.099 -0.1179 -0.2240  0.4464
11099TIP3    H154712   2.332   1.592   0.009 -2.4879  0.5795  1.0106
11099TIP3    H254713   2.373   1.700   0.107  1.0679 -0.3814  0.7304
11100TIP3   OH254714   5.300   2.811  13.256  0.1074 -0.1800 -0.0856
11100TIP3    H154715   5.221   2.862  13.269  0.7982  0.7059  0.7807
11100TIP3    H254716   5.369   2.876  13.244  0.7008 -0.9305 -0.9071
11101TIP3   OH254717   4.926   0.983   1.451 -0.1979 -0.4823  0.0914
11101TIP3    H154718   4.874   0.919   1.403 -0.2805  0.3577 -0.9761
11101TIP3    H254719   4.865   1.022   1.513 -0.0813 -1.6066  0.9503
11102TIP3   OH254720   0.855   3.334  12.759 -0.1089 -0.1947 -0.0408
11102TIP3    H154721   0.923   3.398  12.780 -0.9889  0.5633  0.5586
11102TIP3    H254722   0.901   3.266  12.708  1.1403  0.1623  0.5719
11103TIP3   OH254723   3.047   1.325   4.017  0.4317  0.0958 -0.3108
11103TIP3    H154724   3.098   1.333   3.936  1.9509  0.2415  0.6284
11103TIP3    H254725   3.060   1.408   4.062 -1.5329  0.5578 -0.5154
11104TIP3   OH254726   3.599   5.813   1.456 -0.3752 -0.0906 -0.0626
11104TIP3    H154727   3.672   5.752   1.443 -2.0315 -1.6451 -3.4786
11104TIP3    H254728   3.532   5.761   1.502 -0.1336  0.6567  1.1617
11105TIP3   OH254729   4.825   1.109  15.892 -0.1082 -0.4099  0.1266
11105TIP3    H154730   4.750   1.143  15.844  0.3427  0.4515  0.0215
11105TIP3    H254731   4.871   1.054  15.829 -0.7281 -1.0670  0.2376
11106TIP3   OH254732   4.005   1.970  17.065  0.1372 -0.1875  0.4620
11106TIP3    H154733   4.059   2.049  17.063  0.1604 -0.1414  1.7497
11106TIP3    H254734   4.060   1.903  17.026  1.2708 -0.1882  1.9375
11107TIP3   OH254735   0.239   1.644  15.962 -0.9113  0.6142  0.1583
11107TIP3    H154736   0.228   1.551  15.944 -0.1592  0.5227  0.1177
11107TIP3    H254737   0.219   1.688  15.879  3.3816  0.1408 -1.3917
11108TIP3   OH254738   0.681   1.138  13.280  0.2374 -0.0035 -0.2774
11108TIP3    H154739   0.614   1.205  13.290 -0.6633 -0.8062 -0.7165
11108TIP3    H254740   0.713   1.149  13.191 -0.3478 -0.5306 -0.5609
11109TIP3   OH254741   1.484   4.205   4.609 -0.1652  0.4878 -0.3868
11109TIP3    H154742   1.400   4.193   4.653  0.1920  0.4983  0.3140
11109TIP3    H254743   1.546   4.223   4.680  0.6755 -0.7893 -0.7560
11110TIP3   OH254744   3.956   3.367   0.244  0.4593  0.6888  0.5264
11110TIP3    H154745   3.935   3.331   0.330  0.4127 -0.3728  0.0842
11110TIP3    H254746   3.934   3.460   0.251 -2.3475  0.1016  0.7708
11111TIP3   OH254747   6.679   4.303  13.316  0.0815  0.6526 -0.2830
11111TIP3    H154748   6.675   4.373  13.251 -1.6504  1.3973  0.5561
11111TIP3    H254749   6.602   4.316  13.371  0.2869 -1.2887  0.5707
11112TIP3   OH254750   3.725   5.655   4.414  0.0475  0.5688  0.5140
11112TIP3    H154751   3.676   5.637   4.495 -1.1625  1.0535 -0.0798
11112TIP3    H254752   3.716   5.749   4.401 -1.2491  0.2859 -1.0531
11113TIP3   OH254753   1.607   4.445   2.908 -0.0477  0.1571  0.0636
11113TIP3    H154754   1.652   4.530   2.915  1.7948 -0.7987  0.3014
11113TIP3    H254755   1.597   4.415   2.998 -0.6320  0.0535 -0.0268
11114TIP3   OH254756   4.638   3.446  16.979  0.1856  0.6414  1.1924
11114TIP3    H154757   4.601   3.402  17.055  0.1658 -1.0705  0.2486
11114TIP3    H254758   4.732   3.451  16.998  0.1435  0.4791  1.4513
11115TIP3   OH254759   3.021   5.308  10.746  0.3767  0.3280  0.5840
11115TIP3    H154760   2.958   5.237  10.756  0.3635  0.5530  2.2476
11115TIP3    H254761   3.104   5.272  10.777  1.4122 -0.3120 -2.5368
11116TIP3   OH254762   0.551   3.249   3.037  0.4350  0.0546  0.5442
11116TIP3    H154763   0.461   3.241   3.006 -0.3056  0.1024  2.5491
11116TIP3    H254764   0.575   3.160   3.063  0.9162  0.0660  0.1426
11117TIP3   OH254765   2.647   5.714  12.807 -0.1280 -0.3713  0.0635
11117TIP3    H154766   2.584   5.782  12.785 -1.6869 -1.3579  1.2544
11117TIP3    H254767   2.607   5.666  12.879  2.2261 -0.7482  1.2223
11118TIP3   OH254768   5.621   3.890  13.251  0.0396  0.5624 -0.1262
11118TIP3    H154769   5.633   3.813  13.307 -1.6157 -0.6362 -1.3366
11118TIP3    H254770   5.689   3.881  13.184 -0.3549 -0.0418 -0.4548
11119TIP3   OH254771   4.396   6.695  12.115 -0.2792  0.3160  0.4144
11119TIP3    H154772   4.434   6.636  12.180 -2.0333 -0.1169  1.1020
11119TIP3    H254773   4.382   6.777  12.162 -1.3552  0.0697  0.5431
11120TIP3   OH254774   5.786   2.733   1.342  0.3653 -0.1613 -0.1143
11120TIP3    H154775   5.874   2.731   1.380  0.2475  0.6542  0.2149
11120TIP3    H254776   5.727   2.723   1.416  0.1305  1.6594 -0.0273
11121TIP3   OH254777   4.907   1.192   5.491 -0.0902  0.0324 -0.5630
11121TIP3    H154778   4.892   1.146   5.574  0.1574  0.1732 -0.4404
11121TIP3    H254779   4.840   1.158   5.432 -0.0542 -0.3144 -0.4026
11122TIP3   OH254780   2.472   4.472   3.705  0.3781 -0.2215 -0.1613
11122TIP3    H154781   2.478   4.385   3.666 -0.8238  0.8084 -2.8622
11122TIP3    H254782   2.564   4.498   3.719  0.9307 -0.4726 -2.8766
11123TIP3   OH254783   2.623   4.968  13.178 -0.5579  0.1051 -0.2159
11123TIP3    H154784   2.603   4.877  13.197 -1.2158  0.4075  0.5769
11123TIP3    H254785   2.583   4.984  13.092 -0.0579 -0.4602 -0.5675
11124TIP3   OH254786   2.320   1.009  13.880  0.0335  0.1571  0.0925
11124TIP3    H154787   2.344   1.098  13.907  0.4576  0.1464 -0.2348
11124TIP3    H254788   2.259   1.021  13.808  0.0677  0.1868  0.0675
11125TIP3   OH254789   1.363   2.973  13.327 -0.3882  0.3307 -0.3379
11125TIP3    H154790   1.308   2.920  13.269  1.7364 -1.4824 -0.8598
11125TIP3    H254791   1.342   2.941  13.415 -1.8471  1.3604 -0.2790
11126TIP3   OH254792   0.796   1.861   6.024 -0.4327 -0.0474  0.2626
11126TIP3    H154793   0.821   1.773   6.051 -0.0363  0.6365  2.3221
11126TIP3    H254794   0.864   1.918   6.061 -0.4635  1.1120 -1.3485
11127TIP3   OH254795   6.703   4.632  14.789 -0.4219  0.1683  0.3936
11127TIP3    H154796   6.659   4.704  14.744 -0.2061  1.4019  2.0323
11127TIP3    H254797   6.794   4.639  14.760 -0.0618  1.6209  1.7173
11128TIP3   OH254798   0.018   0.001   6.184 -0.0618  0.1925  0.1644
11128TIP3    H154799   0.005  -0.063   6.254  1.9422 -0.7878 -0.2998
11128TIP3    H254800   0.071   0.070   6.223  0.6602 -0.1212 -0.2541
11129TIP3   OH254801   4.760   1.315  16.416 -0.0307 -0.3551 -0.3440
11129TIP3    H154802   4.745   1.291  16.325  0.2490 -1.9212  0.0024
11129TIP3    H254803   4.851   1.344  16.419 -0.2815  0.5316 -0.6970
11130TIP3   OH254804   3.275   0.441   4.900 -0.1587  0.5054  0.0906
11130TIP3    H154805   3.352   0.413   4.851 -1.1488 -1.4989 -0.4169
11130TIP3    H254806   3.310   0.480   4.980  1.3744 -1.3100  0.3597
11131TIP3   OH254807   4.360   1.562   1.694  0.5439  0.5607  0.1955
11131TIP3    H154808   4.271   1.530   1.708  0.4311  0.4249 -0.7946
11131TIP3    H254809   4.383   1.605   1.777  0.2346 -0.9357  1.0979
11132TIP3   OH254810   1.819   2.036  14.958  0.0913 -0.3789 -0.4800
11132TIP3    H154811   1.768   2.029  15.039 -0.4553 -1.2949 -0.8931
11132TIP3    H254812   1.850   2.127  14.957 -3.8406  1.1729 -1.5473
11133TIP3   OH254813   1.836   3.015  15.688  0.1032 -0.4069 -0.3839
11133TIP3    H154814   1.846   2.962  15.609 -0.9200 -0.7858 -0.2797
11133TIP3    H254815   1.800   3.098  15.656 -2.8030 -1.4320 -0.1500
11134TIP3   OH254816   5.843   1.878  15.695  1.0319  0.0761 -0.3928
11134TIP3    H154817   5.786   1.935  15.747 -0.0396  0.5245 -1.9772
11134TIP3    H254818   5.820   1.789  15.723  1.6639  0.3282  1.0375
11135TIP3   OH254819   4.897   6.447   3.467  0.2665  0.4120  0.8038
11135TIP3    H154820   4.961   6.492   3.522  0.0529  2.0292 -0.1954
11135TIP3    H254821   4.828   6.512   3.452 -0.2610 -0.3715 -0.3729
11136TIP3   OH254822   1.583   4.212   3.330  0.3109  0.2947  0.5139
11136TIP3    H154823   1.586   4.117   3.319  0.5331  0.1163  1.8425
11136TIP3    H254824   1.642   4.228   3.404  0.8546  1.5535 -0.1729
11137TIP3   OH254825   2.710   1.278   0.221  0.3358 -0.1765  0.7557
11137TIP3    H154826   2.658   1.357   0.211  1.3634  0.4047 -0.2160
11137TIP3    H254827   2.764   1.274   0.142 -0.3942 -2.3833  0.2895
11138TIP3   OH254828   0.974   6.088  12.714  0.0925 -0.2677  0.2603
11138TIP3    H154829   1.002   6.099  12.623  0.7792 -2.7891  0.1024
11138TIP3    H254830   1.024   6.012  12.745 -0.9742 -0.1457  2.3866
11139TIP3   OH254831   6.805   4.609  15.393  0.1070 -0.3583 -0.6513
11139TIP3    H154832   6.737   4.639  15.334  0.6839  1.7043 -0.3560
11139TIP3    H254833   6.778   4.521  15.419 -1.5051 -0.2692 -1.9040
11140TIP3   OH254834   0.095   2.902  15.612  0.2083 -0.3477  0.1849
11140TIP3    H154835   0.167   2.839  15.604  1.3959  1.0433 -0.6893
11140TIP3    H254836   0.078   2.907  15.706  1.8473 -0.0927  0.5004
11141TIP3   OH254837   1.479   1.141   4.463 -0.0756 -0.1566 -0.3003
11141TIP3    H154838   1.479   1.139   4.558  1.4274 -1.0973 -0.2939
11141TIP3    H254839   1.551   1.199   4.440 -0.4792  0.1337 -0.8797
11142TIP3   OH254840   1.418   0.208  13.201 -0.2849  0.2025  0.0888
11142TIP3    H154841   1.357   0.231  13.131 -1.2027 -0.6478  0.5866
11142TIP3    H254842   1.491   0.165  13.155  0.1948  1.6556 -0.5520
11143TIP3   OH254843   4.753   5.812   5.115  0.2634  0.1747 -0.4070
11143TIP3    H154844   4.662   5.787   5.131  0.8728 -1.2651  1.1475
11143TIP3    H254845   4.759   5.902   5.146 -0.7941  0.5809 -1.2956
11144TIP3   OH254846   3.802   6.061  16.564 -0.4329 -0.3514 -0.1773
11144TIP3    H154847   3.886   6.026  16.534 -0.1680 -1.1104  1.3742
11144TIP3    H254848   3.740   5.990  16.549 -0.7997  0.1456 -1.1547
11145TIP3   OH254849   2.595   3.064  17.098  0.5529  0.1048 -0.0136
11145TIP3    H154850   2.669   3.121  17.116 -0.5995  1.2406  1.2928
11145TIP3    H254851   2.520   3.123  17.090 -0.4705 -1.1299  0.1536
11146TIP3   OH254852   5.248   1.014  14.996 -0.4144 -0.3073 -0.0585
11146TIP3    H154853   5.215   1.096  14.959 -1.3745 -0.7055 -0.1238
11146TIP3    H254854   5.205   0.945  14.944 -0.3463 -0.8548  0.5866
11147TIP3   OH254855   5.393   4.413   4.911  0.2850 -0.4736 -0.1185
11147TIP3    H154856   5.419   4.486   4.855 -0.0152 -1.0966 -1.0800
11147TIP3    H254857   5.406   4.335   4.857 -0.1615 -1.0740  0.6231
11148TIP3   OH254858   3.552   0.664  12.325 -0.4295  0.3949 -0.5225
11148TIP3    H154859   3.642   0.634  12.336 -0.6359  0.3971  1.8035
11148TIP3    H254860   3.498   0.586  12.339 -0.8691  1.1540  2.8504
11149TIP3   OH254861   0.810   4.033   3.233  0.5636  0.0431 -0.7029
11149TIP3    H154862   0.836   4.069   3.318 -0.1620 -1.9603  0.4634
11149TIP3    H254863   0.726   4.074   3.213  0.9911  0.9180 -0.7319
11150TIP3   OH254864   2.294   3.718  12.646  0.7653  0.2280  0.0320
11150TIP3    H154865   2.372   3.761  12.610  0.3732  1.0636  0.1623
11150TIP3    H254866   2.221   3.760  12.601  0.3694 -0.2493  0.2254
11151TIP3   OH254867   3.402   6.000  13.821 -0.0791  0.1701 -0.2599
11151TIP3    H154868   3.411   6.084  13.775  1.8851  0.3602  0.4061
11151TIP3    H254869   3.334   6.017  13.886 -1.7236  0.3765 -1.9339
11152TIP3   OH254870   0.970   2.814   1.747 -0.4282 -0.2027  0.3963
11152TIP3    H154871   0.921   2.841   1.669  0.8842 -1.7723 -1.0382
11152TIP3    H254872   0.963   2.889   1.807 -3.9216 -0.0468  0.0070
11153TIP3   OH254873   0.458   6.104  16.127  0.2067 -0.7654 -0.4719
11153TIP3    H154874   0.511   6.043  16.178  0.2726 -1.5008 -1.3907
11153TIP3    H254875   0.379   6.116  16.178  0.6364 -0.8031  0.2173
11154TIP3   OH254876   5.418   0.591   3.613 -0.7415  0.0681  0.2199
11154TIP3    H154877   5.506   0.630   3.604 -1.5567  2.0218  0.2609
11154TIP3    H254878   5.426   0.533   3.688  0.6981 -0.3517 -0.2149
11155TIP3   OH254879   1.610   3.908  15.815 -0.1343 -0.5190  0.0133
11155TIP3    H154880   1.578   3.995  15.791 -0.4293 -0.5126  0.4133
11155TIP3    H254881   1.634   3.867  15.732 -0.0159 -0.0658 -0.1768
11156TIP3   OH254882   3.976   1.854   5.656 -0.0928  0.2081  0.3359
11156TIP3    H154883   4.056   1.882   5.700  0.1031 -0.6209  0.5084
11156TIP3    H254884   4.005   1.801   5.583 -0.4727  0.3080  0.1073
11157TIP3   OH254885   0.878   1.480   0.904  0.1310 -0.1407 -0.4374
11157TIP3    H154886   0.945   1.520   0.961 -0.0586  0.8948 -0.9139
11157TIP3    H254887   0.907   1.390   0.893  0.9153  0.0206  0.1755
11158TIP3   OH254888   0.162   5.132  13.836 -0.2171  0.3995  0.1188
11158TIP3    H154889   0.203   5.206  13.881  1.8474 -1.0901  0.8471
11158TIP3    H254890   0.207   5.128  13.751  2.1022 -1.8754  1.3171
11159TIP3   OH254891   6.820   3.925   3.247  0.1279  0.6826  0.2241
11159TIP3    H154892   6.865   3.883   3.320  0.3713 -1.4157 -1.0448
11159TIP3    H254893   6.879   3.995   3.218  0.0126  1.5684  1.9924
11160TIP3   OH254894   6.495   6.408  13.213 -0.1155 -0.1935 -0.1205
11160TIP3    H154895   6.493   6.319  13.247  1.1420 -1.3652 -2.8458
11160TIP3    H254896   6.418   6.415  13.157 -0.2652  0.4911  0.1571
11161TIP3   OH254897   6.443   4.339  13.427  0.0591 -0.2849  0.2069
11161TIP3    H154898   6.407   4.407  13.370 -0.0454 -1.0987 -0.7313
11161TIP3    H254899   6.450   4.380  13.513 -0.8397  0.6303 -0.1431
11162TIP3   OH254900   6.749   1.418   3.613 -0.1577  0.4354  0.0672
11162TIP3    H154901   6.716   1.508   3.609  0.6202  0.7882  1.3565
11162TIP3    H254902   6.822   1.421   3.674  0.2328 -0.9763 -0.2908
11163TIP3   OH254903   4.497   6.003   5.676  0.2258  0.2047 -0.6359
11163TIP3    H154904   4.404   6.025   5.678  0.3032  0.4674  0.5274
11163TIP3    H254905   4.499   5.915   5.638 -0.5612 -0.0804 -0.0410
11164TIP3   OH254906   0.217   1.786   3.319 -0.4573  0.1015 -0.8899
11164TIP3    H154907   0.282   1.855   3.329  1.3333 -1.7178  1.5438
11164TIP3    H254908   0.269   1.705   3.316 -2.5051 -1.5508  2.4378
11165TIP3   OH254909   1.534   5.236   2.404 -0.3330  0.4457 -0.2617
11165TIP3    H154910   1.575   5.310   2.449 -1.5723  0.7038  0.4932
11165TIP3    H254911   1.599   5.166   2.411 -0.4179  0.5068  1.8746
11166TIP3   OH254912   0.101   2.498  10.840 -0.2859  0.1941  0.1006
11166TIP3    H154913   0.013   2.533  10.849 -0.8919 -1.3606  0.5978
11166TIP3    H254914   0.092   2.429  10.774  0.4015 -0.4730  0.6961
11167TIP3   OH254915   6.037   1.032  16.927  0.4205  0.2115  0.4378
11167TIP3    H154916   6.095   1.006  16.855  0.3283  0.2113  0.3642
11167TIP3    H254917   6.012   1.122  16.906  0.3072  0.1744  0.4149
11168TIP3   OH254918   3.560   6.391   3.586  0.1662 -0.7044  0.0087
11168TIP3    H154919   3.612   6.313   3.565 -0.4279 -0.7141 -1.5274
11168TIP3    H254920   3.577   6.406   3.679  1.8702 -1.4836 -0.1244
11169TIP3   OH254921   6.737   1.632   6.336  0.3879 -0.3821 -0.1339
11169TIP3    H154922   6.724   1.637   6.241  0.8202  2.4436 -0.1338
11169TIP3    H254923   6.761   1.541   6.352 -2.2472 -1.5945 -2.3409
11170TIP3   OH254924   1.398   6.105   0.988 -0.4472  0.1617 -0.0133
11170TIP3    H154925   1.372   6.118   1.080 -1.4704 -0.0440 -0.2678
11170TIP3    H254926   1.363   6.181   0.942 -1.5167 -0.6273 -0.5362
11171TIP3   OH254927   5.692   3.905   3.615  0.0625 -0.3704 -0.3711
11171TIP3    H154928   5.678   3.930   3.523 -1.1895 -2.6085 -0.8450
11171TIP3    H254929   5.734   3.819   3.610  0.9810 -0.0441  1.1866
11172TIP3   OH254930   2.424   6.770  16.270 -0.3047 -0.1999  0.0893
11172TIP3    H154931   2.456   6.689  16.309  0.0979  0.1064  0.4062
11172TIP3    H254932   2.414   6.750  16.177 -0.6616 -0.7516  0.2421
11173TIP3   OH254933   2.432   6.730  13.276 -0.2593  0.4526  0.6841
11173TIP3    H154934   2.406   6.690  13.359  0.0874 -0.2949  0.4394
11173TIP3    H254935   2.500   6.672  13.242  0.9827  1.7905  0.8048
11174TIP3   OH254936   1.625   4.755  15.355  0.5321 -0.5355  0.5503
11174TIP3    H154937   1.715   4.786  15.348 -0.0233  0.8991 -0.7476
11174TIP3    H254938   1.624   4.700  15.434  1.6699  2.4550  2.8013
11175TIP3   OH254939   6.553   4.092   2.655  0.1607  0.2045  0.0066
11175TIP3    H154940   6.499   4.036   2.711  0.2573  0.1524  0.0493
11175TIP3    H254941   6.641   4.085   2.693 -0.1461  1.7917  1.1079
11176TIP3   OH254942   5.462   0.173  11.441  0.6427 -0.3182  0.2059
11176TIP3    H154943   5.476   0.149  11.532  0.8581  1.1361  0.5839
11176TIP3    H254944   5.369   0.194  11.436  0.5325 -0.8407 -0.0328
11177TIP3   OH254945   6.118   1.317   4.210  0.3172 -0.4171 -0.2553
11177TIP3    H154946   6.194   1.313   4.153  0.7695  0.6985  0.2298
11177TIP3    H254947   6.045   1.287   4.156  0.9763 -0.8116 -0.9418
11178TIP3   OH254948   2.766   5.176   3.182  0.1034  0.4235 -0.4457
11178TIP3    H154949   2.809   5.226   3.112  0.1149  1.4581  0.2854
11178TIP3    H254950   2.696   5.129   3.137  0.4533  0.6409 -1.2483
11179TIP3   OH254951   1.521   5.327  14.793 -0.2046  0.5908 -0.0965
11179TIP3    H154952   1.576   5.404  14.776  1.0845 -0.4268 -0.6673
11179TIP3    H254953   1.582   5.255  14.805 -1.3797 -0.3039  0.7966
11180TIP3   OH254954   3.376   4.109  13.275 -0.2200  0.1155 -0.4827
11180TIP3    H154955   3.304   4.127  13.214  0.4601  1.1445 -1.0063
11180TIP3    H254956   3.338   4.050  13.340 -1.2851 -0.0740 -1.2519
11181TIP3   OH254957   2.228   0.847   0.165 -0.2268  0.3882 -0.5834
11181TIP3    H154958   2.277   0.908   0.110 -0.5911  0.3960 -0.9052
11181TIP3    H254959   2.165   0.902   0.212 -0.1087  0.3441 -0.3706
11182TIP3   OH254960   4.428   3.776  16.520 -0.5797 -0.0484  0.2646
11182TIP3    H154961   4.334   3.788  16.509 -0.5459 -0.9541 -1.3591
11182TIP3    H254962   4.468   3.848  16.472 -0.4497 -0.3030 -0.0135
11183TIP3   OH254963   3.900   1.520  14.441 -0.0193 -0.0417 -0.5865
11183TIP3    H154964   3.977   1.544  14.389  1.1830  1.1799  1.5913
11183TIP3    H254965   3.841   1.595  14.433  1.1258  1.1646  1.4339
11184TIP3   OH254966   4.406   5.474   0.302  0.3038  0.7176 -0.1466
11184TIP3    H154967   4.387   5.566   0.323 -1.0366 -0.0691  2.4293
11184TIP3    H254968   4.371   5.424   0.375  3.2716 -1.7145 -0.1808
11185TIP3   OH254969   4.697   1.712   0.483 -0.3481 -0.4527  0.1375
11185TIP3    H154970   4.654   1.636   0.445 -2.0094  0.1267  0.7746
11185TIP3    H254971   4.737   1.679   0.564  1.7606 -1.3089 -1.1523
11186TIP3   OH254972   1.334   0.056   4.762 -0.7894 -0.2929  0.2611
11186TIP3    H154973   1.371   0.050   4.673  0.1269 -1.0235  0.6738
11186TIP3    H254974   1.381   0.129   4.803 -2.2642  1.0386 -0.3059
11187TIP3   OH254975   0.951   0.585  16.714  0.2604  0.0593  0.0223
11187TIP3    H154976   1.029   0.563  16.765  1.0779 -0.2501 -1.3058
11187TIP3    H254977   0.982   0.651  16.651 -1.2902  2.3572  1.5109
11188TIP3   OH254978   1.700   5.419  16.953 -0.7199  0.3330  0.3424
11188TIP3    H154979   1.739   5.456  17.032  1.3232  0.6483 -0.7444
11188TIP3    H254980   1.770   5.422  16.888 -2.2376 -0.2160 -1.4051
11189TIP3   OH254981   2.033   4.485   0.043 -0.3234 -0.0380  0.2371
11189TIP3    H154982   2.071   4.542  -0.023  0.6348 -0.2423  0.5913
11189TIP3    H254983   1.938   4.492   0.029 -0.1441 -1.1563 -2.0773
11190TIP3   OH254984   4.073   3.727   4.524  0.2874 -0.3779 -0.4931
11190TIP3    H154985   4.135   3.710   4.454 -1.3220 -0.1843 -2.0442
11190TIP3    H254986   4.032   3.810   4.501 -1.4124 -1.0873 -0.2118
11191TIP3   OH254987   1.355   0.998  14.334  0.1164 -0.1349 -0.1230
11191TIP3    H154988   1.362   1.091  14.357  0.6317 -0.2237  0.0989
11191TIP3    H254989   1.384   0.952  14.413 -1.2348 -0.5118  0.1725
11192TIP3   OH254990   4.849   5.451  13.205  0.1642 -0.1403  0.2932
11192TIP3    H154991   4.826   5.501  13.284 -0.4645 -0.3643  0.2563
11192TIP3    H254992   4.921   5.394  13.233  0.3097  0.1707  0.5611
11193TIP3   OH254993   1.001   5.631   2.040  0.1236 -0.1738  0.5127
11193TIP3    H154994   1.091   5.627   2.009 -0.5615  0.3323 -1.7117
11193TIP3    H254995   0.981   5.541   2.065  0.5246 -0.8297 -1.3308
11194TIP3   OH254996   2.774   3.155   4.091  0.4719 -0.5305 -0.5727
11194TIP3    H154997   2.796   3.124   4.003 -0.5988 -0.5947 -0.8342
11194TIP3    H254998   2.700   3.100   4.118  0.2488  0.0539  0.0304
11195TIP3   OH254999   3.003   3.055  16.122  0.4189  0.1080  0.3240
11195TIP3    H155000   2.916   3.055  16.083  0.4474  0.8043  0.2478
11195TIP3    H255001   3.002   2.982  16.184  0.0706 -0.4343 -0.3090
11196TIP3   OH255002   1.108   5.842  14.153  0.0229 -0.0722 -0.0580
11196TIP3    H155003   1.085   5.756  14.119  0.1664  0.3729 -1.3291
11196TIP3    H255004   1.027   5.875  14.192 -0.1951 -0.5184 -0.1281
11197TIP3   OH255005   1.005   3.364  11.627  0.3948 -0.4693 -1.0221
11197TIP3    H155006   1.067   3.325  11.689 -1.8278  1.7726  3.0072
11197TIP3    H255007   0.931   3.303  11.626  0.7732 -0.9519 -2.3506
11198TIP3   OH255008   4.497   1.817   2.418 -0.2863 -0.0853  0.4535
11198TIP3    H155009   4.504   1.896   2.364  1.0840 -2.1638 -2.7060
11198TIP3    H255010   4.575   1.819   2.473 -0.9662  1.3662  1.4355
11199TIP3   OH255011   3.980   1.034  12.811  0.1285 -0.3961  0.1079
11199TIP3    H155012   3.888   1.042  12.784 -0.5399 -2.6882  1.4447
11199TIP3    H255013   3.986   1.089  12.889 -0.6149 -1.5906  1.0398
11200TIP3   OH255014   4.168   3.777  12.831  0.0925 -0.0123  0.1416
11200TIP3    H155015   4.079   3.777  12.865  0.1137 -1.9659  0.3073
11200TIP3    H255016   4.216   3.717  12.889  0.1587 -3.4251 -3.0837
11201TIP3   OH255017   3.159   1.506   0.964  1.0542 -0.2555  0.2533
11201TIP3    H155018   3.083   1.469   0.918  1.2597  0.4692 -0.7060
11201TIP3    H255019   3.126   1.529   1.050 -0.0623  0.8049 -0.4139
11202TIP3   OH255020   0.247   2.995  12.144  0.0997  0.0471  0.3860
11202TIP3    H155021   0.161   2.957  12.122  0.7878 -1.0988 -0.4686
11202TIP3    H255022   0.309   2.946  12.089  1.5841 -0.8121  2.6698
11203TIP3   OH255023   0.144   3.889  15.766  0.2282  0.0279 -0.1420
11203TIP3    H155024   0.175   3.833  15.695 -1.4629 -0.0731 -0.8575
11203TIP3    H255025   0.116   3.829  15.834 -1.9386 -0.0977 -1.0586
11204TIP3   OH255026   6.351   0.527  12.013 -0.3544 -0.3251 -0.2778
11204TIP3    H155027   6.442   0.548  11.989 -0.4426  1.8994  1.0862
11204TIP3    H255028   6.355   0.509  12.107 -1.2429 -0.8746 -0.3359
11205TIP3   OH255029   5.374   0.371   4.971  0.6748  0.1567  0.1748
11205TIP3    H155030   5.445   0.363   4.907  0.2046 -0.0899 -0.3283
11205TIP3    H255031   5.321   0.444   4.938  0.6504  0.2921  0.5085
11206TIP3   OH255032   5.954   0.664   4.235  0.3351  0.4144 -0.4594
11206TIP3    H155033   5.899   0.742   4.229  1.5028  1.2747 -0.2474
11206TIP3    H255034   5.963   0.633   4.145  0.6153  1.0689 -0.6640
11207TIP3   OH255035   4.309   6.160  11.381  0.0218 -0.5719  0.1544
11207TIP3    H155036   4.317   6.092  11.314  0.2620  0.7807 -1.2401
11207TIP3    H255037   4.251   6.122  11.447 -0.8217 -1.6833 -1.1712
11208TIP3   OH255038   3.805   2.514   4.533  0.0920 -0.1256 -0.1539
11208TIP3    H155039   3.893   2.484   4.512  0.2142 -0.1812  0.4235
11208TIP3    H255040   3.816   2.604   4.563  0.0884 -0.4676  0.9099
11209TIP3   OH255041   4.219   0.532   1.117  0.1462 -0.2413 -0.4216
11209TIP3    H155042   4.231   0.625   1.136 -1.0923  0.0361 -0.8726
11209TIP3    H255043   4.306   0.493   1.127  0.2492  0.5007  2.2323
11210TIP3   OH255044   1.418   3.619   4.274 -0.5414 -0.3139  0.0016
11210TIP3    H155045   1.463   3.538   4.247 -2.1251 -0.9703 -0.7736
11210TIP3    H255046   1.475   3.689   4.242 -0.5245 -1.1125 -1.8388
11211TIP3   OH255047   1.211   5.416  15.067 -0.1497 -0.4419  0.1300
11211TIP3    H155048   1.275   5.478  15.101 -0.3890  0.1637 -0.5106
11211TIP3    H255049   1.223   5.416  14.973 -1.1997 -0.1894 -0.0186
11212TIP3   OH255050   6.245   6.500   3.609  0.1132 -0.1909 -0.2095
11212TIP3    H155051   6.220   6.411   3.586 -0.2472 -0.0520 -0.3607
11212TIP3    H255052   6.309   6.525   3.543  3.4277 -1.8047  2.1249
11213TIP3   OH255053   0.002   0.941  10.823 -0.0441  0.3874 -0.2199
11213TIP3    H155054  -0.026   0.853  10.847 -1.5963  0.3939 -1.7754
11213TIP3    H255055   0.076   0.927  10.764 -0.8960  0.0429 -1.2418
11214TIP3   OH255056   2.988   5.756   0.300  0.4128 -0.0087 -0.1389
11214TIP3    H155057   2.938   5.819   0.249  0.3576 -0.7083 -0.9614
11214TIP3    H255058   2.985   5.675   0.249  1.2746 -0.4199  0.4351
11215TIP3   OH255059   4.419   4.236   1.325  0.2975 -0.1036  0.1814
11215TIP3    H155060   4.466   4.172   1.380  1.7020 -0.6682 -1.5798
11215TIP3    H255061   4.358   4.183   1.274  0.1293  0.2206  0.0424
11216TIP3   OH255062   1.533   1.345  16.880  0.0776  0.2774 -1.2236
11216TIP3    H155063   1.533   1.258  16.920  0.1812  0.1418 -1.5170
11216TIP3    H255064   1.626   1.367  16.871  0.0510  0.4519 -1.0780
11217TIP3   OH255065   3.588   6.424  15.409  0.5618  0.0747 -0.2416
11217TIP3    H155066   3.683   6.414  15.405  0.7290  1.3288  0.2197
11217TIP3    H255067   3.572   6.513  15.379 -0.3897  0.1761  0.5200
11218TIP3   OH255068   4.548   0.825   6.514  0.6318  0.0174 -0.5497
11218TIP3    H155069   4.497   0.744   6.519  1.8960 -0.7623  0.1232
11218TIP3    H255070   4.485   0.893   6.537  0.1001 -1.0366  1.3708
11219TIP3   OH255071   1.307   4.002   3.923 -0.1824  0.0393 -0.2328
11219TIP3    H155072   1.293   4.063   3.850 -0.7373 -0.4404 -0.5372
11219TIP3    H255073   1.396   4.020   3.953  0.2297 -0.0784 -1.3305
11220TIP3   OH255074   4.105   4.689   3.791 -0.0228  0.2921  0.2374
11220TIP3    H155075   4.145   4.768   3.755  1.4286 -0.1236  0.8737
11220TIP3    H255076   4.173   4.622   3.784 -1.1172 -0.8331  0.0046
11221TIP3   OH255077   2.684   2.171  11.775  0.3137  0.1944  0.3403
11221TIP3    H155078   2.588   2.167  11.769  0.2153  0.8596  1.3512
11221TIP3    H255079   2.711   2.215  11.695 -0.2633  0.5216  0.3197
11222TIP3   OH255080   1.947   5.714   3.791 -0.3426 -0.2644 -0.6309
11222TIP3    H155081   1.977   5.682   3.876  0.5614  1.0463 -0.4182
11222TIP3    H255082   1.855   5.738   3.805  0.0105  0.6851  0.2305
11223TIP3   OH255083   0.412   1.987   3.329 -0.4976  0.5580  0.0848
11223TIP3    H155084   0.506   1.985   3.312 -0.6859 -2.6570 -1.3170
11223TIP3    H255085   0.405   2.024   3.418  2.1615 -0.0106  0.6273
11224TIP3   OH255086   6.770   2.009   2.517 -0.6967 -0.0340  0.0141
11224TIP3    H155087   6.780   1.934   2.458  1.0218  0.2292 -0.0725
11224TIP3    H255088   6.675   2.018   2.527 -0.9734 -2.3904  0.2702
11225TIP3   OH255089   6.677   5.368   5.671 -0.2947  0.0308 -0.6423
11225TIP3    H155090   6.667   5.395   5.762 -1.2136 -0.4605 -0.5800
11225TIP3    H255091   6.762   5.402   5.644  1.5938 -2.7065  1.4091
11226TIP3   OH255092   3.766   3.314   1.375  0.2095  0.0982 -0.3539
11226TIP3    H155093   3.734   3.331   1.463 -1.3577 -1.8383 -0.4807
11226TIP3    H255094   3.750   3.396   1.328 -1.1560  0.4015  0.5750
11227TIP3   OH255095   1.398   4.302  11.475  0.6009  0.5929 -0.1686
11227TIP3    H155096   1.492   4.299  11.462  0.5306 -0.1582 -0.5742
11227TIP3    H255097   1.366   4.221  11.436  0.0048 -0.1778  1.8244
11228TIP3   OH255098   0.393   6.375  16.243 -1.0525 -0.2388 -0.4998
11228TIP3    H155099   0.454   6.324  16.191  0.5783  0.8364  0.2755
11228TIP3    H255100   0.448   6.426  16.302 -2.7517 -1.8707  2.8034
11229TIP3   OH255101   0.072   2.901   3.851 -0.1384  0.0148 -0.0289
11229TIP3    H155102   0.133   2.863   3.914 -0.3195  0.0433  0.1667
11229TIP3    H255103  -0.013   2.894   3.894 -0.4606 -1.1680 -0.7884
11230TIP3   OH255104   4.657   2.529   2.334 -0.1457 -0.0168 -0.4726
11230TIP3    H155105   4.606   2.492   2.262  1.7050  0.1657 -1.9322
11230TIP3    H255106   4.646   2.466   2.405  0.1471 -1.6051 -1.7776
11231TIP3   OH255107   2.760   2.706  16.166  0.1559 -0.1330  0.4553
11231TIP3    H155108   2.815   2.742  16.236 -0.1019  0.7858  0.1866
11231TIP3    H255109   2.680   2.758  16.169  0.6294  0.7516 -1.3360
11232TIP3   OH255110   4.735   1.504  12.155  0.0605  0.0724 -0.5498
11232TIP3    H155111   4.656   1.517  12.208  0.6550  1.1818  0.0905
11232TIP3    H255112   4.769   1.592  12.140  0.1318 -0.2313 -2.4832
11233TIP3   OH255113   5.935   6.789  12.838 -0.2124  0.4445  0.2631
11233TIP3    H155114   5.976   6.836  12.910 -1.4922  1.5034  0.3327
11233TIP3    H255115   5.926   6.699  12.871 -1.3623  1.0434  1.6975
11234TIP3   OH255116   3.919   2.098   5.764 -0.2061 -0.1571  0.7532
11234TIP3    H155117   3.834   2.141   5.751  0.3981  1.0874  0.7661
11234TIP3    H255118   3.913   2.017   5.712 -1.2837  0.0529  0.5137
11235TIP3   OH255119   1.521   2.924   2.742  0.0018 -0.1006  0.3296
11235TIP3    H155120   1.495   2.980   2.815 -1.7897  0.6992 -0.8483
11235TIP3    H255121   1.450   2.932   2.679  2.0702  0.3324 -2.1350
11236TIP3   OH255122   6.698   3.662   0.037 -0.0597 -0.2642 -0.2026
11236TIP3    H155123   6.659   3.708   0.111 -1.9046  0.3768 -1.5161
11236TIP3    H255124   6.777   3.622   0.073 -0.7131  0.3131  2.0161
11237TIP3   OH255125   5.935   5.408  11.536  0.0002  0.4619 -0.2007
11237TIP3    H155126   5.890   5.368  11.611  0.4262 -0.9500 -0.6703
11237TIP3    H255127   6.020   5.434  11.569  0.2616 -0.3412 -0.2309
11238TIP3   OH255128   1.596   2.243  13.951 -0.3978  0.6060 -0.3277
11238TIP3    H155129   1.639   2.257  14.035  0.1653 -0.6594 -0.3767
11238TIP3    H255130   1.546   2.323  13.936  1.8677  2.1616 -0.2194
11239TIP3   OH255131   1.409   3.010  12.895 -0.0409 -0.1606 -0.2309
11239TIP3    H155132   1.390   2.963  12.814 -0.7048 -2.0957  0.9881
11239TIP3    H255133   1.418   3.102  12.868  0.5346 -0.8409 -2.5802
11240TIP3   OH255134   3.764   6.231  13.272  0.0526  0.1023  0.1818
11240TIP3    H155135   3.746   6.264  13.183  0.3938 -0.3544 -0.0576
11240TIP3    H255136   3.774   6.310  13.325 -0.7526  0.3826 -0.0634
11241TIP3   OH255137   4.891   4.598  13.875  0.2138  0.2875 -0.0440
11241TIP3    H155138   4.817   4.562  13.827 -0.1624 -0.2352  0.8857
11241TIP3    H255139   4.853   4.632  13.956  0.9294  0.4084  0.2522
11242TIP3   OH255140   2.096   6.453   1.492  0.6346 -0.5101  0.4745
11242TIP3    H155141   2.121   6.482   1.580 -1.3522 -0.3929  1.0350
11242TIP3    H255142   2.065   6.532   1.448  0.1807 -0.8478  0.1817
11243TIP3   OH255143   3.716   4.958  14.259 -0.2487  0.0555  0.1428
11243TIP3    H155144   3.776   5.030  14.241  0.8614 -0.6622  0.8452
11243TIP3    H255145   3.682   4.932  14.173 -0.0504  0.8792 -0.1953
11244TIP3   OH255146   0.264   3.997  11.706 -0.0785 -0.0812 -0.0844
11244TIP3    H155147   0.321   3.962  11.774  2.4136  1.2375 -1.3413
11244TIP3    H255148   0.233   4.081  11.740 -0.1427 -0.1667  0.0660
11245TIP3   OH255149   5.812   3.344  16.130 -0.1959  0.1662 -0.1485
11245TIP3    H155150   5.753   3.304  16.066 -2.1025  1.6277  0.5896
11245TIP3    H255151   5.794   3.298  16.212  1.4353 -0.9469 -0.3692
11246TIP3   OH255152   1.074   0.834  14.451 -0.0052 -0.4490 -0.6524
11246TIP3    H155153   1.107   0.823  14.362  0.3870 -0.6576 -0.4773
11246TIP3    H255154   0.981   0.854  14.439  0.3016  0.7973 -1.1776
11247TIP3   OH255155   4.167   0.406   0.878 -0.3638  0.1036  0.3656
11247TIP3    H155156   4.211   0.434   0.958  1.8017 -0.6118 -0.4988
11247TIP3    H255157   4.089   0.360   0.908  0.2832  0.0465  2.0400
11248TIP3   OH255158   3.568   1.030  16.311  0.3610  0.3478 -0.0748
11248TIP3    H155159   3.628   1.102  16.329 -1.5464  1.8878  0.4227
11248TIP3    H255160   3.524   1.014  16.395  0.6518 -1.3520 -0.1998
11249TIP3   OH255161   4.603   4.729   3.100  0.3008 -0.5138  0.5631
11249TIP3    H155162   4.553   4.803   3.063  2.4968  0.4658 -0.6379
11249TIP3    H255163   4.548   4.653   3.083 -0.8005  0.4977 -0.7069
11250TIP3   OH255164   6.537   1.989  12.573 -0.0755 -0.2459  0.3098
11250TIP3    H155165   6.554   2.056  12.639  1.4631 -0.3640  0.0656
11250TIP3    H255166   6.571   1.908  12.611  0.8840 -0.3075 -0.6076
11251TIP3   OH255167   1.594   5.776   1.068 -0.3804  1.0743  0.1855
11251TIP3    H155168   1.505   5.794   1.040 -0.7431  0.2883  0.8026
11251TIP3    H255169   1.649   5.814   1.000 -1.1797  1.7509 -0.0905
11252TIP3   OH255170   1.203   0.272   5.093  0.7040  0.0969 -0.1373
11252TIP3    H155171   1.119   0.280   5.137  0.0466 -0.1461 -1.3031
11252TIP3    H255172   1.240   0.360   5.094 -0.2277  0.5105 -0.8726
11253TIP3   OH255173   0.754   5.001   2.166 -0.7010  0.0355 -0.2015
11253TIP3    H155174   0.814   4.985   2.093 -1.9065 -0.4438 -1.1240
11253TIP3    H255175   0.743   5.096   2.167  2.3318  0.4926  1.8912
11254TIP3   OH255176   2.406   5.156  15.740  0.0992 -0.4928  0.1052
11254TIP3    H155177   2.452   5.188  15.662  2.0351 -1.0915  0.9434
11254TIP3    H255178   2.338   5.098  15.706 -0.5059  0.9232 -1.2109
11255TIP3   OH255179   0.500   4.289   1.185 -0.7616 -0.5207  0.2892
11255TIP3    H155180   0.564   4.255   1.247  0.5059 -0.6693 -1.0446
11255TIP3    H255181   0.431   4.327   1.240  0.8502  0.3834  1.8059
11256TIP3   OH255182   3.245   6.736  15.876 -0.4252  0.1335  0.2318
11256TIP3    H155183   3.201   6.724  15.960 -0.2480  0.8959  0.4366
11256TIP3    H255184   3.180   6.780  15.821  0.5702  2.7888  1.0426
11257TIP3   OH255185   0.116   1.525   4.827  0.2771 -0.1210  0.4927
11257TIP3    H155186   0.169   1.512   4.748 -0.0027  0.6598  0.1703
11257TIP3    H255187   0.074   1.610   4.814  1.2588  0.6504  2.0734
11258TIP3   OH255188   4.087   1.850  14.179 -0.9585  0.4328  0.5090
11258TIP3    H155189   4.101   1.944  14.168 -1.7574  0.5465  0.4311
11258TIP3    H255190   4.093   1.814  14.090 -2.2457  0.6401  0.3207
11259TIP3   OH255191   0.281   6.588  15.371 -0.7189  0.0830 -0.0756
11259TIP3    H155192   0.239   6.502  15.363  0.4274 -0.4578 -0.5284
11259TIP3    H255193   0.374   6.570  15.358 -0.4842  1.4272 -0.3624
11260TIP3   OH255194   6.179   2.214  16.165  0.3840  0.0774  0.1313
11260TIP3    H155195   6.235   2.171  16.230 -0.9450 -0.6450  0.8557
11260TIP3    H255196   6.107   2.152  16.151 -1.9032  2.2079  1.5925
11261TIP3   OH255197   2.521   2.634  11.525 -0.2170  0.1905 -0.6574
11261TIP3    H155198   2.585   2.566  11.503  0.6899  0.8474 -0.0845
11261TIP3    H255199   2.441   2.585  11.546  0.1787 -0.6552 -1.0693
11262TIP3   OH255200   3.034   0.543   2.487  0.5322  0.2225  0.0426
11262TIP3    H155201   3.127   0.561   2.503  0.5355  1.1907 -0.9168
11262TIP3    H255202   3.029   0.448   2.482  1.4258  0.1455  0.3604
11263TIP3   OH255203   2.056   3.268  13.070 -0.2353 -0.3945  0.2572
11263TIP3    H155204   2.092   3.315  13.146  2.7659 -0.3768 -1.0370
11263TIP3    H255205   2.068   3.176  13.091  0.4881 -0.3918 -0.1145
11264TIP3   OH255206   3.397   3.244   2.887  0.0700  0.4061  0.4347
11264TIP3    H155207   3.318   3.198   2.914  0.1077  1.0810  1.7184
11264TIP3    H255208   3.440   3.182   2.827 -0.4216 -0.7823  1.2712
11265TIP3   OH255209   5.378   6.672  11.603  0.3768  0.1939  0.0003
11265TIP3    H155210   5.325   6.602  11.642  3.0253 -1.3619  1.1102
11265TIP3    H255211   5.362   6.748  11.658 -3.0380  0.8168 -1.5879
11266TIP3   OH255212   4.152   1.225   2.115 -0.7089 -0.0655 -0.4560
11266TIP3    H155213   4.128   1.242   2.206  1.3516  1.7624 -0.1688
11266TIP3    H255214   4.107   1.293   2.065 -0.8361 -0.2805 -0.6336
11267TIP3   OH255215   1.086   3.172   0.428  0.0252  0.1695 -0.2292
11267TIP3    H155216   1.034   3.159   0.508 -1.5967 -0.1419 -1.2959
11267TIP3    H255217   1.056   3.256   0.394 -1.5244 -1.0485 -2.0716
11268TIP3   OH255218   0.937   0.267  11.556  0.7899 -0.3431 -0.4121
11268TIP3    H155219   0.982   0.350  11.574  0.2822  0.0864 -1.0869
11268TIP3    H255220   0.931   0.263  11.461 -0.2620 -0.5715 -0.3474
11269TIP3   OH255221   2.333   4.401  16.735 -0.0872 -0.4664 -0.0266
11269TIP3    H155222   2.261   4.376  16.794  1.3740 -2.2193  1.1061
11269TIP3    H255223   2.408   4.415  16.793  0.7941  0.2209 -1.2787
11270TIP3   OH255224   6.670   3.552  14.329 -0.3548 -0.3474  1.0331
11270TIP3    H155225   6.703   3.490  14.263 -1.2116 -0.6598  0.8790
11270TIP3    H255226   6.633   3.623  14.277  0.0431 -0.0112  1.2037
11271TIP3   OH255227   6.706   4.104  11.827  0.1093 -0.3254  0.1262
11271TIP3    H155228   6.713   4.136  11.737  3.6546 -0.8895  0.0605
11271TIP3    H255229   6.701   4.009  11.819 -0.8355 -0.3161  0.5169
11272TIP3   OH255230   5.419   2.303  11.349 -0.6251 -0.2406 -0.0087
11272TIP3    H155231   5.427   2.280  11.442  0.7566  0.6792  0.1244
11272TIP3    H255232   5.489   2.254  11.306 -0.9763 -0.3095 -0.5154
11273TIP3   OH255233   0.628   0.981  15.338  0.2170 -0.0706 -0.6337
11273TIP3    H155234   0.701   1.042  15.336 -0.7596  1.1351 -2.2531
11273TIP3    H255235   0.642   0.924  15.262  0.3224 -0.9015 -0.0056
11274TIP3   OH255236   0.448   3.666   4.805 -0.2448 -0.2029 -0.6879
11274TIP3    H155237   0.356   3.692   4.800 -0.7446 -1.7995 -0.4343
11274TIP3    H255238   0.446   3.571   4.791  1.4167 -0.1988 -1.1136
11275TIP3   OH255239   1.606   3.872   3.006 -0.1156  0.1294 -0.1645
11275TIP3    H155240   1.621   3.946   2.946  0.5347 -0.2939 -0.5409
11275TIP3    H255241   1.515   3.848   2.993 -0.5863  1.4095  0.5862
11276TIP3   OH255242   2.155   5.635  16.618 -0.1974 -0.1639 -0.3846
11276TIP3    H155243   2.193   5.596  16.540  1.1472  1.6691 -0.7067
11276TIP3    H255244   2.225   5.635  16.683 -1.4351 -2.1384  1.0700
11277TIP3   OH255245   5.678   2.684  13.542  0.2723 -0.2179 -0.1530
11277TIP3    H155246   5.734   2.607  13.535 -1.3195 -1.3700 -0.9912
11277TIP3    H255247   5.600   2.653  13.590 -0.5079  0.7840 -0.7249
11278TIP3   OH255248   2.218   3.932  11.346 -0.0704 -0.2837  0.5804
11278TIP3    H155249   2.167   3.855  11.371 -1.7285  0.2158 -1.1000
11278TIP3    H255250   2.211   3.936  11.251 -0.5004  2.2284  0.6476
11279TIP3   OH255251   4.999   4.308   4.239 -0.2788  0.4024  0.1083
11279TIP3    H155252   5.041   4.339   4.159 -0.9798  1.7625  0.2424
11279TIP3    H255253   5.061   4.328   4.309  0.2725 -0.6586 -0.0507
11280TIP3   OH255254   3.966   2.283  13.238  0.1303 -0.5510 -0.0411
11280TIP3    H155255   3.978   2.189  13.230 -0.7003 -0.7912  1.2979
11280TIP3    H255256   4.000   2.304  13.325 -0.0777  0.3212 -0.1622
11281TIP3   OH255257   6.249   6.342  15.711 -0.1136  0.6309 -0.4371
11281TIP3    H155258   6.207   6.314  15.792  1.3264  1.8162  0.7759
11281TIP3    H255259   6.329   6.386  15.739  0.5043  0.9608 -2.5223
11282TIP3   OH255260   0.083   1.461   2.592  0.4194  0.1577  0.2019
11282TIP3    H155261   0.067   1.545   2.634  0.5255  0.5423 -0.5041
11282TIP3    H255262  -0.003   1.419   2.588 -0.1712  1.3966 -1.8408
11283TIP3   OH255263   1.846   1.587  16.301 -0.1331 -0.1671 -0.4969
11283TIP3    H155264   1.898   1.526  16.353 -0.2432 -1.8396 -2.2348
11283TIP3    H255265   1.760   1.545  16.293 -1.2677  1.7171  0.8318
11284TIP3   OH255266   5.075   4.407   5.013  0.2521  0.3365  0.4910
11284TIP3    H155267   5.105   4.424   5.102 -0.2736  0.8879  0.5662
11284TIP3    H255268   5.155   4.385   4.965  0.7752  1.6730  0.7189
11285TIP3   OH255269   2.087   1.611  15.182  0.1879 -0.1437 -0.4201
11285TIP3    H155270   2.162   1.668  15.164  0.8518 -1.1730 -1.0353
11285TIP3    H255271   2.019   1.641  15.122 -0.4902  1.8440  1.2412
11286TIP3   OH255272   0.183   3.932   4.296 -0.6325  0.8922 -0.2277
11286TIP3    H155273   0.252   3.991   4.265  0.1704  0.1370  0.0613
11286TIP3    H255274   0.169   3.871   4.223 -0.0060  0.2077  0.2075
11287TIP3   OH255275   2.400   5.476  14.393 -0.1406  0.4455 -0.4423
11287TIP3    H155276   2.336   5.486  14.323  0.4358 -0.5832 -1.1550
11287TIP3    H255277   2.435   5.387  14.380  1.4798  1.0063 -0.1377
11288TIP3   OH255278   1.349   3.289   2.056  0.6374 -0.6581 -0.2933
11288TIP3    H155279   1.399   3.346   1.998  2.3395 -0.0593  1.5961
11288TIP3    H255280   1.258   3.313   2.042  1.2238  1.9055 -0.2614
11289TIP3   OH255281   1.511   0.240   1.126 -0.0629  0.1768  0.4058
11289TIP3    H155282   1.424   0.226   1.161 -0.1006  0.2278  0.3325
11289TIP3    H255283   1.560   0.162   1.151 -0.0811  0.2255  0.5975
11290TIP3   OH255284   6.277   2.294  12.933  0.7285 -0.1897  0.2287
11290TIP3    H155285   6.185   2.304  12.960  0.0647 -0.4980 -1.7416
11290TIP3    H255286   6.296   2.373  12.882  0.9468 -0.9375 -0.8927
11291TIP3   OH255287   2.057   1.001  16.753 -0.1474  0.8469 -0.1354
11291TIP3    H155288   1.964   0.987  16.772  0.0638 -2.7617 -1.0276
11291TIP3    H255289   2.102   0.940  16.812  1.5091  0.9561 -1.2390
11292TIP3   OH255290   5.302   0.491   2.282  0.1105 -0.3244  0.2133
11292TIP3    H155291   5.286   0.398   2.265 -3.8116 -0.0184  1.2329
11292TIP3    H255292   5.291   0.499   2.377 -0.3745  1.2907  0.0361
11293TIP3   OH255293   6.302   2.717   0.174 -0.1853 -0.4090 -0.0145
11293TIP3    H155294   6.271   2.806   0.188 -0.4229 -0.9170  3.7834
11293TIP3    H255295   6.376   2.708   0.233 -0.3074 -2.7681 -0.1264
11294TIP3   OH255296   1.109   6.270  14.768 -0.3375  0.1631  0.0158
11294TIP3    H155297   1.116   6.175  14.767 -2.2030 -0.0501  1.0125
11294TIP3    H255298   1.016   6.287  14.753 -0.4631  1.6953  2.0811
11295TIP3   OH255299   6.298   0.765   4.079 -0.7619  0.5345  0.0650
11295TIP3    H155300   6.225   0.748   4.139 -1.2991  0.1753 -0.6559
11295TIP3    H255301   6.281   0.705   4.005  0.6430 -0.0474  0.1960
11296TIP3   OH255302   6.542   5.258   3.897 -0.3954  0.9646  0.1675
11296TIP3    H155303   6.602   5.330   3.878  1.2217 -0.6438 -1.1953
11296TIP3    H255304   6.494   5.245   3.815  0.0199 -0.1012  0.0784
11297TIP3   OH255305   5.392   4.966  11.293  0.0694  0.2192  0.0910
11297TIP3    H155306   5.321   4.942  11.234  0.1975 -0.9102  0.3821
11297TIP3    H255307   5.410   5.058  11.272 -0.6757  0.1781 -0.8015
11298TIP3   OH255308   4.001   2.452   0.401 -0.2450 -0.4254  0.4998
11298TIP3    H155309   4.014   2.536   0.358 -0.5414 -0.4917  0.2856
11298TIP3    H255310   4.064   2.453   0.473  0.2154 -0.2930  0.1036
11299TIP3   OH255311   2.337   4.716  14.126  0.3386 -0.2221 -0.0219
11299TIP3    H155312   2.275   4.755  14.065  0.2927 -0.3182 -0.0356
11299TIP3    H255313   2.294   4.722  14.212  0.9172  1.0490  0.2010
11300TIP3   OH255314   4.958   1.988  13.699  0.4127 -0.0584  0.0463
11300TIP3    H155315   4.923   1.960  13.615 -3.2931  1.1241  1.0014
11300TIP3    H255316   4.982   2.080  13.686 -0.7629  0.3139  0.3704
11301TIP3   OH255317   2.586   3.447   5.274 -0.0367 -0.5920  0.0745
11301TIP3    H155318   2.555   3.486   5.356  1.9879 -0.3076  0.7483
11301TIP3    H255319   2.576   3.353   5.287 -0.2287 -0.5266  0.4197
11302TIP3   OH255320   3.120   5.241   2.435 -0.9763 -0.4130 -0.4004
11302TIP3    H155321   3.145   5.157   2.398  0.8989  0.2036 -0.6135
11302TIP3    H255322   3.157   5.306   2.376  1.4402  0.6102  2.0337
11303TIP3   OH255323   1.732   3.156   2.559 -0.2316  0.8346  0.5111
11303TIP3    H155324   1.651   3.126   2.602 -0.5573 -0.4508 -0.8989
11303TIP3    H255325   1.801   3.131   2.620 -0.6428 -1.3973  0.1551
11304TIP3   OH255326   1.523   4.316  10.742 -0.1240 -0.6005 -0.2692
11304TIP3    H155327   1.601   4.266  10.719  0.2216  0.3273 -1.1921
11304TIP3    H255328   1.484   4.267  10.814  0.8423 -1.5409 -0.3527
11305TIP3   OH255329   5.476   2.114  15.411  0.2127 -0.1485  0.4053
11305TIP3    H155330   5.412   2.049  15.382  1.3086 -1.6777  1.2485
11305TIP3    H255331   5.423   2.186  15.445 -1.1224 -1.7543  1.9277
11306TIP3   OH255332   5.770   1.065  17.104  0.3768 -0.3540 -0.3643
11306TIP3    H155333   5.703   1.000  17.087  0.3978 -0.7023  0.7546
11306TIP3    H255334   5.777   1.115  17.023 -1.7104  0.1370 -0.2846
11307TIP3   OH255335   2.050   3.743  16.017  0.4545  0.0545 -0.0018
11307TIP3    H155336   2.041   3.835  16.044 -0.5624 -0.1605  0.4118
11307TIP3    H255337   1.964   3.719  15.985  1.1558 -0.2430 -1.8206
11308TIP3   OH255338   2.255   3.557   5.143 -0.9705 -0.0623 -0.0540
11308TIP3    H155339   2.237   3.549   5.049 -0.6629 -0.8717 -0.0584
11308TIP3    H255340   2.219   3.642   5.168 -1.1852  0.0949 -0.8755
11309TIP3   OH255341   5.045   6.287  14.135  0.8920 -0.2702 -0.2410
11309TIP3    H155342   5.050   6.194  14.156  0.1185  0.0826  1.7571
11309TIP3    H255343   4.990   6.324  14.204  2.4595  1.9214 -0.0751
11310TIP3   OH255344   0.555   5.340   4.731 -0.2234 -0.1409 -0.5176
11310TIP3    H155345   0.547   5.246   4.712  0.0467 -0.5280  1.1431
11310TIP3    H255346   0.624   5.370   4.672 -0.2793 -0.9939 -1.0353
11311TIP3   OH255347   4.550   5.002  12.091  0.5733 -0.3325 -0.2630
11311TIP3    H155348   4.572   4.973  12.002  1.2282  0.4632 -0.3704
11311TIP3    H255349   4.620   4.967  12.146  1.0626  0.5165 -0.3131
11312TIP3   OH255350   2.039   3.246   3.350 -0.3614 -0.4126  0.6994
11312TIP3    H155351   2.008   3.320   3.402  1.9554 -0.0680  1.6880
11312TIP3    H255352   2.129   3.269   3.327  0.6096 -3.1117  1.4741
11313TIP3   OH255353   5.311   3.368   1.199  0.0007 -0.3463  0.4819
11313TIP3    H155354   5.294   3.322   1.281  1.2660 -1.4979  0.1326
11313TIP3    H255355   5.354   3.450   1.226  1.6054 -1.3048  0.9401
11314TIP3   OH255356   3.138   0.628  13.959 -0.1596 -0.0912  0.4974
11314TIP3    H155357   3.126   0.581  14.041 -0.3422  0.6999  0.9394
11314TIP3    H255358   3.218   0.590  13.921 -1.2169 -1.9098 -0.0004
11315TIP3   OH255359   4.439   0.816   2.846 -0.0189  0.3928  0.2206
11315TIP3    H155360   4.380   0.753   2.888 -0.0837 -0.4385 -1.0569
11315TIP3    H255361   4.396   0.837   2.763  1.9098 -1.0273 -1.2210
11316TIP3   OH255362   6.211   5.739  11.849  0.2384  0.0098 -0.0325
11316TIP3    H155363   6.257   5.662  11.815 -0.3601 -0.9706  1.2877
11316TIP3    H255364   6.280   5.804  11.862  0.9933 -0.8291  0.2486
11317TIP3   OH255365   3.855   5.562  13.804 -0.2619 -0.1734  0.2353
11317TIP3    H155366   3.926   5.589  13.746 -1.7842  0.4938 -1.3797
11317TIP3    H255367   3.787   5.530  13.746 -1.0123 -1.5952  1.7929
11318TIP3   OH255368   2.659   5.784  13.454  0.6909  0.3457  0.9551
11318TIP3    H155369   2.727   5.718  13.468 -0.3014 -0.9176  0.0342
11318TIP3    H255370   2.655   5.795  13.359 -1.3237 -0.6709  0.8722
11319TIP3   OH255371   1.522   3.148  15.566  0.0603 -0.1182 -0.5009
11319TIP3    H155372   1.594   3.209  15.585  1.4593 -0.8967 -2.8122
11319TIP3    H255373   1.451   3.204  15.535  0.7556  0.5023 -1.0533
11320TIP3   OH255374   3.239   6.429  11.952  0.6655 -0.4298 -0.3350
11320TIP3    H155375   3.213   6.424  12.044  0.6998 -1.0055 -0.3531
11320TIP3    H255376   3.193   6.505  11.918 -0.1554 -0.8053 -0.0944
11321TIP3   OH255377   1.827   3.653  13.871  0.7645 -0.0195  0.6293
11321TIP3    H155378   1.787   3.570  13.846 -0.8720  1.5478 -2.4879
11321TIP3    H255379   1.782   3.679  13.951 -1.8325 -0.1468 -0.7125
11322TIP3   OH255380   6.530   5.126  14.436 -0.3262  0.2388 -0.2899
11322TIP3    H155381   6.499   5.063  14.370  0.0760  1.9788 -2.2530
11322TIP3    H255382   6.511   5.084  14.520 -1.0921 -1.9899 -1.4870
11323TIP3   OH255383   0.911   0.008   6.428  0.0372  0.1322 -0.1305
11323TIP3    H155384   0.828   0.055   6.419  0.0236  0.3860  1.1607
11323TIP3    H255385   0.901  -0.043   6.508  0.9568 -0.2187 -0.2290
11324TIP3   OH255386   5.967   6.342   3.187 -0.1249 -0.0985 -0.5005
11324TIP3    H155387   5.956   6.323   3.094 -0.9786 -0.5496 -0.3153
11324TIP3    H255388   5.901   6.409   3.205  0.4111  0.3899 -0.3366
11325TIP3   OH255389   5.517   4.808   2.630 -0.5161  0.1949 -0.9690
11325TIP3    H155390   5.535   4.715   2.615 -1.3917 -0.1368 -0.0607
11325TIP3    H255391   5.422   4.816   2.619 -0.4174  1.0475 -1.3084
11326TIP3   OH255392   0.145   4.007   5.308 -0.4322 -0.2371 -0.0628
11326TIP3    H155393   0.129   3.950   5.233  0.7324  1.3499 -1.6071
11326TIP3    H255394   0.147   4.095   5.271  0.3482  0.6005  1.8236
11327TIP3   OH255395   3.905   4.065  16.166  0.7518  0.0932  0.0115
11327TIP3    H155396   3.864   4.054  16.253  3.2475  1.2861  1.4417
11327TIP3    H255397   3.922   3.975  16.137 -1.0262 -0.3593  0.2500
11328TIP3   OH255398   0.448   2.768  11.284  0.1652  0.1513 -0.6560
11328TIP3    H155399   0.453   2.685  11.237 -2.3302 -0.5848  0.2163
11328TIP3    H255400   0.482   2.832  11.222  4.6484 -1.6999 -0.4612
11329TIP3   OH255401   5.003   3.052  11.876  0.1403 -0.0862 -0.3617
11329TIP3    H155402   5.082   3.047  11.930  1.0996  0.3593 -1.6687
11329TIP3    H255403   4.994   2.965  11.838  1.0997  0.3321 -1.6442
11330TIP3   OH255404   4.654   4.394   0.073  0.1031 -0.5735 -0.0020
11330TIP3    H155405   4.623   4.407  -0.017 -1.6133 -1.7202  0.3709
11330TIP3    H255406   4.614   4.466   0.123 -0.5480 -1.0376  0.1626
11331TIP3   OH255407   3.322   3.413   0.260  0.5603  0.6558 -0.1384
11331TIP3    H155408   3.266   3.412   0.183 -0.2822 -0.7181  0.4502
11331TIP3    H255409   3.362   3.500   0.260 -2.9486  2.4369  0.3584
11332TIP3   OH255410   5.964   5.558   3.123  0.2576  0.2712  0.0221
11332TIP3    H155411   5.948   5.467   3.099  0.7593  0.1420  0.1629
11332TIP3    H255412   6.002   5.598   3.044  2.3037 -0.2592  0.6753
11333TIP3   OH255413   2.174   3.585  16.179 -0.3753 -0.0503  0.5789
11333TIP3    H155414   2.141   3.653  16.120  0.6403  0.9003  1.0694
11333TIP3    H255415   2.140   3.503  16.142  0.2788  0.4904 -1.3837
11334TIP3   OH255416   4.088   1.619   0.819 -0.0628 -0.1683 -0.0283
11334TIP3    H155417   4.010   1.609   0.765 -0.7097 -0.7423  0.9781
11334TIP3    H255418   4.154   1.562   0.779 -0.7994 -1.2463  0.2635
11335TIP3   OH255419   5.968   5.769   2.508  0.0171  0.3142 -0.0838
11335TIP3    H155420   5.951   5.827   2.583  1.7884  0.7459  0.0463
11335TIP3    H255421   5.919   5.809   2.436  1.4354  2.2341 -0.0766
11336TIP3   OH255422   5.180   6.430   0.710  0.1791 -0.0916 -0.3114
11336TIP3    H155423   5.100   6.393   0.673  0.7633 -1.1363 -0.5428
11336TIP3    H255424   5.157   6.452   0.801 -0.9402  1.4780 -0.9181
11337TIP3   OH255425   1.576   2.719  12.258 -0.1198 -0.2341  0.1952
11337TIP3    H155426   1.580   2.814  12.263 -2.1812 -0.1522  1.3401
11337TIP3    H255427   1.668   2.691  12.253  0.4819  1.8405 -2.0842
11338TIP3   OH255428   2.117   1.460   5.487 -0.1994 -0.2246 -0.7204
11338TIP3    H155429   2.163   1.530   5.531 -1.7471 -0.2505  1.0867
11338TIP3    H255430   2.184   1.394   5.468  0.9761  1.0207 -0.9676
11339TIP3   OH255431   2.380   4.980  14.857  0.4112  0.4888  0.2234
11339TIP3    H155432   2.398   4.901  14.909 -0.4960 -0.1870 -0.4399
11339TIP3    H255433   2.285   4.978  14.843  0.4034  1.5997  0.0253
11340TIP3   OH255434   0.314   3.265  12.604  0.0289  0.2936  0.2100
11340TIP3    H155435   0.368   3.218  12.540 -0.0689  1.2901 -0.6311
11340TIP3    H255436   0.225   3.234  12.587 -0.0783  0.9927 -0.5556
11341TIP3   OH255437   3.064   5.630  11.250 -0.2814  0.2579  0.5211
11341TIP3    H155438   3.011   5.611  11.327  0.2701 -1.5668  0.4978
11341TIP3    H255439   3.139   5.679  11.284 -0.0457 -0.5308  1.1559
11342TIP3   OH255440   6.097   0.550   4.464  0.0909 -0.1928 -0.2612
11342TIP3    H155441   6.091   0.644   4.448 -0.6891  0.0359  1.1740
11342TIP3    H255442   6.031   0.511   4.407 -0.0199  0.1954 -0.3954
11343TIP3   OH255443   5.796   0.422   4.769  0.0283  0.1515 -0.3737
11343TIP3    H155444   5.758   0.480   4.703 -1.8231 -1.7879 -1.1661
11343TIP3    H255445   5.887   0.410   4.741  0.1630  1.8437 -0.7312
11344TIP3   OH255446   6.783   1.370   4.446  0.1290  0.2050  0.3991
11344TIP3    H155447   6.859   1.339   4.496  0.2518 -0.4024 -0.1431
11344TIP3    H255448   6.799   1.463   4.433  1.1693 -0.0587 -0.3493
11345TIP3   OH255449   2.062   4.667  11.820 -0.7165  0.1590  0.0795
11345TIP3    H155450   2.051   4.683  11.726  0.6655  0.8857  0.0216
11345TIP3    H255451   2.080   4.573  11.825  1.7890  0.5211 -0.6934
11346TIP3   OH255452   5.689   4.850  16.046  0.6807  0.1729  0.8676
11346TIP3    H155453   5.674   4.756  16.045  1.5190  0.0332  0.0809
11346TIP3    H255454   5.608   4.887  16.081  0.1345 -0.8028  0.6648
11347TIP3   OH255455   4.196   4.955   3.982 -0.0877 -0.3198 -0.0356
11347TIP3    H155456   4.240   4.969   4.066 -2.1166  0.7146  0.9273
11347TIP3    H255457   4.265   4.922   3.925  2.4334  2.8673  0.8348
11348TIP3   OH255458   2.523   0.935  11.409 -0.0824 -0.4226 -0.1964
11348TIP3    H155459   2.468   1.013  11.418 -0.5246 -0.9547  2.5405
11348TIP3    H255460   2.487   0.889  11.334 -1.7692  0.5103 -0.0146
11349TIP3   OH255461   3.432   5.234   1.384 -0.0002  0.1794 -0.4306
11349TIP3    H155462   3.434   5.174   1.309 -2.3019 -0.7535  0.1650
11349TIP3    H255463   3.458   5.180   1.458 -0.6625  0.2729 -0.1204
11350TIP3   OH255464   0.980   6.321   5.470 -0.4582 -0.4146  1.0511
11350TIP3    H155465   1.059   6.357   5.511  0.3863  0.3009 -1.0618
11350TIP3    H255466   1.013   6.273   5.393 -2.1382  1.8265 -1.2358
11351TIP3   OH255467   5.705   6.298  15.513 -0.0604 -0.1184 -0.5383
11351TIP3    H155468   5.786   6.301  15.565  0.2105 -2.4499 -0.7215
11351TIP3    H255469   5.635   6.295  15.578  0.1673 -0.9507 -0.3188
11352TIP3   OH255470   2.333   6.436   1.980  0.2592 -0.0787  0.8679
11352TIP3    H155471   2.299   6.524   1.995  1.0557  0.3983 -0.0233
11352TIP3    H255472   2.419   6.436   2.022  0.4194 -0.3174  0.5391
11353TIP3   OH255473   6.816   4.873   3.206  0.3431  0.1727 -0.1348
11353TIP3    H155474   6.872   4.820   3.150 -0.4054  0.0687 -0.8132
11353TIP3    H255475   6.735   4.883   3.156  0.0616  1.0203  0.4573
11354TIP3   OH255476   5.575   4.076  15.995 -0.2660  0.2925  0.3853
11354TIP3    H155477   5.524   4.022  16.056 -2.5156  0.4588 -1.2084
11354TIP3    H255478   5.555   4.039  15.909  1.1828  1.3513 -0.4454
11355TIP3   OH255479   0.211   5.109   0.415 -0.8135  0.0253 -0.1677
11355TIP3    H155480   0.267   5.083   0.342 -0.4446  0.1651  0.0620
11355TIP3    H255481   0.271   5.122   0.488 -1.0475  1.0452 -0.1438
11356TIP3   OH255482   6.774   6.212  10.610  0.6274  0.3953  0.1390
11356TIP3    H155483   6.833   6.241  10.680  1.7273  1.1641 -1.0811
11356TIP3    H255484   6.712   6.284  10.601 -0.1471 -0.1365  0.9754
11357TIP3   OH255485   2.649   3.727   1.269 -0.1648 -0.4512  0.1565
11357TIP3    H155486   2.588   3.690   1.332 -1.0917 -0.3867 -0.6727
11357TIP3    H255487   2.628   3.684   1.186  0.7711 -0.2612 -0.2019
11358TIP3   OH255488   2.414   2.658  14.903 -0.1791 -0.4118  0.0618
11358TIP3    H155489   2.424   2.684  14.994 -2.3381 -0.2067  0.2960
11358TIP3    H255490   2.503   2.657  14.868  0.4807  2.3380  1.3896
11359TIP3   OH255491   5.802   3.571  13.887  0.5153  0.3833  0.3002
11359TIP3    H155492   5.792   3.594  13.979 -2.6424 -1.2787  0.4940
11359TIP3    H255493   5.734   3.506  13.870  1.0490  0.5185 -3.2104
11360TIP3   OH255494   4.355   0.703   3.153 -0.1666 -0.6068  0.0407
11360TIP3    H155495   4.443   0.739   3.140 -1.2443  1.5679 -2.2333
11360TIP3    H255496   4.348   0.634   3.087  0.1818 -1.6104  1.0210
11361TIP3   OH255497   2.576   4.627  16.437  0.3120 -0.0246 -0.3468
11361TIP3    H155498   2.632   4.552  16.454  0.7035  0.3967  0.2555
11361TIP3    H255499   2.523   4.636  16.517 -0.7210 -0.5068 -0.9636
11362TIP3   OH255500   3.075   5.206  15.321  0.5281 -0.1580  0.6818
11362TIP3    H155501   3.092   5.289  15.366 -0.5153 -0.0338  0.8810
11362TIP3    H255502   2.979   5.200  15.318  0.5244 -0.0202 -1.7565
11363TIP3   OH255503   3.827   2.892   0.421  0.4232 -0.3427 -0.5004
11363TIP3    H155504   3.890   2.872   0.491  2.0360 -0.5362 -1.9571
11363TIP3    H255505   3.768   2.817   0.420  1.4092 -1.1460 -0.4421
11364TIP3   OH255506   4.594   1.312  14.456 -0.4050  0.0481 -0.7320
11364TIP3    H155507   4.505   1.341  14.477  0.7991  3.3061  0.5714
11364TIP3    H255508   4.614   1.245  14.521 -1.6478 -0.2655 -0.6354
11365TIP3   OH255509   0.247   6.145  13.910 -0.0252 -0.2933  0.5171
11365TIP3    H155510   0.171   6.191  13.874 -0.8225 -1.9952 -0.0798
11365TIP3    H255511   0.312   6.145  13.839 -0.5715 -1.2973 -0.0012
11366TIP3   OH255512   6.258   1.524   5.172  0.2397  0.1764  0.8810
11366TIP3    H155513   6.184   1.480   5.130  1.6654 -0.8081 -0.7671
11366TIP3    H255514   6.310   1.452   5.209  1.7871  0.5614 -0.4460
11367TIP3   OH255515   3.778   5.214   5.049  0.5521  0.1971 -0.2918
11367TIP3    H155516   3.704   5.268   5.078  1.1156  0.1377  1.2995
11367TIP3    H255517   3.796   5.246   4.960  0.8173  2.5984  0.5571
11368TIP3   OH255518   5.149   5.978  16.642 -0.0232  0.6442 -0.3494
11368TIP3    H155519   5.104   5.923  16.578  1.1293 -0.4466 -0.2729
11368TIP3    H255520   5.205   6.035  16.588 -0.4235  1.0061 -0.3857
11369TIP3   OH255521   3.967   6.641  11.327 -0.2717 -0.2363  0.3697
11369TIP3    H155522   3.909   6.567  11.344 -0.5390 -0.1377 -0.0964
11369TIP3    H255523   4.054   6.612  11.356 -0.6481 -0.1873  1.5820
11370TIP3   OH255524   1.234   5.491   2.055  0.3550  0.3741  0.8627
11370TIP3    H155525   1.326   5.476   2.036 -0.4310 -2.9703 -0.9939
11370TIP3    H255526   1.210   5.422   2.116 -1.5652 -0.8190 -1.1144
11371TIP3   OH255527   0.664   1.584  11.304  0.1162 -0.0194 -0.5222
11371TIP3    H155528   0.612   1.625  11.235  0.3099  1.1324 -0.0020
11371TIP3    H255529   0.711   1.657  11.345 -0.4645 -0.5957  1.2227
11372TIP3   OH255530   1.304   5.603  14.069 -0.3718  0.0870  0.1377
11372TIP3    H155531   1.249   5.596  13.992 -0.5540 -0.6092  0.3163
11372TIP3    H255532   1.281   5.526  14.121  2.1166 -1.3064 -0.6712
11373TIP3   OH255533   2.972   5.448   1.109  0.5147 -0.0898  0.0849
11373TIP3    H155534   2.952   5.507   1.036  1.7871 -0.6504 -0.7595
11373TIP3    H255535   2.933   5.490   1.186 -0.0332  0.9925 -0.7606
11374TIP3   OH255536   2.575   4.800  14.068  0.0256 -0.1750 -0.0809
11374TIP3    H155537   2.532   4.871  14.020 -0.6001 -2.1206 -2.6346
11374TIP3    H255538   2.504   4.755  14.113  0.0919 -0.4412 -0.2375
11375TIP3   OH255539   3.221   4.432  16.768 -0.7302  0.3953  0.5739
11375TIP3    H155540   3.270   4.432  16.851 -0.9043 -1.9943  0.7384
11375TIP3    H255541   3.288   4.428  16.700 -0.6192  0.9747  0.6472
11376TIP3   OH255542   4.415   3.421  15.840  0.5446  0.2377  0.8010
11376TIP3    H155543   4.438   3.369  15.917  0.7221  0.5230  0.9430
11376TIP3    H255544   4.320   3.432  15.847  0.4033 -0.6512  0.3961
11377TIP3   OH255545   2.072   4.763  12.730 -0.0613  0.1160  0.7969
11377TIP3    H155546   2.023   4.785  12.810  0.2723  1.3009  0.6893
11377TIP3    H255547   2.099   4.847  12.694 -2.2618 -0.1638 -1.8917
11378TIP3   OH255548   3.326   0.029  11.630 -0.3183  0.1429 -0.5430
11378TIP3    H155549   3.396  -0.011  11.579 -1.5016  0.7935 -2.8216
11378TIP3    H255550   3.252  -0.031  11.620  0.0139 -0.9044  2.4094
11379TIP3   OH255551   1.998   2.559  14.308  0.4921  0.1358 -0.6704
11379TIP3    H155552   2.091   2.561  14.328  0.8370  1.1096 -2.2113
11379TIP3    H255553   1.990   2.605  14.224 -1.5579  1.5157  0.1861
11380TIP3   OH255554   0.144   3.095  10.755  0.4666 -0.2955 -0.1366
11380TIP3    H155555   0.178   3.019  10.707  0.1584 -0.9355  0.6428
11380TIP3    H255556   0.051   3.097  10.732 -0.0737 -1.6403  1.7307
11381TIP3   OH255557   6.794   0.636   4.820  0.5193  0.2691 -0.6976
11381TIP3    H155558   6.884   0.605   4.834  1.3488  1.4894 -2.9364
11381TIP3    H255559   6.748   0.560   4.785  1.1000  0.0409 -0.9825
11382TIP3   OH255560   5.469   3.359  16.897 -0.5206  0.5785  0.4788
11382TIP3    H155561   5.537   3.303  16.859 -1.4609  0.5633 -1.2940
11382TIP3    H255562   5.448   3.422  16.829  0.6372  3.3562  2.4775
11383TIP3   OH255563   0.713   0.248   6.477  0.5782  0.1812  0.4634
11383TIP3    H155564   0.644   0.314   6.487  0.7049  0.4682 -0.4799
11383TIP3    H255565   0.766   0.257   6.555  0.0376  0.5414  0.7968
11384TIP3   OH255566   0.590   4.928   0.597 -0.4155  0.0526  0.1847
11384TIP3    H155567   0.567   4.921   0.504 -0.0171  1.0549 -0.0138
11384TIP3    H255568   0.579   4.840   0.632  1.7293 -0.9264 -1.3620
11385TIP3   OH255569   2.685   0.361  14.756 -0.6347  0.4414  0.7112
11385TIP3    H155570   2.684   0.304  14.832 -0.2793 -0.8461 -0.2222
11385TIP3    H255571   2.670   0.449  14.792 -0.8934 -0.1831  2.2020
11386TIP3   OH255572   4.319   0.415  13.510 -0.0560 -0.1109  0.2826
11386TIP3    H155573   4.358   0.339  13.554 -2.3601 -0.6075  1.6566
11386TIP3    H255574   4.354   0.413  13.421  1.2542 -1.7609  0.7920
11387TIP3   OH255575   6.011   0.232  10.980  0.5453 -0.7448  0.0235
11387TIP3    H155576   5.919   0.219  10.958  0.4777  0.9418 -0.8023
11387TIP3    H255577   6.059   0.199  10.904  0.4898  0.6941 -0.6761
11388TIP3   OH255578   6.297   4.921   2.936  0.2471  0.2401  0.5943
11388TIP3    H155579   6.296   4.987   3.005  0.7991  0.3905  0.4623
11388TIP3    H255580   6.238   4.956   2.869  0.6062  0.6474  0.4856
11389TIP3   OH255581   4.196   5.283   5.413  0.5007 -0.0010  0.1995
11389TIP3    H155582   4.240   5.279   5.328 -1.4886 -0.3787 -0.8884
11389TIP3    H255583   4.217   5.199   5.455 -0.9903 -1.2140 -1.3193
11390TIP3   OH255584   5.840   3.106   0.425 -0.7047  0.3504 -0.1077
11390TIP3    H155585   5.835   3.172   0.494 -0.0893  0.7210 -0.4033
11390TIP3    H255586   5.795   3.030   0.461  1.8216 -0.3797  1.7454
11391TIP3   OH255587   0.215   4.258   4.117  0.6499  0.1633 -0.8671
11391TIP3    H155588   0.294   4.269   4.170  1.6611  1.1931 -2.5152
11391TIP3    H255589   0.185   4.347   4.100 -0.6518 -0.2086 -0.6039
11392TIP3   OH255590   5.826   0.913   4.857 -0.3247  0.1188 -0.0285
11392TIP3    H155591   5.808   0.995   4.903  0.7722 -0.3409  1.2854
11392TIP3    H255592   5.759   0.852   4.889  1.2769 -0.6016  2.1460
11393TIP3   OH255593   0.704   6.325   2.626  0.0057  0.8916  0.2547
11393TIP3    H155594   0.724   6.402   2.680 -0.9491  0.6306  1.0004
11393TIP3    H255595   0.625   6.288   2.665  0.4117 -0.4416 -0.1309
11394TIP3   OH255596   6.718   1.358  15.939  0.3622  0.0461 -0.8672
11394TIP3    H155597   6.789   1.413  15.906 -1.2666  1.9757 -1.4147
11394TIP3    H255598   6.717   1.374  16.033  0.1453  0.7238 -0.9733
11395TIP3   OH255599   3.262   1.590   5.174 -0.3723  0.2287 -0.2702
11395TIP3    H155600   3.309   1.552   5.249 -1.4674 -1.6306 -0.4631
11395TIP3    H255601   3.273   1.684   5.184  1.4811 -0.0607  0.9213
11396TIP3   OH255602   2.875   5.987   6.072 -0.4091 -0.4608 -0.0003
11396TIP3    H155603   2.869   5.968   6.166 -1.2266 -1.9294 -0.3228
11396TIP3    H255604   2.923   6.070   6.067 -1.0385  0.0460  1.7488
11397TIP3   OH255605   0.631   4.783   0.031  0.6281  0.1990 -0.4773
11397TIP3    H155606   0.704   4.844   0.031 -1.6171  3.1157  0.6414
11397TIP3    H255607   0.582   4.804  -0.049 -1.7424  2.0671  1.3480
11398TIP3   OH255608   1.332   0.155  11.391 -0.1861  0.8615 -0.4980
11398TIP3    H155609   1.352   0.122  11.303 -0.3958  1.0723 -0.6281
11398TIP3    H255610   1.373   0.093  11.450  2.5391  2.2619 -0.7419
11399TIP3   OH255611   1.889   5.759  16.936 -0.1219  0.1490 -0.1358
11399TIP3    H155612   1.807   5.711  16.946 -0.8217  1.0836 -1.2040
11399TIP3    H255613   1.954   5.691  16.920 -0.7701 -0.5655  0.1684
11400TIP3   OH255614   6.308   3.601   0.154  0.2592  0.0139 -0.3627
11400TIP3    H155615   6.241   3.595   0.087 -0.0694 -1.6753  0.0629
11400TIP3    H255616   6.387   3.567   0.112  0.0536 -1.0445  0.0695
11401TIP3   OH255617   0.442   0.935   2.722 -0.7915  0.2709  0.3968
11401TIP3    H155618   0.474   0.967   2.638  0.8054 -0.8522  0.5363
11401TIP3    H255619   0.380   1.002   2.751 -0.1390  1.4889 -0.9022
11402TIP3   OH255620   3.297   4.135   2.658 -0.0001  0.1421 -0.1328
11402TIP3    H155621   3.216   4.179   2.683  0.2761  0.7396 -0.2519
11402TIP3    H255622   3.271   4.074   2.589 -0.2775  0.6873 -0.5251
11403TIP3   OH255623   3.395   6.369  13.943  0.1152  0.0903  0.3255
11403TIP3    H155624   3.339   6.438  13.980  0.6835  0.6627  0.1419
11403TIP3    H255625   3.347   6.288  13.957 -1.2564  0.6776 -0.7935
11404TIP3   OH255626   0.710   1.996   2.843  0.2011  0.2481  0.1058
11404TIP3    H155627   0.755   2.017   2.761  0.3862  0.6999  0.3164
11404TIP3    H255628   0.628   2.044   2.838 -0.2325 -0.5167 -0.2449
11405TIP3   OH255629   5.883   6.349   1.507 -0.1122  0.2527 -0.0391
11405TIP3    H155630   5.834   6.271   1.481 -0.7348  0.9682 -1.1144
11405TIP3    H255631   5.900   6.337   1.600 -0.0699 -1.2217 -0.2144
11406TIP3   OH255632   3.775   4.348   3.761 -0.1634  0.1250 -0.1779
11406TIP3    H155633   3.820   4.273   3.800  1.3052  0.5334 -1.0154
11406TIP3    H255634   3.686   4.317   3.745  0.3361 -1.3417 -0.2256
11407TIP3   OH255635   4.280   0.853   6.341  0.5431  0.2491 -0.4983
11407TIP3    H155636   4.369   0.881   6.323  0.6450  0.9527  0.9625
11407TIP3    H255637   4.282   0.758   6.331  1.8821  0.0640  1.1277
11408TIP3   OH255638   3.726   4.592   5.495 -0.1860 -0.3973 -0.1045
11408TIP3    H155639   3.803   4.592   5.551 -1.4266 -1.4954  1.7431
11408TIP3    H255640   3.664   4.649   5.540 -0.7010 -0.0667 -1.1947
11409TIP3   OH255641   3.259   4.757   2.552  0.0690  0.1196  0.3863
11409TIP3    H155642   3.238   4.816   2.480  1.7755 -1.4145 -1.5158
11409TIP3    H255643   3.351   4.774   2.571  0.1050 -0.7091  1.0102
11410TIP3   OH255644   4.946   4.797   0.509  0.8236  0.1525  0.1892
11410TIP3    H155645   5.040   4.782   0.494  0.5892 -0.8844 -0.3279
11410TIP3    H255646   4.918   4.722   0.561  0.2911  0.5072  0.4166
11411TIP3   OH255647   5.838   5.601  14.539 -0.3737  0.5076  0.4765
11411TIP3    H155648   5.856   5.651  14.619  0.6945 -0.1850  0.6879
11411TIP3    H255649   5.904   5.632  14.477  1.5008 -1.8473  1.1574
11412TIP3   OH255650   5.378   2.195   0.246 -0.0097  0.1745 -0.4543
11412TIP3    H155651   5.400   2.199   0.339 -2.6446 -1.2361  0.3299
11412TIP3    H255652   5.295   2.242   0.239 -0.4715 -0.7864 -1.8690
11413TIP3   OH255653   5.051   1.689   3.967 -0.4857  0.4744 -0.1908
11413TIP3    H155654   5.028   1.598   3.984 -1.6580  0.5403 -1.2939
11413TIP3    H255655   5.092   1.719   4.048  0.8939 -1.3183 -0.1803
11414TIP3   OH255656   5.279   2.362  12.205 -0.0120 -0.0470  0.8913
11414TIP3    H155657   5.307   2.418  12.278 -0.1996 -1.0690  1.7577
11414TIP3    H255658   5.184   2.367  12.207 -0.0166 -0.0645  0.7034
11415TIP3   OH255659   4.315   5.639  14.038 -0.2780 -0.5436 -0.2722
11415TIP3    H155660   4.236   5.662  14.089  1.0861  1.0835  1.2640
11415TIP3    H255661   4.348   5.723  14.007  0.9354 -1.1781 -0.7548
11416TIP3   OH255662   1.938   1.784   6.460 -0.2150  0.5056 -0.2095
11416TIP3    H155663   1.985   1.857   6.421  0.9194 -1.1075 -2.0248
11416TIP3    H255664   2.005   1.718   6.478 -1.1834 -0.1023  1.4930
11417TIP3   OH255665   0.137   4.833   4.828 -0.4176  0.1759  0.0907
11417TIP3    H155666   0.125   4.741   4.802 -0.2675 -0.0215  0.7016
11417TIP3    H255667   0.048   4.868   4.833 -0.4222  0.4164 -1.3566
11418TIP3   OH255668   4.451   0.282  11.091  0.5680  0.2554  0.3859
11418TIP3    H155669   4.376   0.311  11.143  0.5043 -1.6436  1.4654
11418TIP3    H255670   4.477   0.359  11.040 -3.1828  0.6082 -1.3758
11419TIP3   OH255671   2.790   3.149  11.541 -0.1993  0.0540  0.2245
11419TIP3    H155672   2.768   3.143  11.448 -0.9545  0.4019  0.3762
11419TIP3    H255673   2.708   3.170  11.584  0.0902 -0.3734  1.0109
11420TIP3   OH255674   0.625   2.923  10.467  0.3088  0.5624  0.1531
11420TIP3    H155675   0.662   2.968  10.543  2.3194 -0.9823  0.1822
11420TIP3    H255676   0.582   2.846  10.505  0.5831  0.2322 -0.2034
11421TIP3   OH255677   2.454   1.731   4.105 -0.0188  0.0380 -0.7873
11421TIP3    H155678   2.494   1.741   4.019  1.7424  2.1497  0.1762
11421TIP3    H255679   2.412   1.816   4.122 -0.8756 -0.5552  0.1897
11422TIP3   OH255680   0.585   1.535  11.875  0.3135  0.1127 -0.0689
11422TIP3    H155681   0.665   1.579  11.850 -1.2676  1.9606 -2.3100
11422TIP3    H255682   0.583   1.456  11.821  0.1716  0.6025 -0.7970
11423TIP3   OH255683   2.424   3.708  15.661 -0.4520 -0.2141 -0.1377
11423TIP3    H155684   2.476   3.739  15.736  0.5219 -2.0898  0.0216
11423TIP3    H255685   2.449   3.766  15.589 -0.5911  0.9389  0.7015
11424TIP3   OH255686   2.073   3.187   4.224  0.2490  0.1672  0.6907
11424TIP3    H155687   2.112   3.182   4.137  0.8265  0.9890  0.8885
11424TIP3    H255688   2.111   3.114   4.273  1.2143  0.6899  0.7424
11425TIP3   OH255689   3.487   5.637  13.933  0.0313  0.2011  0.4096
11425TIP3    H155690   3.516   5.685  13.856  2.9545 -1.5033  0.2970
11425TIP3    H255691   3.402   5.602  13.910 -0.1175  1.5251 -1.1873
11426TIP3   OH255692   2.216   6.378  11.635 -0.2080 -0.0473  0.4009
11426TIP3    H155693   2.262   6.460  11.655  1.5894 -0.7450 -0.6592
11426TIP3    H255694   2.131   6.406  11.602  0.2112  1.3846  0.4495
11427TIP3   OH255695   3.185   1.564  14.492  0.4881 -0.3802  1.2022
11427TIP3    H155696   3.175   1.572  14.397 -0.6513  0.3186  1.3739
11427TIP3    H255697   3.178   1.470  14.508 -2.0009 -0.3172  0.8476
11428TIP3   OH255698   6.430   6.761   1.748 -0.0054  0.2690  0.4016
11428TIP3    H155699   6.435   6.796   1.837 -1.6044  1.7405 -0.0311
11428TIP3    H255700   6.513   6.716   1.735  0.8376  1.2265  2.1402
11429TIP3   OH255701   1.245   6.783  14.427  0.2661  0.0848 -0.0092
11429TIP3    H155702   1.207   6.704  14.389  1.1028 -0.3833  0.1071
11429TIP3    H255703   1.298   6.821  14.356  0.6344  0.0175  0.2260
11430TIP3   OH255704   6.217   3.115   4.178  0.2864 -0.5488 -0.5118
11430TIP3    H155705   6.301   3.079   4.207 -0.1885 -0.1005  1.5497
11430TIP3    H255706   6.208   3.197   4.226 -1.4059 -0.6645 -0.5923
11431TIP3   OH255707   3.646   3.389   6.252  0.4081 -0.2530 -0.4998
11431TIP3    H155708   3.625   3.333   6.327  0.1880 -0.1629 -0.4950
11431TIP3    H255709   3.577   3.372   6.189 -0.8022  1.4819  0.2812
11432TIP3   OH255710   1.900   0.342  14.613  0.2730  0.4400  0.4520
11432TIP3    H155711   1.889   0.342  14.708  1.1148  1.3333  0.5717
11432TIP3    H255712   1.895   0.434  14.588  1.9559  0.4259 -0.1037
11433TIP3   OH255713   4.082   1.461   2.759  0.0862  0.1296 -0.1189
11433TIP3    H155714   4.145   1.422   2.699 -0.5549 -1.5611  0.2396
11433TIP3    H255715   4.004   1.407   2.751  0.1043 -0.4359  2.4908
11434TIP3   OH255716   0.050   6.298   5.688  0.6234 -0.2476 -0.2109
11434TIP3    H155717  -0.032   6.325   5.648  0.0897 -0.2132  0.8790
11434TIP3    H255718   0.025   6.252   5.769  1.6842  0.4199  0.5341
11435TIP3   OH255719   5.088   1.533  14.306  0.0738 -0.1663 -0.0951
11435TIP3    H155720   5.013   1.582  14.273  0.8447  1.7992  0.9188
11435TIP3    H255721   5.087   1.549  14.401  1.6494 -0.2714 -0.0352
11436TIP3   OH255722   3.742   2.100   4.554 -0.0964  0.1307  0.4634
11436TIP3    H155723   3.729   2.190   4.581  1.8399  1.2196 -1.8419
11436TIP3    H255724   3.655   2.069   4.528 -0.5283  1.9885 -0.4472
11437TIP3   OH255725   1.666   3.846  13.721  0.4657  0.1589 -0.4418
11437TIP3    H155726   1.733   3.793  13.765  0.3818 -0.0515 -0.5629
11437TIP3    H255727   1.696   3.936  13.732  0.5311  0.0986 -0.0971
11438TIP3   OH255728   1.324   0.107  12.531  0.1062 -0.1645 -0.1555
11438TIP3    H155729   1.332   0.012  12.522  2.2329  0.1273 -2.5578
11438TIP3    H255730   1.323   0.122  12.626  0.8367 -2.5125  0.2919
11439TIP3   OH255731   5.727   2.060  16.636 -0.4557  0.1156  0.4463
11439TIP3    H155732   5.725   2.152  16.611 -1.6076  0.5232  1.8965
11439TIP3    H255733   5.740   2.061  16.731 -2.0057 -1.1536  0.7083
11440TIP3   OH255734   2.626   6.429  11.648 -0.3984 -0.0907 -0.1924
11440TIP3    H155735   2.646   6.357  11.709 -1.3612  0.2702  0.5671
11440TIP3    H255736   2.653   6.508  11.694 -0.8861  0.1637 -0.3358
11441TIP3   OH255737   0.377   1.997   3.884  0.1934  0.6481 -0.7761
11441TIP3    H155738   0.284   2.003   3.904 -0.3706  0.3755 -2.9857
11441TIP3    H255739   0.415   1.950   3.957 -1.3416  1.0487  0.3279
11442TIP3   OH255740   1.170   2.849  15.695  0.2609 -0.6688  0.2230
11442TIP3    H155741   1.127   2.794  15.760 -2.0384  1.7621  0.9508
11442TIP3    H255742   1.260   2.857  15.726 -0.2090 -1.3760  1.8828
11443TIP3   OH255743   3.155   2.860  12.690 -0.2252  0.2776  0.2457
11443TIP3    H155744   3.141   2.941  12.641  2.1551 -0.3079 -1.5878
11443TIP3    H255745   3.087   2.801  12.659  0.8169  0.1408 -1.9665
11444TIP3   OH255746   6.689   4.260   3.859  0.8069 -0.6233 -0.1093
11444TIP3    H155747   6.777   4.298   3.861  1.0865 -1.1895 -0.8822
11444TIP3    H255748   6.690   4.202   3.783 -0.8572  0.8525 -1.3446
11445TIP3   OH255749   0.550   1.540   4.900 -0.2793  0.3391  0.2187
11445TIP3    H155750   0.618   1.514   4.962  0.5296 -1.0700 -1.1635
11445TIP3    H255751   0.468   1.524   4.946  0.2790 -1.5159  0.6823
11446TIP3   OH255752   3.183   3.124   2.493  0.1586  0.3027 -0.0631
11446TIP3    H155753   3.114   3.187   2.517 -0.8593 -0.5198 -0.7065
11446TIP3    H255754   3.235   3.170   2.427 -1.4566  0.0044 -1.6213
11447TIP3   OH255755   3.266   4.075   2.055 -0.2618  0.0445  0.0916
11447TIP3    H155756   3.254   3.994   2.103 -2.3475  0.0618 -0.3355
11447TIP3    H255757   3.287   4.047   1.966  2.1803  0.0234  0.5953
11448TIP3   OH255758   2.613   2.031   4.798 -0.2595 -0.9188 -0.4090
11448TIP3    H155759   2.539   2.088   4.820  0.4781  0.4261 -1.3095
11448TIP3    H255760   2.609   1.961   4.863 -1.2704  0.0785  0.6536
11449TIP3   OH255761   2.733   2.346   1.079  0.6263  0.2612  0.3392
11449TIP3    H155762   2.766   2.322   0.992  0.5884  0.3426  0.3023
11449TIP3    H255763   2.777   2.429   1.099  1.7268 -0.4604  1.0056
11450TIP3   OH255764   3.639   5.871  11.257 -0.5014  0.8439  0.6373
11450TIP3    H155765   3.558   5.907  11.223 -0.4092  2.0557  1.6526
11450TIP3    H255766   3.629   5.873  11.352  1.1043  1.9969  0.8289
11451TIP3   OH255767   5.270   4.609   1.738  0.3391  0.0114 -0.0839
11451TIP3    H155768   5.354   4.616   1.784  0.2302 -0.1210  0.1353
11451TIP3    H255769   5.246   4.700   1.719  1.7586 -0.0210 -2.4048
11452TIP3   OH255770   0.126   2.219  17.004  0.2718 -0.1459  0.0432
11452TIP3    H155771   0.203   2.226  17.061  0.0335  0.7984  0.2837
11452TIP3    H255772   0.134   2.134  16.961 -0.1911 -1.5047  2.4558
11453TIP3   OH255773   5.416   4.604  11.793 -0.2057 -0.3815  0.0734
11453TIP3    H155774   5.334   4.652  11.799  0.6437  1.0419  1.0188
11453TIP3    H255775   5.450   4.624  11.706  1.5662  3.3585  1.3995
11454TIP3   OH255776   0.609   0.994  15.856  0.1089 -0.0495 -0.0497
11454TIP3    H155777   0.683   1.050  15.880  2.0445 -2.5201  0.0964
11454TIP3    H255778   0.639   0.945  15.780 -1.5354 -0.8851 -0.2085
11455TIP3   OH255779   1.218   3.820  11.779  0.1581 -0.7744 -0.6011
11455TIP3    H155780   1.150   3.882  11.804  1.6382  0.7022 -0.1270
11455TIP3    H255781   1.172   3.755  11.725 -1.7697 -0.3100  0.4080
11456TIP3   OH255782   5.773   1.858   3.415 -0.0480 -0.1093 -0.3035
11456TIP3    H155783   5.849   1.913   3.434 -1.0391  1.5513 -0.8655
11456TIP3    H255784   5.749   1.882   3.325  0.4710 -2.7512 -1.2623
11457TIP3   OH255785   5.684   2.167  12.096 -0.1215 -0.7963  0.7148
11457TIP3    H155786   5.748   2.104  12.063  0.1003  0.0751 -0.5974
11457TIP3    H255787   5.602   2.117  12.101 -0.4567 -0.7798 -2.3156
11458TIP3   OH255788   6.022   2.221  11.150 -0.5110  0.3712  0.5246
11458TIP3    H155789   6.102   2.170  11.138 -0.9131 -0.1300 -0.0899
11458TIP3    H255790   5.994   2.244  11.062  0.2502  2.6378  0.8332
11459TIP3   OH255791   2.618   0.604  14.887  0.1998 -0.0637 -0.1702
11459TIP3    H155792   2.673   0.683  14.887 -0.2957  0.3526 -2.3746
11459TIP3    H255793   2.541   0.629  14.939  1.0914  0.0709  1.1342
11460TIP3   OH255794   6.580   6.614   2.787  0.2297 -0.2468 -0.1326
11460TIP3    H155795   6.621   6.529   2.774  0.0916 -0.5598  1.2507
11460TIP3    H255796   6.604   6.638   2.877 -1.0849  0.4067  0.0623
11461TIP3   OH255797   4.904   3.159   2.891  0.1453  0.2081 -0.0595
11461TIP3    H155798   4.885   3.230   2.830  0.3250 -0.3050 -0.7289
11461TIP3    H255799   4.873   3.080   2.846  1.4063 -0.3233 -0.0377
11462TIP3   OH255800   0.818   4.095  15.962 -0.0852 -0.3713 -0.4403
11462TIP3    H155801   0.741   4.105  16.018  0.4710 -1.4219  0.5308
11462TIP3    H255802   0.889   4.074  16.021  0.8122 -0.1775 -1.4139
11463TIP3   OH255803   6.601   1.755  12.781 -0.4677  0.3130  0.5310
11463TIP3    H155804   6.649   1.679  12.749  1.0033  1.5926 -0.4736
11463TIP3    H255805   6.523   1.719  12.823  1.0024 -1.8119  1.5789
11464TIP3   OH255806   5.658   5.729   4.530 -0.0526  0.2233  0.2451
11464TIP3    H155807   5.738   5.724   4.582  0.9357  2.4788 -0.9045
11464TIP3    H255808   5.625   5.639   4.527  1.0617 -0.3593  2.8084
11465TIP3   OH255809   0.422   4.445  15.454  0.1611 -0.1453  0.0635
11465TIP3    H155810   0.400   4.528  15.496  0.8697  1.0071 -1.7834
11465TIP3    H255811   0.505   4.460  15.410  0.2605 -1.8089 -0.4009
11466TIP3   OH255812   2.312   6.308  14.495 -0.3399 -0.1410 -0.1566
11466TIP3    H155813   2.372   6.331  14.567  0.6236 -0.4493 -0.8336
11466TIP3    H255814   2.358   6.238  14.448 -1.4159 -0.6363 -0.4839
11467TIP3   OH255815   4.599   4.725  11.722 -0.5486 -0.0251  0.5821
11467TIP3    H155816   4.537   4.675  11.776 -0.7527  0.9986  1.3169
11467TIP3    H255817   4.575   4.703  11.632  0.4187 -2.5265  0.8486
11468TIP3   OH255818   5.597   4.984  13.153  0.0574 -0.9750  0.3470
11468TIP3    H155819   5.688   4.958  13.136 -0.1247 -1.0310 -0.5870
11468TIP3    H255820   5.544   4.915  13.113 -0.4048 -0.1897 -0.4576
11469TIP3   OH255821   4.382   3.030   1.270 -0.2836 -0.0831  0.3164
11469TIP3    H155822   4.462   3.074   1.300 -1.1118  1.6505  0.0736
11469TIP3    H255823   4.355   3.079   1.193  0.8673 -3.4145 -2.4795
11470TIP3   OH255824   5.225   2.924   2.654 -0.2291  0.7717  0.4709
11470TIP3    H155825   5.185   2.913   2.740  0.5713  0.6169  0.8299
11470TIP3    H255826   5.186   3.005   2.621  0.3604  1.4997  1.5005
11471TIP3   OH255827   2.809   4.731   5.096  0.2288 -0.3268 -0.7538
11471TIP3    H155828   2.817   4.817   5.139  0.4494 -0.8144  0.2027
11471TIP3    H255829   2.896   4.715   5.059  0.9559 -1.2069  1.1796
11472TIP3   OH255830   0.321   5.058  11.809 -0.2738 -0.2894  0.4178
11472TIP3    H155831   0.351   5.141  11.846  0.6026 -0.6750  0.6100
11472TIP3    H255832   0.324   4.996  11.883 -2.8439 -0.0676  0.7745
11473TIP3   OH255833   6.006   1.179   0.275  0.2654  0.6261  0.1456
11473TIP3    H155834   6.018   1.160   0.182  0.7201  1.5086  0.0102
11473TIP3    H255835   5.919   1.218   0.281 -0.9025 -1.8643  0.5038
11474TIP3   OH255836   3.628   3.545  15.850 -0.0307 -0.3016 -0.2245
11474TIP3    H155837   3.635   3.640  15.838 -0.7107 -0.2437 -0.2427
11474TIP3    H255838   3.718   3.514  15.856  0.1903  0.4454  0.5336
11475TIP3   OH255839   5.392   5.995  14.122  0.3192 -0.1055 -0.2855
11475TIP3    H155840   5.329   6.061  14.151  0.1788 -0.1062 -0.5847
11475TIP3    H255841   5.476   6.027  14.155  0.4864  1.0190 -1.6750
11476TIP3   OH255842   6.342   6.136  13.871  0.8049  0.4564  0.0934
11476TIP3    H155843   6.277   6.202  13.845  0.8391 -0.4015 -2.4912
11476TIP3    H255844   6.308   6.100  13.953 -1.9121  0.2071 -1.0374
11477TIP3   OH255845   5.607   5.254  12.046  0.0416  0.5326  0.3705
11477TIP3    H155846   5.608   5.312  11.970  1.7729  0.9932  0.7162
11477TIP3    H255847   5.698   5.248  12.074 -0.2964 -1.1378  1.2839
11478TIP3   OH255848   6.338   0.115  14.438  0.7493 -0.1401 -0.3887
11478TIP3    H155849   6.257   0.122  14.386 -0.1627 -0.8922  0.8800
11478TIP3    H255850   6.352   0.203  14.472 -0.1495 -0.2289  0.2455
11479TIP3   OH255851   6.037   2.624   4.704 -0.0218 -0.3616  0.0952
11479TIP3    H155852   6.018   2.551   4.644  1.0287 -0.0824 -0.6154
11479TIP3    H255853   6.082   2.688   4.649  1.7852 -0.4690  1.3666
11480TIP3   OH255854   3.984   6.275  13.790  1.0500  0.6519 -0.0237
11480TIP3    H155855   3.979   6.290  13.884  1.8997  0.8111  0.0078
11480TIP3    H255856   3.894   6.258  13.763  0.7109  1.2439  0.7072
11481TIP3   OH255857   6.675   0.160   5.124 -0.0291 -1.0566 -0.1715
11481TIP3    H155858   6.585   0.192   5.119  0.4956  0.3979 -1.0385
11481TIP3    H255859   6.669   0.080   5.176 -1.9321 -1.4624 -0.9160
11482TIP3   OH255860   1.497   3.238  12.087  0.0826 -0.8002 -0.4811
11482TIP3    H155861   1.517   3.274  12.173 -0.1742  0.3848 -0.9007
11482TIP3    H255862   1.402   3.242  12.080  0.0220 -1.8203 -0.4424
11483TIP3   OH255863   5.397   1.489  12.449 -0.1682 -0.0655  0.1890
11483TIP3    H155864   5.401   1.410  12.395 -1.6090 -1.4077  1.9083
11483TIP3    H255865   5.475   1.484  12.504 -0.4757 -0.5590  0.5952
11484TIP3   OH255866   5.534   4.262   4.501  0.1603  0.1894 -0.0864
11484TIP3    H155867   5.615   4.300   4.465  1.3838 -0.7084  1.5839
11484TIP3    H255868   5.541   4.169   4.482 -0.8852  0.2094 -0.6113
11485TIP3   OH255869   3.757   6.287   2.881  0.0766 -0.4355  0.2991
11485TIP3    H155870   3.746   6.229   2.806 -1.3655 -1.5448  1.3157
11485TIP3    H255871   3.755   6.228   2.957 -0.6748  0.8633  1.3209
11486TIP3   OH255872   4.482   2.228  10.717  0.2339 -0.1786 -0.1198
11486TIP3    H155873   4.470   2.134  10.734  0.5403  0.0188  1.3304
11486TIP3    H255874   4.577   2.240  10.718  0.1957  0.1426 -0.2816
11487TIP3   OH255875   4.618   0.129   5.491 -0.2382 -0.3425  0.0334
11487TIP3    H155876   4.673   0.053   5.472  1.6021  0.8469  0.3916
11487TIP3    H255877   4.634   0.148   5.584 -0.2282  0.7944 -0.1837
11488TIP3   OH255878   1.463   4.552  11.576 -0.7977  0.5839  0.4078
11488TIP3    H155879   1.420   4.560  11.661 -1.0359  1.2433  0.2339
11488TIP3    H255880   1.424   4.474  11.536 -0.7769  0.3483  0.8424
11489TIP3   OH255881   4.903   3.475   4.900 -0.3125  0.4333 -0.5406
11489TIP3    H155882   4.955   3.504   4.824  1.4857  0.9479  0.8103
11489TIP3    H255883   4.912   3.380   4.900  0.0022  0.4620 -0.7557
11490TIP3   OH255884   1.226   4.366   6.069 -0.5532 -0.6363  0.1922
11490TIP3    H155885   1.308   4.409   6.092 -0.5727  0.9408 -2.2976
11490TIP3    H255886   1.159   4.433   6.081 -1.1941 -1.2814  0.2712
11491TIP3   OH255887   4.274   2.116  14.376  0.0043 -0.1477  0.5007
11491TIP3    H155888   4.325   2.196  14.385  2.1032 -1.5059  1.6982
11491TIP3    H255889   4.264   2.104  14.282  3.0226 -0.4011  0.1148
11492TIP3   OH255890   2.340   5.980  15.318 -0.2178 -0.2384  0.3846
11492TIP3    H155891   2.264   5.928  15.292  1.0080 -0.8055 -2.4958
11492TIP3    H255892   2.405   5.916  15.347  0.9069 -0.3794 -2.1403
11493TIP3   OH255893   0.691   5.967   5.047  0.3072  0.1318  0.5309
11493TIP3    H155894   0.630   5.958   4.974  0.8369 -0.2758  0.1273
11493TIP3    H255895   0.652   5.916   5.118  1.5781 -2.7003 -0.6457
11494TIP3   OH255896   2.024   2.057   1.260  0.2496 -0.1576 -0.3965
11494TIP3    H155897   1.936   2.070   1.293  1.2559 -0.6158  2.8429
11494TIP3    H255898   2.018   2.075   1.167 -3.3968 -0.9857 -0.4508
11495TIP3   OH255899   4.764   1.524  15.509  0.2369 -0.1653 -0.6021
11495TIP3    H155900   4.858   1.518  15.525  0.4766  1.8258 -0.9869
11495TIP3    H255901   4.746   1.618  15.508 -1.6359 -0.4876 -1.2467
11496TIP3   OH255902   5.872   4.024  11.590  0.4517 -0.1044 -0.2397
11496TIP3    H155903   5.805   4.035  11.523  0.8342  0.5421 -0.5374
11496TIP3    H255904   5.936   4.093  11.570  0.6810 -0.0541  0.6546
11497TIP3   OH255905   2.277   2.574  13.549 -0.5275 -0.5547 -0.4296
11497TIP3    H155906   2.364   2.614  13.551 -0.3574 -0.7737 -2.0272
11497TIP3    H255907   2.269   2.530  13.633  0.5300  0.2372  0.1117
11498TIP3   OH255908   5.724   0.903   3.810  0.0534  0.3673  0.0280
11498TIP3    H155909   5.646   0.897   3.755  0.3811 -0.5027 -0.3679
11498TIP3    H255910   5.775   0.974   3.771 -0.3658  0.6890  0.0613
11499TIP3   OH255911   0.523   2.335  13.448  0.6909 -0.1740 -0.5255
11499TIP3    H155912   0.439   2.381  13.448  1.4024  1.2010 -1.5964
11499TIP3    H255913   0.577   2.385  13.510  1.3632  0.2466 -1.4365
11500TIP3   OH255914   6.365   5.868   4.037 -0.1678  0.4391  0.2883
11500TIP3    H155915   6.429   5.813   3.992 -0.3191  2.2481 -2.3265
11500TIP3    H255916   6.343   5.818   4.116  1.9602 -1.7697 -0.3705
11501TIP3   OH255917   2.480   2.594  16.822  0.2538 -0.0450 -0.5969
11501TIP3    H155918   2.535   2.618  16.748 -0.0340 -0.3786 -0.9204
11501TIP3    H255919   2.390   2.611  16.793  0.1683  0.3006 -0.1473
11502TIP3   OH255920   3.102   5.149   3.711  0.3217 -0.1673 -0.8351
11502TIP3    H155921   3.011   5.138   3.737  0.8370 -1.6262  0.5385
11502TIP3    H255922   3.113   5.244   3.701 -0.2677  0.5410  3.3630
11503TIP3   OH255923   1.015   4.142  14.349 -0.2908  0.2292 -0.6704
11503TIP3    H155924   1.043   4.055  14.319  0.7706  1.2386 -2.8241
11503TIP3    H255925   1.089   4.199  14.330 -0.6811  1.5353  1.3683
11504TIP3   OH255926   4.376   6.534   4.436 -0.0316  0.1160  0.2806
11504TIP3    H155927   4.382   6.599   4.505  1.7955  0.6171 -0.2971
11504TIP3    H255928   4.290   6.549   4.396 -0.4992  0.7693  1.4915
11505TIP3   OH255929   1.165   1.376  12.020 -0.4491 -0.2258 -0.1261
11505TIP3    H155930   1.116   1.353  11.941 -0.4176 -1.6126  0.2439
11505TIP3    H255931   1.097   1.403  12.083 -0.6229 -0.7419 -0.0875
11506TIP3   OH255932   6.205   3.662  14.518  0.3501  0.0627 -0.6989
11506TIP3    H155933   6.202   3.636  14.426  1.7305 -2.6599 -0.0811
11506TIP3    H255934   6.122   3.633  14.554  0.7126 -0.9148 -0.6333
11507TIP3   OH255935   3.965   6.227  12.642 -0.1620 -0.7113  0.3489
11507TIP3    H155936   3.891   6.287  12.644  0.5631  0.1898  2.4726
11507TIP3    H255937   4.025   6.265  12.578 -0.5520 -0.2515  0.2548
11508TIP3   OH255938   1.800   4.807  11.448 -0.0883 -0.0490 -0.2006
11508TIP3    H155939   1.758   4.881  11.492  1.3094  0.5655  0.1599
11508TIP3    H255940   1.728   4.759  11.408 -1.2190  0.4313  1.1760
11509TIP3   OH255941   4.981   4.968  11.955  0.4046  0.7319 -0.7284
11509TIP3    H155942   4.899   4.919  11.968  0.4587  0.6877 -0.5471
11509TIP3    H255943   4.974   5.041  12.017  0.3101  0.9711 -1.0232
11510TIP3   OH255944   6.071   2.175  16.873  0.5870 -0.3812  0.2842
11510TIP3    H155945   6.152   2.222  16.892  0.6868 -0.7607  0.8098
11510TIP3    H255946   6.007   2.212  16.933  0.3906 -0.1492 -0.0641
11511TIP3   OH255947   5.010   5.908  12.464 -0.1306  0.5572  0.6078
11511TIP3    H155948   5.012   5.970  12.391  0.3476 -0.3775 -0.1911
11511TIP3    H255949   4.993   5.823  12.423  0.9180 -0.1039  1.4936
11512TIP3   OH255950   6.565   6.519  12.714  0.2310  0.2481  0.2847
11512TIP3    H155951   6.628   6.502  12.784 -0.9784 -0.3812  1.2648
11512TIP3    H255952   6.602   6.477  12.637 -0.2049 -2.4821  1.4487
11513TIP3   OH255953   1.684   1.123  13.580  0.1116  0.4332  0.5719
11513TIP3    H155954   1.707   1.204  13.625  1.8441  1.9219 -2.6016
11513TIP3    H255955   1.762   1.068  13.589 -0.3632 -0.1562  1.1727
11514TIP3   OH255956   1.094   0.881   1.909  0.4265 -0.6464  0.2821
11514TIP3    H155957   1.030   0.872   1.839 -1.3172  1.2811  1.4846
11514TIP3    H255958   1.168   0.828   1.882 -0.6360 -0.8797 -2.4409
11515TIP3   OH255959   6.199   1.037   4.705 -0.3425  0.1450  0.6386
11515TIP3    H155960   6.284   1.061   4.742  0.0969  1.8462 -1.3089
11515TIP3    H255961   6.147   1.117   4.711 -0.7734  0.0050 -0.9348
11516TIP3   OH255962   4.671   2.919  13.025 -0.2161 -0.1630  0.0419
11516TIP3    H155963   4.652   2.830  13.054 -0.9642 -0.2747 -0.7436
11516TIP3    H255964   4.651   2.918  12.931  1.2937  0.4101 -0.3264
11517TIP3   OH255965   6.464   0.387  11.304  0.2939  0.4191 -0.1433
11517TIP3    H155966   6.412   0.343  11.237 -0.7855  1.3383  0.0445
11517TIP3    H255967   6.407   0.389  11.381  0.6491  1.3367  0.1163
11518TIP3   OH255968   3.062   4.844   3.746 -0.2946  0.1535  0.2648
11518TIP3    H155969   3.066   4.936   3.719 -3.4936  1.2553  2.9174
11518TIP3    H255970   2.997   4.805   3.687  1.5098 -0.6933 -1.2704
11519TIP3   OH255971   5.748   0.278  16.235  0.2298  0.3961  0.0594
11519TIP3    H155972   5.742   0.350  16.173  1.2146 -1.0475 -1.8129
11519TIP3    H255973   5.842   0.265  16.248  0.0519  0.2637  1.4128
11520TIP3   OH255974   1.967   4.723  15.614 -0.3152  0.1807  0.0312
11520TIP3    H155975   1.968   4.637  15.572 -1.0239  0.7558 -1.2142
11520TIP3    H255976   2.058   4.753  15.611 -0.3432  0.1720 -1.0360
11521TIP3   OH255977   3.396   6.238  12.990  0.1503 -0.0499  0.3558
11521TIP3    H155978   3.315   6.194  12.963 -1.2055  1.3920  1.8615
11521TIP3    H255979   3.421   6.194  13.071  0.4151  0.0551  0.3308
11522TIP3   OH255980   5.434   5.977   4.186  0.0850 -0.1490 -0.1473
11522TIP3    H155981   5.380   5.899   4.170 -2.6299  1.2900  1.1787
11522TIP3    H255982   5.394   6.018   4.263  1.7177  2.2782 -0.4769
11523TIP3   OH255983   3.898   5.467  11.369 -0.3914  0.1770 -0.3734
11523TIP3    H155984   3.837   5.525  11.324 -0.3221 -0.8099 -1.7896
11523TIP3    H255985   3.851   5.385  11.379  0.1258 -0.0794  0.0182
11524TIP3   OH255986   0.957   0.073   1.211 -0.1348 -0.5039 -0.6512
11524TIP3    H155987   1.014   0.023   1.270 -1.9423 -3.3367 -1.1224
11524TIP3    H255988   0.979   0.040   1.123 -0.3855  0.6037 -1.1461
11525TIP3   OH255989   6.333   6.151  14.867 -0.1058 -0.0798 -0.2569
11525TIP3    H155990   6.265   6.085  14.872  1.5226 -1.7863  0.9787
11525TIP3    H255991   6.398   6.124  14.933  0.9523  2.4060 -0.1384
11526TIP3   OH255992   1.548   1.656  13.985  0.3690 -0.2894  0.0677
11526TIP3    H155993   1.520   1.597  14.055  2.4648  0.5875  1.7858
11526TIP3    H255994   1.514   1.741  14.011  1.7840  0.1816  0.4897
11527TIP3   OH255995   1.826   1.684   2.112 -0.1503  0.2347 -0.0538
11527TIP3    H155996   1.745   1.633   2.113 -1.2958  1.9001 -1.2090
11527TIP3    H255997   1.854   1.684   2.020  0.7499  0.3152  0.2087
11528TIP3   OH255998   2.380   1.511  10.367 -0.3323  0.3537 -0.5429
11528TIP3    H155999   2.286   1.520  10.377 -0.1033  0.5561  2.1574
11528TIP3    H256000   2.417   1.581  10.422  1.3718 -0.5920 -0.3939
11529TIP3   OH256001   2.242   0.576  11.196 -0.3354 -0.0812 -0.2179
11529TIP3    H156002   2.202   0.495  11.165 -1.7692  0.8143 -0.8252
11529TIP3    H256003   2.282   0.615  11.118  0.7477 -0.4116  0.1610
11530TIP3   OH256004   0.337   1.861  17.042 -0.0300  0.2334 -0.3084
11530TIP3    H156005   0.316   1.927  16.977 -2.2797  1.0122  1.1125
11530TIP3    H256006   0.363   1.911  17.120  0.2536 -0.6091  0.1531
11531TIP3   OH256007   1.187   4.273   0.026 -0.3799 -0.5370  0.5942
11531TIP3    H156008   1.113   4.323   0.060 -0.3902 -1.3762  1.8865
11531TIP3    H256009   1.264   4.320   0.056 -0.3888 -0.2493  0.1664
11532TIP3   OH256010   4.701   5.814   4.341  0.2681 -0.1919 -0.2609
11532TIP3    H156011   4.707   5.908   4.329 -0.7254 -0.2297 -1.1304
11532TIP3    H256012   4.786   5.780   4.312  0.6308  0.4189  0.0651
11533TIP3   OH256013   4.930   6.035  10.877 -0.2262 -0.1418 -0.2319
11533TIP3    H156014   4.939   6.129  10.890 -0.1974 -0.2416  0.4945
11533TIP3    H256015   4.919   6.025  10.782  4.1998  0.2578 -0.9841
11534TIP3   OH256016   1.751   2.503  12.208 -0.6065 -0.0765 -0.1463
11534TIP3    H156017   1.675   2.463  12.249 -0.4114  0.2858  0.5998
11534TIP3    H256018   1.817   2.505  12.277 -0.8338  2.1469  0.0810
11535TIP3   OH256019   0.333   1.483  17.027  0.0578  0.3948 -0.7924
11535TIP3    H156020   0.396   1.510  17.094 -2.3097  1.5312  1.1546
11535TIP3    H256021   0.357   1.535  16.950  1.8710  0.2615 -0.3775
11536TIP3   OH256022   4.618   2.142  15.677  0.3137  0.3452  0.0220
11536TIP3    H156023   4.610   2.188  15.593  1.9071  0.1019 -0.3039
11536TIP3    H256024   4.571   2.060  15.663 -1.0366  1.0867  0.0205
11537TIP3   OH256025   3.339   3.247  16.729  0.1700  0.4261  0.6474
11537TIP3    H156026   3.342   3.317  16.794  1.6424 -0.3141  1.4230
11537TIP3    H256027   3.333   3.166  16.780 -1.8399 -0.0512 -0.2436
11538TIP3   OH256028   5.358   6.797  16.287 -0.0033 -0.2595 -0.8095
11538TIP3    H156029   5.413   6.876  16.283  0.2611 -0.4547 -1.0918
11538TIP3    H256030   5.371   6.754  16.202  0.4920 -1.0237 -0.3687
11539TIP3   OH256031   1.140   0.849   0.780  0.0340 -0.0273  0.6986
11539TIP3    H156032   1.212   0.798   0.743 -0.3136  0.1678 -0.2833
11539TIP3    H256033   1.172   0.939   0.781 -0.0161 -0.0094  0.7009
11540TIP3   OH256034   0.532   0.810   4.209 -0.5879 -0.4307 -0.3560
11540TIP3    H156035   0.440   0.827   4.227 -1.3858 -1.3204 -3.0335
11540TIP3    H256036   0.542   0.716   4.221  0.4882 -0.1103  1.6663
11541TIP3   OH256037   1.675   2.414   1.738 -0.3185 -0.6187 -0.6529
11541TIP3    H156038   1.607   2.374   1.793 -1.1363  0.1806 -1.0605
11541TIP3    H256039   1.641   2.501   1.717  0.9818 -0.0684 -0.6025
11542TIP3   OH256040   1.080   0.326   0.047 -0.1089 -0.4202  0.2867
11542TIP3    H156041   1.104   0.293   0.133 -1.5264  1.8571  1.6231
11542TIP3    H256042   1.024   0.257   0.010 -0.3425 -0.9654  1.6086
11543TIP3   OH256043   1.895   3.524  11.222 -0.2130  0.2063  0.6342
11543TIP3    H156044   1.970   3.478  11.184 -0.0249  1.0066  0.0024
11543TIP3    H256045   1.822   3.501  11.164 -0.4924 -0.6671  1.3172
11544TIP3   OH256046   1.710   4.743   4.559 -0.6254 -0.3423 -0.1347
11544TIP3    H156047   1.673   4.781   4.639  0.1303 -1.9403  1.0299
11544TIP3    H256048   1.761   4.814   4.520  1.6403 -0.3463  2.5214
11545TIP3   OH256049   6.272   3.613  15.228 -0.0792 -0.6868  0.9334
11545TIP3    H156050   6.278   3.520  15.248 -0.3085 -0.6916  0.9844
11545TIP3    H256051   6.297   3.658  15.309 -0.4354 -0.7051  1.0542
11546TIP3   OH256052   0.006   0.107  13.292  0.3341  0.1589  0.1266
11546TIP3    H156053  -0.004   0.123  13.386 -0.0580 -1.1800  0.3284
11546TIP3    H256054  -0.073   0.060  13.267  0.4008  0.5661 -0.9056
11547TIP3   OH256055   4.886   5.886   0.846  0.2694  0.9023  0.2701
11547TIP3    H156056   4.920   5.852   0.929  0.9248  0.7868 -0.0381
11547TIP3    H256057   4.934   5.837   0.779 -0.3668  0.8832 -0.1798
11548TIP3   OH256058   2.827   4.801   1.817  0.2210 -0.4866  0.2449
11548TIP3    H156059   2.805   4.876   1.872 -0.2374  0.0078 -0.5990
11548TIP3    H256060   2.911   4.770   1.852 -0.1672 -0.3186  1.3540
11549TIP3   OH256061   6.648   6.343  12.995  0.6389  0.0461 -0.4170
11549TIP3    H156062   6.568   6.305  12.959  0.5552 -0.2797  0.0885
11549TIP3    H256063   6.621   6.376  13.081  0.7627  1.0731 -0.7676
11550TIP3   OH256064   4.532   0.855  12.042 -0.6652  0.0475 -0.4088
11550TIP3    H156065   4.557   0.762  12.047  0.8076  0.3578 -1.4357
11550TIP3    H256066   4.490   0.872  12.126 -0.7762 -1.4992 -0.1118
11551TIP3   OH256067   1.673   1.311  10.207  0.6751  0.2928  0.7142
11551TIP3    H156068   1.594   1.277  10.249  0.2695 -0.0151 -0.2614
11551TIP3    H256069   1.739   1.243  10.220 -0.2570 -1.2189 -1.6409
11552TIP3   OH256070   4.059   5.311   1.734  0.2423  0.0024 -0.5215
11552TIP3    H156071   3.988   5.254   1.763 -0.2472  0.6018 -0.5327
11552TIP3    H256072   4.044   5.394   1.779  1.8420 -0.3282  0.7317
11553TIP3   OH256073   3.908   5.223   5.343 -0.0178  0.2997 -0.3065
11553TIP3    H156074   3.847   5.289   5.377  0.3738  0.9751 -0.8740
11553TIP3    H256075   3.994   5.253   5.373  0.1113 -0.2474 -0.1249
11554TIP3   OH256076   5.687   4.247  15.266  0.0396  1.1866  0.1698
11554TIP3    H156077   5.756   4.186  15.290 -1.3119 -0.2973  0.4971
11554TIP3    H256078   5.624   4.241  15.338 -1.3883  0.9132 -1.0410
11555TIP3   OH256079   3.412   3.449  11.643 -0.3589 -0.1295 -0.5059
11555TIP3    H156080   3.473   3.486  11.579 -0.0528  1.4519  0.6289
11555TIP3    H256081   3.388   3.523  11.698  0.8236 -1.7069  2.3674
11556TIP3   OH256082   4.520   0.783  11.258 -0.2631  0.3837  0.0790
11556TIP3    H156083   4.605   0.739  11.265 -0.6111 -0.3085  0.0218
11556TIP3    H256084   4.456   0.715  11.279 -0.8498  0.6788 -0.6865
11557TIP3   OH256085   0.628   2.067  16.546 -0.2184  0.0994  0.8855
11557TIP3    H156086   0.646   2.020  16.465  1.3965  0.3303  1.0760
11557TIP3    H256087   0.605   1.999  16.609 -0.9303 -0.1299  0.3891
11558TIP3   OH256088   2.116   2.575  10.805 -0.9033  0.3178  0.0854
11558TIP3    H156089   2.162   2.652  10.771  0.5433  0.6252  2.4398
11558TIP3    H256090   2.157   2.501  10.761  1.2113  0.6675  1.3113
11559TIP3   OH256091   6.194   4.457   0.230  0.2408 -0.1078 -0.4123
11559TIP3    H156092   6.250   4.455   0.307  0.3847 -0.4440 -0.5246
11559TIP3    H256093   6.206   4.544   0.194 -0.9879  0.6094  0.7968
11560TIP3   OH256094   3.049   0.414   3.768  0.5012  0.6031  0.5389
11560TIP3    H156095   3.003   0.454   3.841  0.6228 -1.6887  1.9585
11560TIP3    H256096   2.999   0.442   3.691 -1.4196  0.7022  1.7453
11561TIP3   OH256097   6.430   1.200  16.052 -0.7512 -0.3521 -0.0538
11561TIP3    H156098   6.341   1.211  16.020 -0.9084 -2.4600 -0.4213
11561TIP3    H256099   6.479   1.164  15.977  0.4257  0.7065  0.1536
11562TIP3   OH256100   3.287   6.237  15.231  0.0486 -0.1437 -0.0557
11562TIP3    H156101   3.218   6.303  15.241  0.4568  0.2631  0.0900
11562TIP3    H256102   3.274   6.202  15.143  0.4955  0.8916 -0.5438
11563TIP3   OH256103   2.309   0.131   4.140  0.2399  0.8595  0.0377
11563TIP3    H156104   2.291   0.221   4.166 -1.3708  0.3416  0.8344
11563TIP3    H256105   2.311   0.082   4.222 -0.6582 -0.1063 -0.4831
11564TIP3   OH256106   0.877   2.461   1.947 -0.1969  0.7777  0.0326
11564TIP3    H156107   0.833   2.540   1.978 -0.2275  0.0979  1.8450
11564TIP3    H256108   0.929   2.490   1.872  0.3933  2.6732  1.1149
11565TIP3   OH256109   4.666   1.278   0.543  0.1842 -0.3972  0.3347
11565TIP3    H156110   4.590   1.220   0.551 -0.2838  0.0616 -0.6574
11565TIP3    H256111   4.630   1.358   0.505  0.6453  0.8993  2.4766
11566TIP3   OH256112   2.324   3.126  12.736  0.3830  0.2270 -0.3551
11566TIP3    H156113   2.354   3.217  12.733  0.5137  0.1874 -0.2633
11566TIP3    H256114   2.390   3.081  12.788 -0.0819  0.2367  0.2552
11567TIP3   OH256115   0.623   0.563  16.299  1.0601 -0.1451 -0.4503
11567TIP3    H156116   0.677   0.554  16.220  0.1959  1.7954 -1.3450
11567TIP3    H256117   0.682   0.601  16.364  1.2759  0.0998 -0.7852
11568TIP3   OH256118   5.943   0.365   0.291  0.3580 -0.7237 -0.1205
11568TIP3    H156119   6.003   0.371   0.365  2.7039 -2.5228 -1.7236
11568TIP3    H256120   5.975   0.431   0.229 -0.3128 -0.6524 -0.4046
11569TIP3   OH256121   2.787   4.607  15.354  1.0878 -0.3268  0.3132
11569TIP3    H156122   2.864   4.612  15.410  0.3973 -1.1297  1.3730
11569TIP3    H256123   2.821   4.617  15.265  2.4410 -0.9286  0.7448
11570TIP3   OH256124   1.367   1.143  11.399  0.4444 -0.5096 -0.1822
11570TIP3    H156125   1.385   1.203  11.327 -0.8425 -1.1215 -1.0541
11570TIP3    H256126   1.284   1.102  11.376  0.6376 -1.6629  1.0347
11571TIP3   OH256127   1.592   3.143  14.047 -0.3336  0.6386  0.3322
11571TIP3    H156128   1.669   3.166  13.995 -0.8226 -0.8086 -1.1041
11571TIP3    H256129   1.518   3.167  13.991 -0.9151  0.9354  1.2164
11572TIP3   OH256130   2.808   0.085  16.404  0.2108  0.4177  0.6398
11572TIP3    H156131   2.764   0.032  16.470  3.5639 -1.1313  1.8660
11572TIP3    H256132   2.852   0.021  16.348 -0.7713  1.7892 -1.8655
11573TIP3   OH256133   0.104   4.994  15.892  0.1923  0.5675 -0.4711
11573TIP3    H156134   0.061   5.030  15.970 -0.2380 -0.7905 -0.0699
11573TIP3    H256135   0.036   4.945  15.847  0.9544 -0.4249 -0.5800
11574TIP3   OH256136   5.620   1.695   2.291  0.2400 -0.3225 -0.4778
11574TIP3    H156137   5.675   1.759   2.246  0.1226 -0.5310 -0.9139
11574TIP3    H256138   5.639   1.612   2.249 -1.4866 -0.1704 -1.6547
11575TIP3   OH256139   1.815   0.778   6.662  0.0984 -0.4706  0.0108
11575TIP3    H156140   1.873   0.762   6.587  1.3680 -0.9135  1.0544
11575TIP3    H256141   1.866   0.834   6.720 -0.0936 -1.7200  1.4320
11576TIP3   OH256142   2.672   1.120  15.451  0.1090 -0.0168  0.1069
11576TIP3    H156143   2.722   1.055  15.403  0.3211  0.7322 -0.6926
11576TIP3    H256144   2.710   1.204  15.426 -1.5502  0.5742 -0.5629
11577TIP3   OH256145   5.841   5.943  16.398 -0.2839 -0.7905  0.2559
11577TIP3    H156146   5.780   5.997  16.449 -1.1697 -1.9458  0.4534
11577TIP3    H256147   5.875   5.879  16.461 -0.7337 -1.6925 -0.4039
11578TIP3   OH256148   0.872   3.662  12.244 -0.0494  0.4676  0.4840
11578TIP3    H156149   0.791   3.711  12.254 -0.4567 -0.2545  0.8051
11578TIP3    H256150   0.845   3.579  12.204  0.7868  0.9894 -1.2753
11579TIP3   OH256151   3.664   4.500   4.671  0.4655 -0.2979  0.1934
11579TIP3    H156152   3.674   4.410   4.639  2.3077  0.3217 -1.1533
11579TIP3    H256153   3.713   4.502   4.753 -1.8913 -1.1570  1.7354
11580TIP3   OH256154   0.497   0.415   0.307 -0.0692 -0.0500 -0.3890
11580TIP3    H156155   0.557   0.431   0.380  1.2655 -0.6344 -1.2983
11580TIP3    H256156   0.511   0.489   0.247 -0.6335  0.0671 -0.3841
11581TIP3   OH256157   2.334   1.687   2.319 -0.1105 -0.1318  0.4915
11581TIP3    H156158   2.293   1.604   2.296  0.8982 -0.6763  0.5808
11581TIP3    H256159   2.411   1.662   2.370  0.3333  0.8494  0.3316
11582TIP3   OH256160   6.638   0.382  12.115 -0.1386 -0.1251  0.2963
11582TIP3    H156161   6.632   0.329  12.036  0.1017  0.4521 -0.1239
11582TIP3    H256162   6.723   0.359  12.154  0.1913  0.3071 -0.1547
11583TIP3   OH256163   1.566   6.116   6.045  0.1247 -0.2568 -0.4345
11583TIP3    H156164   1.570   6.210   6.063  0.3879 -0.5150  0.9271
11583TIP3    H256165   1.538   6.077   6.127  0.3627 -1.4084 -0.8889
11584TIP3   OH256166   1.590   1.945   5.182 -1.0912 -1.0043 -0.3687
11584TIP3    H156167   1.677   1.912   5.203 -1.1098 -0.5315  0.5102
11584TIP3    H256168   1.538   1.867   5.165 -0.1051 -1.2367 -2.5835
11585TIP3   OH256169   1.679   3.279  11.058  0.3356 -0.3366 -0.7004
11585TIP3    H156170   1.732   3.201  11.040 -1.5335 -2.6170  2.5538
11585TIP3    H256171   1.591   3.256  11.028 -0.5012 -0.0302  1.3593
11586TIP3   OH256172   2.853   2.114  10.785 -0.2272 -0.5911 -0.1286
11586TIP3    H156173   2.843   2.022  10.760 -0.3241 -0.2397 -1.4756
11586TIP3    H256174   2.876   2.158  10.703 -1.3786  0.7677  0.2475
11587TIP3   OH256175   4.849   2.667   6.337 -0.1351 -0.5094 -0.0911
11587TIP3    H156176   4.904   2.613   6.280  0.1826 -1.4293  1.0380
11587TIP3    H256177   4.909   2.730   6.377  0.1596 -1.4950  1.1191
11588TIP3   OH256178   2.833   3.247  12.108 -0.5376  0.0885 -0.2229
11588TIP3    H156179   2.737   3.245  12.103 -0.7113  0.0259  2.0878
11588TIP3    H256180   2.862   3.228  12.018 -2.6662  0.0612 -0.9699
11589TIP3   OH256181   5.426   2.540  16.353  0.5045 -0.2189  0.0583
11589TIP3    H156182   5.501   2.493  16.388 -1.1954 -1.4017  2.3800
11589TIP3    H256183   5.399   2.490  16.276  1.1475 -0.6696  0.1237
11590TIP3   OH256184   1.394   5.360  11.895 -0.1400  0.8195 -0.0715
11590TIP3    H156185   1.402   5.426  11.826  0.8091 -0.2063 -0.9948
11590TIP3    H256186   1.401   5.276  11.849 -0.8859  0.0681  1.1185
11591TIP3   OH256187   6.658   6.272   1.603 -0.2412 -0.3255 -0.0559
11591TIP3    H156188   6.656   6.235   1.515 -0.7036 -2.7792  0.8915
11591TIP3    H256189   6.566   6.283   1.627 -0.2041 -1.5492  0.7798
11592TIP3   OH256190   3.088   2.006  14.893  0.0366  0.0502 -0.4287
11592TIP3    H156191   3.019   1.950  14.858 -0.5581  0.6792 -0.2688
11592TIP3    H256192   3.121   1.958  14.970 -1.9229  0.8545  0.9945
11593TIP3   OH256193   3.261   5.360   4.044 -0.5234 -0.6315 -0.3832
11593TIP3    H156194   3.185   5.312   4.078 -1.5020  1.1432  0.0960
11593TIP3    H256195   3.312   5.382   4.121 -0.4045 -0.3894 -0.5291
11594TIP3   OH256196   0.102   2.095  12.512  0.4075  0.7583 -0.5968
11594TIP3    H156197   0.073   2.010  12.477  1.7046 -0.1758  0.4710
11594TIP3    H256198   0.119   2.078  12.605  3.7028  1.3225 -0.9670
11595TIP3   OH256199   1.670   0.125  15.303 -0.0472  0.3414 -0.5336
11595TIP3    H156200   1.586   0.082  15.324 -0.7259  1.6539 -0.4416
11595TIP3    H256201   1.736   0.070  15.346 -0.8929 -0.5113 -0.2833
11596TIP3   OH256202   5.029   3.621   6.221 -0.0867  0.4615  0.0672
11596TIP3    H156203   4.986   3.535   6.224 -0.0901  0.4793  0.5960
11596TIP3    H256204   5.099   3.614   6.286  1.3760  0.0810 -1.4545
11597TIP3   OH256205   4.588   5.972   1.299 -0.4113 -0.0422  0.4346
11597TIP3    H156206   4.559   6.045   1.354 -0.8036  0.4759 -0.4429
11597TIP3    H256207   4.682   5.987   1.288  0.2837 -1.6786  3.2103
11598TIP3   OH256208   4.922   3.414  15.932 -0.5471  0.1666  0.0043
11598TIP3    H156209   4.871   3.336  15.955  0.8320 -1.3793 -1.8319
11598TIP3    H256210   5.013   3.386  15.939  0.1036  2.5009  2.0465
11599TIP3   OH256211   3.136   5.401  13.592  0.1017 -0.7698 -0.2191
11599TIP3    H156212   3.206   5.338  13.577  0.1779 -0.8482  0.4574
11599TIP3    H256213   3.164   5.479  13.545  1.3303 -0.3241  1.2039
11600TIP3   OH256214   6.576   1.750   3.527 -0.6179  0.2122  0.1071
11600TIP3    H156215   6.515   1.808   3.571 -0.0129  0.3154  0.8165
11600TIP3    H256216   6.651   1.805   3.506 -0.6052 -0.0013 -0.4260
11601TIP3   OH256217   4.614   2.421   4.491  0.0579 -0.0209 -0.5955
11601TIP3    H156218   4.594   2.328   4.499 -0.3123  0.0007 -1.1949
11601TIP3    H256219   4.708   2.427   4.510 -0.2297 -0.2766  1.1234
11602TIP3   OH256220   4.658   0.333  13.173 -0.3393 -0.0697 -0.4237
11602TIP3    H156221   4.587   0.382  13.132 -0.1348 -0.3264 -1.0984
11602TIP3    H256222   4.616   0.254  13.209 -0.2433 -0.7578 -1.7659
11603TIP3   OH256223   4.994   4.041  13.026 -0.2430  0.6615 -0.0880
11603TIP3    H156224   5.084   4.025  13.053 -0.2279  2.2124  0.8730
11603TIP3    H256225   4.942   3.979  13.077  0.1034  1.1844  0.9111
11604TIP3   OH256226   3.477   4.505   4.231  0.8010  0.2654 -0.3075
11604TIP3    H156227   3.563   4.516   4.273  2.0021 -1.5194 -2.0916
11604TIP3    H256228   3.479   4.416   4.197 -2.4660 -0.4433  0.9992
11605TIP3   OH256229   4.859   2.032  14.590  0.6129 -0.2702  0.5067
11605TIP3    H156230   4.902   2.009  14.508  0.1066 -0.1830  0.2104
11605TIP3    H256231   4.823   1.949  14.623  1.3731 -0.4241  0.9821
11606TIP3   OH256232   6.528   1.185  12.394 -0.3389  0.2688  0.0846
11606TIP3    H156233   6.456   1.241  12.423 -0.8920  0.8420 -2.1671
11606TIP3    H256234   6.485   1.105  12.363 -0.3267  1.3006 -2.9584
11607TIP3   OH256235   4.783   3.804   4.107  0.9197 -0.3950 -0.1468
11607TIP3    H156236   4.725   3.807   4.031  0.3870 -1.8030  0.1791
11607TIP3    H256237   4.813   3.894   4.118 -2.2900  0.7152  0.5082
11608TIP3   OH256238   1.138   2.120  10.754 -0.5338 -0.0898 -0.1778
11608TIP3    H156239   1.215   2.080  10.713  0.2099  0.4601  0.6546
11608TIP3    H256240   1.085   2.151  10.680 -0.0397 -0.6120 -0.7618
11609TIP3   OH256241   3.492   1.715   3.770  1.0992 -0.2334  0.3370
11609TIP3    H156242   3.575   1.668   3.785  1.2981  0.1359  0.4029
11609TIP3    H256243   3.518   1.805   3.753  0.7524 -0.2815 -0.4643
11610TIP3   OH256244   6.462   2.332   1.597 -0.5717  0.1859 -0.0052
11610TIP3    H156245   6.506   2.257   1.557 -0.4173  0.6356 -0.6916
11610TIP3    H256246   6.464   2.400   1.529 -1.4796  0.5246  0.2999
11611TIP3   OH256247   1.530   4.376  14.411 -0.4748 -0.3109 -0.1963
11611TIP3    H156248   1.578   4.421  14.342 -1.7366  0.8695 -0.3507
11611TIP3    H256249   1.454   4.338  14.367 -0.8904 -0.1968  0.4064
11612TIP3   OH256250   6.550   2.789  13.386 -0.4420 -0.3841 -0.3792
11612TIP3    H156251   6.521   2.830  13.467 -0.0012 -1.7049  0.4863
11612TIP3    H256252   6.513   2.843  13.317 -0.1101  1.2686  0.6874
11613TIP3   OH256253   1.089   5.880  11.993 -0.0878  0.4750 -0.2273
11613TIP3    H156254   1.143   5.818  11.943  0.3269 -0.1819  0.9938
11613TIP3    H256255   1.035   5.825  12.049  0.1789  1.2097  0.7753
11614TIP3   OH256256   2.551   5.463   6.065 -0.0840  0.5046 -0.6797
11614TIP3    H156257   2.495   5.526   6.021 -1.8082 -0.6238 -0.2224
11614TIP3    H256258   2.532   5.475   6.158 -0.7000 -0.8504 -0.5967
11615TIP3   OH256259   5.587   0.069   5.326 -0.4203 -0.0235 -0.7913
11615TIP3    H156260   5.562   0.124   5.252  0.1678 -0.6368 -1.4572
11615TIP3    H256261   5.678   0.047   5.311 -1.2802 -3.3901 -2.0062
11616TIP3   OH256262   6.703   2.967   5.102 -0.1399 -0.0276  0.2707
11616TIP3    H156263   6.790   2.948   5.138 -1.3019 -1.2282  2.7263
11616TIP3    H256264   6.674   2.884   5.066 -0.4436  0.2686 -0.1725
11617TIP3   OH256265   6.517   2.372   2.028  0.1558 -0.1414 -0.7680
11617TIP3    H156266   6.461   2.437   2.071  0.1818  0.4062 -1.5394
11617TIP3    H256267   6.547   2.315   2.099 -0.3895  0.3017 -0.1735
11618TIP3   OH256268   1.752   6.580  14.213  0.3368  0.6017 -0.4064
11618TIP3    H156269   1.713   6.494  14.196 -0.0417  0.7628 -0.3611
11618TIP3    H256270   1.713   6.608  14.296  1.2814  0.3434  0.1357
11619TIP3   OH256271   5.887   5.166   3.902  0.3820  0.0068 -0.3878
11619TIP3    H156272   5.870   5.205   3.817 -0.2281  1.6116  0.4164
11619TIP3    H256273   5.957   5.220   3.939 -0.1276  0.0543  0.5442
11620TIP3   OH256274   6.758   4.203   0.349 -0.1036  0.8189  0.0731
11620TIP3    H156275   6.746   4.149   0.270  0.3129 -0.1315  0.6436
11620TIP3    H256276   6.703   4.161   0.415 -0.9180  1.9666  0.1456
11621TIP3   OH256277   3.881   3.737  16.355 -0.1491  0.1570  0.1219
11621TIP3    H156278   3.871   3.831  16.341 -0.4462  0.2376  0.8090
11621TIP3    H256279   3.836   3.696  16.282 -0.0102  0.5512 -0.1858
11622TIP3   OH256280   0.691   0.646  14.254 -0.3987 -0.0632 -0.2320
11622TIP3    H156281   0.677   0.623  14.346 -0.9997  0.3957 -0.2057
11622TIP3    H256282   0.655   0.571  14.205 -1.8556  0.5448 -0.1326
11623TIP3   OH256283   0.361   1.427   4.676 -0.2693  0.0521  0.3219
11623TIP3    H156284   0.449   1.462   4.692  0.6461 -2.0282  0.2004
11623TIP3    H256285   0.346   1.365   4.747 -0.4463 -1.6253 -1.0861
11624TIP3   OH256286   3.172   3.522  15.623  0.0014  0.0682 -0.1951
11624TIP3    H156287   3.091   3.480  15.653  0.2139 -0.6236 -0.5858
11624TIP3    H256288   3.186   3.593  15.686 -0.9729  0.2764 -0.1871
11625TIP3   OH256289   1.083   0.242  14.134  0.0960  0.1554  0.1892
11625TIP3    H156290   1.015   0.192  14.179 -0.3035  0.1876 -0.3668
11625TIP3    H256291   1.115   0.304  14.199 -1.5653  1.2864 -0.0045
11626TIP3   OH256292   2.987   2.890   3.375  1.1004 -0.1897  0.0636
11626TIP3    H156293   2.973   2.985   3.375  1.2391 -0.1670  0.6890
11626TIP3    H256294   3.066   2.878   3.321 -0.2234 -0.1717 -1.9873
11627TIP3   OH256295   0.814   5.548  17.006  0.3141  0.1268 -0.0082
11627TIP3    H156296   0.776   5.519  17.089 -1.4060 -0.8230 -1.0725
11627TIP3    H256297   0.764   5.627  16.984  0.0459 -0.2048 -0.6217
11628TIP3   OH256298   1.233   1.360  11.628 -0.1323 -0.4174 -0.1435
11628TIP3    H156299   1.294   1.329  11.561 -0.6116 -1.2705 -0.1992
11628TIP3    H256300   1.246   1.455  11.629  1.4618 -0.6003  0.1149
11629TIP3   OH256301   0.608   5.916   0.972 -0.2700  0.4413 -0.5379
11629TIP3    H156302   0.578   5.842   1.024 -0.8548  0.3066 -1.0527
11629TIP3    H256303   0.587   5.993   1.025  1.6994  0.2114  0.6800
11630TIP3   OH256304   0.733   0.401   5.508 -0.6503 -0.0699  0.4021
11630TIP3    H156305   0.667   0.429   5.444  0.4003  0.0755 -0.6645
11630TIP3    H256306   0.765   0.317   5.474  0.2329  0.2214  0.4769
11631TIP3   OH256307   3.650   0.495  13.036  0.2169 -0.1585  0.3398
11631TIP3    H156308   3.700   0.525  13.113 -0.7394 -0.3320  1.0445
11631TIP3    H256309   3.710   0.436  12.991  1.2200  0.8611  0.3008
11632TIP3   OH256310   3.680   6.636  10.288  0.5046 -0.2501 -0.1832
11632TIP3    H156311   3.632   6.718  10.273  0.3351 -0.5981 -1.7271
11632TIP3    H256312   3.721   6.648  10.373 -1.2580  0.5826  0.6036
11633TIP3   OH256313   0.673   5.141  16.734  0.4123  0.2485  0.7405
11633TIP3    H156314   0.626   5.174  16.811 -0.0101  1.8493 -0.1468
11633TIP3    H256315   0.757   5.189  16.736  0.0342  0.9848 -0.2515
11634TIP3   OH256316   4.128   3.424  13.759  0.2851  0.1506  0.1725
11634TIP3    H156317   4.119   3.454  13.849  1.4042  0.2362  0.2818
11634TIP3    H256318   4.061   3.358  13.748  0.7546 -0.5616  1.3813
11635TIP3   OH256319   6.018   1.193   0.760 -0.3697  0.1158  0.7167
11635TIP3    H156320   6.004   1.118   0.702 -3.3928 -0.4250  1.9206
11635TIP3    H256321   5.958   1.260   0.728 -0.9511  0.3669  2.2226
11636TIP3   OH256322   1.223   4.114   3.145 -0.5108  0.6096 -0.2333
11636TIP3    H156323   1.302   4.138   3.096 -0.5603  0.0493 -0.5967
11636TIP3    H256324   1.182   4.198   3.167  0.2218  0.9038  0.0199
11637TIP3   OH256325   3.142   4.574   3.592 -0.0466  0.0082  0.0957
11637TIP3    H156326   3.063   4.627   3.583 -0.7362 -0.9098  0.5364
11637TIP3    H256327   3.144   4.550   3.685  1.3863  0.9615  0.3327
11638TIP3   OH256328   3.739   5.530   3.039 -0.7023 -0.5799  0.2068
11638TIP3    H156329   3.646   5.552   3.042 -0.5837 -0.0315 -0.0582
11638TIP3    H256330   3.783   5.610   3.010  0.0297 -0.3749  1.8056
11639TIP3   OH256331   3.724   1.855   4.712  0.2334 -0.5073  0.8335
11639TIP3    H156332   3.689   1.925   4.766 -1.0059 -0.5529  0.1420
11639TIP3    H256333   3.738   1.895   4.626  0.5902 -0.8283  0.7393
11640TIP3   OH256334   5.391   3.238   2.768 -0.0551 -0.0393 -0.2586
11640TIP3    H156335   5.338   3.216   2.690 -2.4758 -2.1929  1.7934
11640TIP3    H256336   5.326   3.263   2.834  1.8550  0.9293  1.3386
11641TIP3   OH256337   2.279   3.866  12.311  0.0440  0.1956 -0.0910
11641TIP3    H156338   2.239   3.953  12.309  1.1485  0.7099 -0.3889
11641TIP3    H256339   2.230   3.819  12.379  0.0343  1.3533  0.7370
11642TIP3   OH256340   0.412   6.819   4.102 -0.5855  0.1625 -0.7824
11642TIP3    H156341   0.387   6.870   4.180  0.4252 -2.7490  1.6181
11642TIP3    H256342   0.350   6.747   4.100 -0.9361  0.4566 -3.1152
11643TIP3   OH256343   3.398   4.449   1.935  0.4981  0.1871  0.7068
11643TIP3    H156344   3.472   4.509   1.927  0.9458 -0.6169 -2.0490
11643TIP3    H256345   3.383   4.417   1.847 -2.2112 -0.8389  1.4371
11644TIP3   OH256346   0.427   5.354   3.719 -0.3614 -0.4814  0.6812
11644TIP3    H156347   0.460   5.439   3.691 -0.2614 -1.2584 -1.8192
11644TIP3    H256348   0.500   5.294   3.705 -1.1743 -1.3576  0.0246
11645TIP3   OH256349   3.729   0.881  10.246  0.6266 -0.4265  0.7927
11645TIP3    H156350   3.810   0.881  10.296  0.2886 -1.3104  1.3686
11645TIP3    H256351   3.678   0.954  10.283  0.5766 -0.7745  1.4320
11646TIP3   OH256352   2.336   2.468  10.437 -0.1692  0.0237  0.7767
11646TIP3    H156353   2.428   2.488  10.417 -0.2451 -0.5473 -0.1863
11646TIP3    H256354   2.340   2.384  10.484 -0.2321 -0.2572  0.2842
11647TIP3   OH256355   3.811   2.747  11.411  0.2965  0.3581  0.5414
11647TIP3    H156356   3.839   2.667  11.367  1.4707  0.3100  1.3207
11647TIP3    H256357   3.791   2.808  11.339  0.6030 -0.2266 -0.0535
11648TIP3   OH256358   4.644   2.932   1.917  0.5842 -0.0155  0.3092
11648TIP3    H156359   4.642   3.007   1.976  0.3560  1.1083 -1.0590
11648TIP3    H256360   4.707   2.872   1.956  0.1492  0.4966  1.8823
11649TIP3   OH256361   6.235   4.620   3.714  0.0281 -0.0193 -0.0935
11649TIP3    H156362   6.250   4.641   3.622 -2.2799  2.8191  0.0323
11649TIP3    H256363   6.180   4.541   3.712 -3.7259  2.3236 -1.5742
11650TIP3   OH256364   4.389   1.519  11.054 -0.0289 -0.4490  0.7809
11650TIP3    H156365   4.330   1.469  10.998 -0.4458  1.1858 -0.3278
11650TIP3    H256366   4.433   1.580  10.994  1.9802 -0.8472  1.7385
11651TIP3   OH256367   5.944   4.522  11.972 -0.2422  0.2443 -0.0725
11651TIP3    H156368   5.984   4.553  12.054  1.6712 -2.7138  0.2987
11651TIP3    H256369   5.855   4.557  11.974  0.3953  2.0146  2.2155
11652TIP3   OH256370   2.808   5.008  15.585  0.3244 -0.7196  0.1344
11652TIP3    H156371   2.746   4.935  15.572 -1.5343  0.7470  0.2743
11652TIP3    H256372   2.801   5.029  15.678 -0.6813  0.8704 -0.2642
11653TIP3   OH256373   1.305   5.106  11.796  0.1057  0.0122  0.8618
11653TIP3    H156374   1.344   5.043  11.856 -0.5026  0.1601  1.4222
11653TIP3    H256375   1.305   5.061  11.711  0.8136 -0.2600  0.9944
11654TIP3   OH256376   0.546   0.358   2.171  0.0728  0.3782  0.2672
11654TIP3    H156377   0.490   0.433   2.190 -0.2726  0.2736 -0.3165
11654TIP3    H256378   0.516   0.327   2.086  2.1431  1.3967 -0.9155
11655TIP3   OH256379   1.745   4.217   5.068  0.3810 -0.8669 -0.4838
11655TIP3    H156380   1.677   4.256   5.014  1.2949  0.9486 -0.4079
11655TIP3    H256381   1.698   4.156   5.125 -1.5494  1.7174  0.9311
11656TIP3   OH256382   1.814   3.498   3.718 -0.3131  0.1544  0.3220
11656TIP3    H156383   1.781   3.425   3.771 -2.9886  0.9462 -0.0690
11656TIP3    H256384   1.821   3.462   3.630  0.2772 -0.1335  0.4842
11657TIP3   OH256385   3.836   1.969   3.364  0.0226  0.1873 -0.2450
11657TIP3    H156386   3.897   1.921   3.308  1.6461  1.1232  0.6453
11657TIP3    H256387   3.882   1.979   3.447 -1.5539  0.5177  0.6342
11658TIP3   OH256388   2.876   1.783   1.353  0.5122 -0.7515 -0.0404
11658TIP3    H156389   2.857   1.739   1.436  1.5779 -0.2383  0.4911
11658TIP3    H256390   2.798   1.835   1.335 -0.5115 -2.3193 -0.3553
11659TIP3   OH256391   4.966   2.156   3.988 -0.2306 -0.4582 -0.4949
11659TIP3    H156392   4.956   2.146   3.894 -0.2389 -2.4591 -0.3264
11659TIP3    H256393   5.059   2.176   4.001 -0.5864  1.8793 -0.9969
11660TIP3   OH256394   5.008   5.501   1.318 -0.0410  0.4132  0.1956
11660TIP3    H156395   4.984   5.576   1.372 -1.1088  0.2347  0.0043
11660TIP3    H256396   5.016   5.428   1.379  1.0776  0.6782  0.3927
11661TIP3   OH256397   2.794   6.445   0.373  0.1344  0.2234 -0.3150
11661TIP3    H156398   2.824   6.450   0.464  0.3084  1.0912 -0.4094
11661TIP3    H256399   2.862   6.396   0.328  0.8377  1.1552 -0.2859
11662TIP3   OH256400   0.403   4.537  12.821  0.2517  0.2521  0.2235
11662TIP3    H156401   0.491   4.538  12.784 -0.7851 -1.3324 -2.5298
11662TIP3    H256402   0.401   4.460  12.877  0.0632 -0.8925 -1.3149
11663TIP3   OH256403   6.344   1.271  13.119 -0.5017  0.4158  0.2785
11663TIP3    H156404   6.352   1.178  13.141  0.5489  0.2284 -0.8115
11663TIP3    H256405   6.252   1.282  13.097 -0.8064 -0.1793  1.1757
11664TIP3   OH256406   4.975   4.203   3.415  0.1181 -0.4389 -0.5422
11664TIP3    H156407   5.001   4.114   3.392 -0.5108 -0.5632 -0.7840
11664TIP3    H256408   5.002   4.256   3.339  0.2190 -0.4661 -0.5263
11665TIP3   OH256409   0.099   3.552  16.180 -0.2159  0.2840  0.1524
11665TIP3    H156410   0.008   3.524  16.194 -0.3196  0.0961 -0.8539
11665TIP3    H256411   0.151   3.475  16.203 -0.3395  0.2305  0.2582
11666TIP3   OH256412   5.592   1.442   2.203  0.4332 -0.3583  0.2944
11666TIP3    H156413   5.576   1.367   2.260  0.2300 -1.2546 -0.9104
11666TIP3    H256414   5.568   1.411   2.116  1.7994  0.6220 -0.4573
11667TIP3   OH256415   3.736   0.879   4.758  0.6043 -0.1766 -0.0374
11667TIP3    H156416   3.710   0.970   4.741 -0.1250 -0.4374 -0.3444
11667TIP3    H256417   3.698   0.859   4.843  2.4576  0.4347  1.0032
11668TIP3   OH256418   0.243   3.459  12.800  0.1835  0.6861 -0.4726
11668TIP3    H156419   0.285   3.397  12.740 -1.2321  0.4315 -1.2334
11668TIP3    H256420   0.219   3.533  12.744 -1.6682  0.1980 -0.3766
11669TIP3   OH256421   2.230   3.131   4.595 -0.3113  0.1212 -0.0355
11669TIP3    H156422   2.260   3.147   4.684  0.9835  1.5172 -0.6711
11669TIP3    H256423   2.251   3.039   4.579 -1.4825 -0.4295  1.4135
11670TIP3   OH256424   3.088   5.735  16.837 -0.1745 -0.0979  0.5426
11670TIP3    H156425   3.040   5.793  16.777  0.5502 -0.7509 -0.7155
11670TIP3    H256426   3.109   5.791  16.912 -0.4298  0.9734 -0.1522
11671TIP3   OH256427   4.745   5.684   4.017  0.0107  0.2450  0.0879
11671TIP3    H156428   4.792   5.731   4.085 -0.3011 -0.4998  0.8360
11671TIP3    H256429   4.655   5.715   4.023 -0.3158 -0.7824  0.9387
11672TIP3   OH256430   0.000   1.858  10.411 -0.1636  0.4852 -0.7035
11672TIP3    H156431   0.018   1.766  10.395 -0.6687  0.6673 -2.6058
11672TIP3    H256432   0.052   1.905  10.345  1.0989  1.6925  1.0236
11673TIP3   OH256433   3.998   3.769   5.250  0.0700  0.0022 -0.1221
11673TIP3    H156434   3.993   3.675   5.236 -1.9538 -0.0466  0.6942
11673TIP3    H256435   3.942   3.806   5.182 -1.0021  0.4525  0.9872
11674TIP3   OH256436   2.273   1.727  14.335 -0.2680  0.0746  0.0005
11674TIP3    H156437   2.215   1.776  14.394 -1.0369  0.2918 -0.9165
11674TIP3    H256438   2.355   1.718  14.385  0.4837  3.5766 -0.2748
11675TIP3   OH256439   6.406   6.218  10.618 -0.0852 -0.1773  0.0609
11675TIP3    H156440   6.421   6.213  10.524  3.3319 -1.0722  0.5248
11675TIP3    H256441   6.417   6.129  10.649 -2.4155 -0.1272  1.2429
11676TIP3   OH256442   4.393   1.559   6.106  0.0873  0.2796 -0.3923
11676TIP3    H156443   4.474   1.560   6.157  0.1960 -0.9209 -0.5074
11676TIP3    H256444   4.324   1.568   6.171  0.2874  0.8472 -0.2482
11677TIP3   OH256445   1.417   3.737   0.573  0.3550  0.5469 -0.4764
11677TIP3    H156446   1.359   3.786   0.515 -2.9091 -1.4221  0.8301
11677TIP3    H256447   1.433   3.796   0.647 -2.0880  0.3678  0.2722
11678TIP3   OH256448   2.278   6.139  16.102  0.0842  0.2483  0.1644
11678TIP3    H156449   2.199   6.162  16.150 -0.8317  0.6311 -1.4727
11678TIP3    H256450   2.290   6.209  16.038  1.3712 -0.1535 -0.0822
11679TIP3   OH256451   3.090   3.621  16.993 -0.3311 -0.2136  0.0552
11679TIP3    H156452   3.000   3.654  16.998 -0.2531  0.8670 -3.0429
11679TIP3    H256453   3.080   3.530  16.964 -0.4361 -0.3577  0.5428
11680TIP3   OH256454   3.143   4.414   2.818 -0.1296  0.0309 -0.7019
11680TIP3    H156455   3.144   4.487   2.881 -1.4878 -1.9653  1.8365
11680TIP3    H256456   3.197   4.445   2.746  2.6888  2.0302  1.9654
11681TIP3   OH256457   3.486   0.375   2.134 -0.0636  0.0578  0.1776
11681TIP3    H156458   3.564   0.348   2.181  1.9073  1.0989 -2.2869
11681TIP3    H256459   3.484   0.321   2.056 -1.6886  0.2405  0.0454
11682TIP3   OH256460   6.538   0.128   6.800  0.1031  0.1082 -0.3751
11682TIP3    H156461   6.565   0.037   6.810 -2.0760 -0.4309  1.3540
11682TIP3    H256462   6.469   0.125   6.734  0.1216  0.5425 -0.4180
11683TIP3   OH256463   4.021   1.416  13.830 -0.0886  0.0772  0.5706
11683TIP3    H156464   4.098   1.376  13.789 -1.1539 -0.4776 -0.9708
11683TIP3    H256465   4.057   1.476  13.896  1.6987  0.9496 -1.1173
11684TIP3   OH256466   2.353   2.915  14.596 -0.2078  0.2915  0.1042
11684TIP3    H156467   2.436   2.893  14.636 -0.7899 -1.2875  0.5103
11684TIP3    H256468   2.376   2.967  14.518  1.1536 -0.3973  0.0274
11685TIP3   OH256469   6.483   2.316   3.326 -0.0808 -0.2880 -0.2869
11685TIP3    H156470   6.496   2.304   3.231  1.1551 -1.7066  0.0160
11685TIP3    H256471   6.555   2.375   3.352 -0.0396 -0.4048 -0.1356
11686TIP3   OH256472   3.778   2.372  11.830  0.2849  0.2373  0.2941
11686TIP3    H156473   3.755   2.330  11.913  0.9908  0.0713  0.4096
11686TIP3    H256474   3.715   2.338  11.767 -0.4143  0.5530  0.8119
11687TIP3   OH256475   3.024   2.400   3.099 -0.7100 -0.4438 -0.0847
11687TIP3    H156476   2.997   2.478   3.148  0.0916 -0.9240  1.1991
11687TIP3    H256477   3.073   2.434   3.025  1.1678  0.2987  1.4059
11688TIP3   OH256478   5.859   1.166   4.313 -0.5167 -0.2700 -0.3670
11688TIP3    H156479   5.874   1.149   4.406 -0.0922  1.2107 -0.1367
11688TIP3    H256480   5.906   1.096   4.268 -0.5466 -0.8793  0.5266
11689TIP3   OH256481   5.495   5.415   0.450  0.0874  0.4832 -0.4795
11689TIP3    H156482   5.417   5.359   0.449 -0.0326  0.5960 -2.4527
11689TIP3    H256483   5.530   5.407   0.538 -0.5887 -1.7841 -0.3641
11690TIP3   OH256484   4.862   1.323   3.691 -0.0334  0.1953 -0.3514
11690TIP3    H156485   4.919   1.377   3.636  0.7772 -0.3727 -0.0833
11690TIP3    H256486   4.921   1.280   3.752 -0.7862 -0.1954  0.1151
11691TIP3   OH256487   3.335   4.645  14.367  0.1412  0.1819 -0.3251
11691TIP3    H156488   3.254   4.677  14.405 -0.3305 -0.2139 -0.9838
11691TIP3    H256489   3.401   4.708  14.395 -0.6750  1.4605 -1.1807
11692TIP3   OH256490   4.391   4.909   1.680  0.2852  0.4356 -0.0281
11692TIP3    H156491   4.311   4.895   1.731 -0.3609  0.8655 -0.8976
11692TIP3    H256492   4.434   4.983   1.722  0.9303 -0.6253  1.2553
11693TIP3   OH256493   0.389   2.511  14.828 -0.9329 -0.2379  0.1161
11693TIP3    H156494   0.468   2.562  14.843 -1.5630  0.8129 -0.0830
11693TIP3    H256495   0.358   2.539  14.743 -1.0393 -1.3053 -0.2106
11694TIP3   OH256496   1.423   0.554   3.536 -0.5228  0.2226  0.5713
11694TIP3    H156497   1.366   0.482   3.561  0.8549 -1.4178 -0.7789
11694TIP3    H256498   1.496   0.550   3.599 -0.3098  0.2858  0.3287
11695TIP3   OH256499   5.478   2.251  11.626 -0.0603 -0.1880  0.1772
11695TIP3    H156500   5.508   2.312  11.693 -3.2549  1.0038  0.7240
11695TIP3    H256501   5.558   2.221  11.583  1.8186  2.7615  1.2814
11696TIP3   OH256502   2.874   1.485   2.290 -0.0403  0.2113  0.0300
11696TIP3    H156503   2.809   1.415   2.292 -0.5615  0.6679 -0.4265
11696TIP3    H256504   2.862   1.531   2.373  0.5546 -0.4515  0.4947
11697TIP3   OH256505   2.106   3.069   3.682  0.0025  0.1893 -0.2650
11697TIP3    H156506   2.126   3.028   3.597 -1.1809  0.8169 -0.8793
11697TIP3    H256507   2.170   3.031   3.742  2.5088  1.5086 -1.8940
11698TIP3   OH256508   4.854   3.261   4.343  0.1713 -0.0317 -0.4658
11698TIP3    H156509   4.852   3.191   4.277  0.2659  1.2512 -1.8875
11698TIP3    H256510   4.946   3.265   4.370  0.1633 -0.4445 -0.3622
11699TIP3   OH256511   2.206   0.314  15.477  0.2851 -0.2804 -0.5329
11699TIP3    H156512   2.294   0.286  15.450  0.3424  0.3637 -1.0331
11699TIP3    H256513   2.198   0.284  15.568  1.2312  0.1283 -0.3066
11700TIP3   OH256514   1.547   2.602   4.764 -0.1814  0.0678 -0.2394
11700TIP3    H156515   1.453   2.583   4.760  0.1400 -1.6385 -0.5123
11700TIP3    H256516   1.579   2.549   4.836  0.5747  0.6910 -0.1072
11701TIP3   OH256517   4.862   2.004  13.435 -0.2405  0.5029 -0.3496
11701TIP3    H156518   4.956   2.014  13.423 -0.2228 -0.3194 -0.9665
11701TIP3    H256519   4.837   1.937  13.372 -0.7975 -1.2616  1.6568
11702TIP3   OH256520   0.347   6.223   0.247 -0.1774  0.1961  0.3746
11702TIP3    H156521   0.389   6.145   0.211  0.0550  1.0453 -1.3120
11702TIP3    H256522   0.259   6.194   0.272 -0.5179 -0.3652 -1.3582
11703TIP3   OH256523   6.588   6.535   1.947 -1.0131  0.0402 -0.2164
11703TIP3    H156524   6.646   6.471   1.986 -0.5177  0.8881  0.4587
11703TIP3    H256525   6.531   6.484   1.889 -0.3883 -0.9463  0.0286
11704TIP3   OH256526   2.067   6.563  15.053  0.3310  0.6158 -0.3451
11704TIP3    H156527   2.123   6.530  14.983 -0.6602 -1.1218 -0.3632
11704TIP3    H256528   2.076   6.500  15.124 -1.7982  0.1043 -0.4525
11705TIP3   OH256529   3.631   4.606  16.864  0.5573  0.1958 -0.3332
11705TIP3    H156530   3.665   4.526  16.823  1.1429  1.3242 -2.1357
11705TIP3    H256531   3.691   4.624  16.936 -0.0097 -1.3642  0.5898
11706TIP3   OH256532   1.582   1.539   3.428  0.3378 -0.6305 -0.1572
11706TIP3    H156533   1.514   1.604   3.444  0.3441 -0.2387 -1.6050
11706TIP3    H256534   1.539   1.470   3.378  1.0248 -0.2772 -1.2738
11707TIP3   OH256535   3.574   0.441  16.027 -0.0063  0.2128  0.1261
11707TIP3    H156536   3.663   0.471  16.009  0.8842 -1.8004  0.9044
11707TIP3    H256537   3.539   0.419  15.941 -0.2260  2.0768 -0.3186
11708TIP3   OH256538   3.891   1.283   0.039 -0.2040 -0.0995  0.1054
11708TIP3    H156539   3.914   1.269   0.131 -1.0466 -2.1308  0.0613
11708TIP3    H256540   3.805   1.242   0.029 -0.1369  0.0893 -1.5876
11709TIP3   OH256541   6.191   4.452  11.348  0.1984 -0.0797  0.1648
11709TIP3    H156542   6.130   4.492  11.410 -1.6762 -0.5188 -1.2973
11709TIP3    H256543   6.142   4.447  11.266  2.0668 -0.9040 -0.9690
11710TIP3   OH256544   2.444   6.328  15.028 -0.4387  0.5310 -0.2997
11710TIP3    H156545   2.363   6.342  14.979 -0.7584  1.1945  0.3925
11710TIP3    H256546   2.503   6.396  14.996 -0.1452  0.0494 -0.8018
11711TIP3   OH256547   5.524   0.368   3.774 -0.0667  0.2180 -0.0229
11711TIP3    H156548   5.463   0.368   3.848 -0.2497 -1.4445 -0.1472
11711TIP3    H256549   5.603   0.327   3.808 -0.0128 -0.1880 -0.6253
11712TIP3   OH256550   0.019   1.958   5.438 -0.9182 -0.4865 -0.8090
11712TIP3    H156551  -0.049   2.010   5.396 -0.5427  1.9714  1.4064
11712TIP3    H256552  -0.008   1.951   5.529  0.6238 -1.4993 -0.3776
11713TIP3   OH256553   3.349   3.276   2.162 -0.0591  0.2914 -1.0668
11713TIP3    H156554   3.419   3.268   2.227 -0.9990  0.0468 -0.0722
11713TIP3    H256555   3.377   3.348   2.105  0.6440  0.6865 -0.2385
11714TIP3   OH256556   0.666   1.801  15.928  0.7079  0.4702 -0.4753
11714TIP3    H156557   0.704   1.758  15.852  0.2628  2.2493 -1.7568
11714TIP3    H256558   0.591   1.746  15.951  0.2261  0.4656 -1.9716
11715TIP3   OH256559   4.148   4.138  10.660 -0.1635  0.1146  0.1348
11715TIP3    H156560   4.233   4.178  10.680 -0.7032  0.7469  1.2763
11715TIP3    H256561   4.085   4.186  10.714 -0.8063 -2.4936  1.9270
11716TIP3   OH256562   1.306   5.727  13.207  0.0922  0.0760  0.4653
11716TIP3    H156563   1.237   5.661  13.199 -1.1777  1.3918 -0.0564
11716TIP3    H256564   1.328   5.727  13.300  0.9888 -1.8847  0.2947
11717TIP3   OH256565   1.966   2.766   1.177 -0.3358 -0.4214  0.2771
11717TIP3    H156566   1.970   2.814   1.260 -1.8988  3.1316 -1.4856
11717TIP3    H256567   2.042   2.798   1.127 -0.7106 -0.7288 -0.5116
11718TIP3   OH256568   3.873   4.689   0.497  0.4975 -0.2026  0.3667
11718TIP3    H156569   3.813   4.664   0.568 -1.2134  1.0293 -0.5742
11718TIP3    H256570   3.894   4.781   0.515 -1.2149  0.6352 -1.4678
11719TIP3   OH256571   0.449   5.815  14.678  0.1600 -0.0322 -0.2886
11719TIP3    H156572   0.361   5.793  14.647  0.5213 -1.3771 -0.4037
11719TIP3    H256573   0.436   5.845  14.768 -0.3602 -0.8053 -0.0937
11720TIP3   OH256574   1.791   2.748  15.501  0.4187  0.0303 -0.2837
11720TIP3    H156575   1.765   2.765  15.410 -0.3183  1.3606  0.1458
11720TIP3    H256576   1.824   2.658  15.500 -2.7344 -1.2846 -1.2557
11721TIP3   OH256577   0.968   2.335   4.135 -0.1294 -1.1921 -0.2716
11721TIP3    H156578   0.883   2.321   4.176 -0.1004 -1.3304 -0.2568
11721TIP3    H256579   0.968   2.276   4.059 -0.5791 -0.2060 -1.0616
11722TIP3   OH256580   0.360   4.226  13.892 -0.0370  0.3888  0.9610
11722TIP3    H156581   0.371   4.254  13.983 -0.5520  0.3980  1.0260
11722TIP3    H256582   0.278   4.267  13.865  0.0712  0.3145  0.5190
11723TIP3   OH256583   3.464   6.136   0.290  0.4638  0.0225 -0.4177
11723TIP3    H156584   3.434   6.084   0.365  0.5030  0.9236  0.2312
11723TIP3    H256585   3.490   6.220   0.328  1.4493  0.1302 -1.3096
11724TIP3   OH256586   2.271   3.506   0.629  0.5535 -0.3964  0.4541
11724TIP3    H156587   2.237   3.448   0.561 -0.1381 -1.8268  1.9584
11724TIP3    H256588   2.260   3.457   0.710 -0.5099  2.0381  1.8778
11725TIP3   OH256589   1.578   3.517  15.252  0.6948  0.2669  0.3741
11725TIP3    H156590   1.516   3.531  15.323  0.5626 -0.0959  0.3323
11725TIP3    H256591   1.567   3.593  15.194 -0.2621 -0.1831 -0.0389
11726TIP3   OH256592   4.043   6.461   0.660 -0.3456  1.0390 -0.4717
11726TIP3    H156593   3.979   6.434   0.725 -1.8788 -1.5984 -2.8544
11726TIP3    H256594   4.122   6.481   0.711 -1.4686 -0.7253  2.1980
11727TIP3   OH256595   5.640   1.559  13.094  1.0214  0.2813  0.5706
11727TIP3    H156596   5.721   1.551  13.044 -0.4935  1.6332 -2.3672
11727TIP3    H256597   5.667   1.594  13.179  3.7243 -1.9250  0.7284
11728TIP3   OH256598   2.527   2.562   5.894  0.1278 -0.4352  0.1798
11728TIP3    H156599   2.487   2.553   5.980  2.3421  2.0053  1.6064
11728TIP3    H256600   2.593   2.493   5.891  2.0870  1.2335  1.8185
11729TIP3   OH256601   2.521   3.473   1.914  0.1215  0.1112 -0.0281
11729TIP3    H156602   2.604   3.432   1.887 -0.0724  0.1728 -0.7429
11729TIP3    H256603   2.547   3.538   1.979  0.6401  0.1479 -0.2652
11730TIP3   OH256604   6.157   5.247   1.343 -0.0589 -0.0510 -0.2355
11730TIP3    H156605   6.135   5.260   1.435  0.0199  0.8186 -0.3311
11730TIP3    H256606   6.080   5.206   1.305 -0.5850  0.7581 -0.0521
11731TIP3   OH256607   4.299   6.514   0.782  0.1510 -0.2305 -0.2155
11731TIP3    H156608   4.305   6.606   0.808  0.1264  0.8353 -3.5194
11731TIP3    H256609   4.384   6.495   0.742  0.1339 -1.6507  0.3804
11732TIP3   OH256610   0.030   4.134  12.043  0.1679 -0.4617  0.4000
11732TIP3    H156611  -0.023   4.078  12.099 -0.3968 -0.5567 -0.2184
11732TIP3    H256612  -0.008   4.125  11.956 -1.0341  2.1532  0.5599
11733TIP3   OH256613   6.723   0.142   2.323 -0.1749 -0.2477 -0.2461
11733TIP3    H156614   6.774   0.185   2.391  0.4335  1.0681 -1.4707
11733TIP3    H256615   6.652   0.204   2.303  1.3760  0.8450 -2.8440
11734TIP3   OH256616   2.036   4.137   4.445  0.1837 -0.5880 -0.4364
11734TIP3    H156617   2.048   4.061   4.389 -0.8517 -0.6385 -0.6161
11734TIP3    H256618   2.125   4.164   4.469  0.6275 -0.7663 -1.8105
11735TIP3   OH256619   1.912   3.025  16.833 -0.0120 -0.0400  0.0567
11735TIP3    H156620   1.900   3.119  16.846  3.6416  0.7544 -1.1970
11735TIP3    H256621   1.902   3.012  16.739 -1.3121 -1.1318  0.3086
11736TIP3   OH256622   5.461   6.293   2.786 -0.7535 -0.4075  0.3349
11736TIP3    H156623   5.367   6.310   2.789 -0.2037  3.2452  1.4694
11736TIP3    H256624   5.485   6.309   2.694 -1.1476 -1.0520  0.1085
11737TIP3   OH256625   6.585   6.403  13.986  0.3805 -0.1157 -0.1724
11737TIP3    H156626   6.531   6.395  13.907 -0.9805  1.8224  0.4757
11737TIP3    H256627   6.529   6.370  14.056  0.5014  0.7760  0.3530
11738TIP3   OH256628   2.893   4.233   3.632  0.7740 -0.2360 -0.1033
11738TIP3    H156629   2.843   4.293   3.576  0.5396 -1.9426 -1.8189
11738TIP3    H256630   2.833   4.210   3.703  0.0423 -0.2702 -0.7277
11739TIP3   OH256631   2.117   1.348   0.701  0.4095 -0.2903 -0.9227
11739TIP3    H156632   2.183   1.395   0.650 -1.1396  1.4676 -1.4156
11739TIP3    H256633   2.168   1.294   0.761  2.2881  0.2392 -1.9349
11740TIP3   OH256634   5.458   5.452   0.994  0.0937 -0.4343 -0.3024
11740TIP3    H156635   5.455   5.521   0.927  1.0123 -1.6005 -1.6189
11740TIP3    H256636   5.366   5.441   1.021 -0.4068 -0.3352 -1.8340
11741TIP3   OH256637   1.608   3.118  11.869 -0.4131  0.7155 -0.3649
11741TIP3    H156638   1.607   3.195  11.812  1.0749  1.1344  0.1370
11741TIP3    H256639   1.575   3.150  11.953 -1.7528  0.3004 -0.6991
11742TIP3   OH256640   1.091   4.756  16.640  0.5793 -0.1882  0.2068
11742TIP3    H156641   1.033   4.681  16.658  0.0101 -0.0511 -0.9627
11742TIP3    H256642   1.122   4.740  16.551  1.1989  0.4963  0.2989
11743TIP3   OH256643   0.208   1.208  11.383 -0.3333 -0.0100 -0.7911
11743TIP3    H156644   0.216   1.124  11.338 -0.9680 -1.1910  1.1688
11743TIP3    H256645   0.135   1.252  11.338 -0.4122 -0.7757 -1.4402
11744TIP3   OH256646   4.058   3.194   2.600  0.3503  0.6755  0.3692
11744TIP3    H156647   4.052   3.102   2.623 -0.7924  1.0981  1.9654
11744TIP3    H256648   4.114   3.197   2.523 -0.6735 -1.4693 -0.5236
11745TIP3   OH256649   3.972   4.338  15.232  0.5136  0.2402 -0.0087
11745TIP3    H156650   4.054   4.313  15.189  1.6001  0.4721  1.8179
11745TIP3    H256651   3.990   4.328  15.326 -1.4870  0.5225  0.4478
11746TIP3   OH256652   6.472   4.993   6.362  0.1201  0.1596  0.2013
11746TIP3    H156653   6.387   5.031   6.339  0.0807  0.0599  0.1843
11746TIP3    H256654   6.535   5.045   6.312  0.0145 -0.2415 -0.3606
11747TIP3   OH256655   3.409   5.915  14.126 -0.1896 -0.0160  0.1091
11747TIP3    H156656   3.384   5.986  14.185 -0.1710  0.4484 -0.4337
11747TIP3    H256657   3.325   5.880  14.094 -0.1908  0.6369 -0.6425
11748TIP3   OH256658   5.309   1.465   4.783 -0.1908  0.0626 -0.5085
11748TIP3    H156659   5.293   1.388   4.837 -0.8731  0.1408 -0.5966
11748TIP3    H256660   5.405   1.471   4.779 -0.1298 -0.5915 -0.2400
11749TIP3   OH256661   3.913   4.930  16.364  0.0244 -0.0205  0.4002
11749TIP3    H156662   3.933   4.963  16.276  0.1475  0.8708  0.7561
11749TIP3    H256663   3.886   5.007  16.413 -0.4206 -0.5781  1.0438
11750TIP3   OH256664   2.441   0.636   1.902 -0.2549 -1.0074 -0.5647
11750TIP3    H156665   2.409   0.726   1.910  0.3107 -0.9231  1.1761
11750TIP3    H256666   2.487   0.635   1.818 -0.7919  0.1504 -0.8978
11751TIP3   OH256667   3.392   2.506  12.047  0.6292  0.1634 -0.3268
11751TIP3    H156668   3.347   2.585  12.019 -1.3818 -1.3276 -1.5151
11751TIP3    H256669   3.393   2.449  11.970  0.2410 -1.7552  0.9993
11752TIP3   OH256670   1.861   3.820   2.403  0.3465  0.4063 -0.7397
11752TIP3    H156671   1.918   3.743   2.401 -0.8102 -0.5752  1.1292
11752TIP3    H256672   1.911   3.886   2.450 -0.0859 -0.5387  1.1301
11753TIP3   OH256673   0.287   1.156   2.802 -0.6326 -0.3051  0.0203
11753TIP3    H156674   0.201   1.172   2.841 -0.7619 -0.4770 -0.1947
11753TIP3    H256675   0.276   1.176   2.710  0.3514  2.7180  0.4586
11754TIP3   OH256676   5.761   4.614  16.652  0.7455 -0.4024  0.0181
11754TIP3    H156677   5.737   4.590  16.742 -1.3737 -0.3017 -0.4689
11754TIP3    H256678   5.825   4.684  16.662 -0.7398  0.8230  1.5056
11755TIP3   OH256679   3.325   2.387   1.696 -0.0520  0.3075  0.2345
11755TIP3    H156680   3.368   2.410   1.613 -1.6790 -1.6802 -1.2713
11755TIP3    H256681   3.271   2.311   1.675 -0.5077 -0.3148  3.1705
11756TIP3   OH256682   3.674   2.602  14.031  0.2269  0.6312  0.4446
11756TIP3    H156683   3.608   2.545  13.992  1.8475 -1.8312  1.0676
11756TIP3    H256684   3.627   2.651  14.098 -1.2978  0.1614 -0.2488
11757TIP3   OH256685   4.663   1.396   3.084 -0.2495  0.1079 -0.0830
11757TIP3    H156686   4.647   1.349   3.166 -1.7083  1.0115  0.1976
11757TIP3    H256687   4.650   1.331   3.015  1.2663 -0.7327  0.3738
11758TIP3   OH256688   3.315   2.910   4.420 -0.0663 -0.1316  0.1259
11758TIP3    H156689   3.388   2.961   4.387  0.8999 -1.6712 -0.2327
11758TIP3    H256690   3.322   2.914   4.515 -0.7996  1.4609  0.1395
11759TIP3   OH256691   6.767   2.339   3.515  0.1182 -0.1908 -1.0724
11759TIP3    H156692   6.702   2.406   3.534 -1.2704 -1.5843 -0.6879
11759TIP3    H256693   6.797   2.310   3.602 -0.2076 -0.9121 -1.1945
11760TIP3   OH256694   4.903   3.197  15.564  0.3430  0.0675  0.7170
11760TIP3    H156695   4.961   3.133  15.607  1.1737  0.2705 -0.0863
11760TIP3    H256696   4.951   3.226  15.487 -1.1295 -0.3151 -0.4128
11761TIP3   OH256697   5.869   5.463   5.603  0.2164  0.1157  0.0262
11761TIP3    H156698   5.918   5.542   5.626  0.4127 -0.5536  2.1239
11761TIP3    H256699   5.787   5.471   5.653 -0.5577 -0.1665 -1.1710
11762TIP3   OH256700   1.795   4.419   5.700  0.2705  0.5369 -0.1274
11762TIP3    H156701   1.721   4.428   5.760 -0.5515  0.2102 -1.0607
11762TIP3    H256702   1.773   4.477   5.627 -0.6247 -1.8294 -1.8827
11763TIP3   OH256703   2.037   4.982  11.760  0.5396  0.3846  0.1456
11763TIP3    H156704   2.035   4.904  11.815 -0.8967  0.0663 -0.3293
11763TIP3    H256705   1.987   5.047  11.809  1.1374  0.8011  0.2162
11764TIP3   OH256706   2.356   6.009   3.750 -0.6616 -0.4627 -0.2384
11764TIP3    H156707   2.335   5.916   3.763  1.3773 -0.8257  0.9200
11764TIP3    H256708   2.282   6.056   3.790 -0.1744 -1.6367  2.2326
11765TIP3   OH256709   0.564   0.418  16.013 -0.2700  0.5695 -0.6526
11765TIP3    H156710   0.651   0.436  15.978  0.5591  0.1319  1.0422
11765TIP3    H256711   0.521   0.504  16.015  0.2932  0.8668 -1.0982
11766TIP3   OH256712   2.660   4.761  12.118  0.6222  0.4632 -0.1563
11766TIP3    H156713   2.739   4.801  12.081  0.1115  2.2712  0.5573
11766TIP3    H256714   2.625   4.829  12.177 -0.6518 -0.8603  0.6745
11767TIP3   OH256715   4.706   3.113   0.957  0.7431 -0.0685 -0.5342
11767TIP3    H156716   4.732   3.167   0.882 -1.2797  1.7073 -0.0624
11767TIP3    H256717   4.717   3.023   0.928 -1.1874  0.5213 -3.4827
11768TIP3   OH256718   2.741   6.384  14.326 -0.4525  0.2549  0.3316
11768TIP3    H156719   2.679   6.449  14.359 -1.1488 -0.3023  0.1575
11768TIP3    H256720   2.700   6.300  14.348 -1.1744 -0.1604 -2.2710
11769TIP3   OH256721   3.759   6.632  15.060  0.7167 -0.0865  0.2984
11769TIP3    H156722   3.715   6.657  15.142  0.5802 -0.2256  0.2693
11769TIP3    H256723   3.773   6.714  15.014  2.1398  0.1595  1.1194
11770TIP3   OH256724   4.380   1.450  12.413 -0.1290 -0.5077 -0.0154
11770TIP3    H156725   4.304   1.491  12.372 -1.3652 -0.4065  2.2161
11770TIP3    H256726   4.366   1.356  12.399  0.5261 -0.3986 -1.5260
11771TIP3   OH256727   0.857   1.339   0.660  0.0599 -0.3606  0.4421
11771TIP3    H156728   0.915   1.275   0.619 -0.0423  0.2296 -0.6633
11771TIP3    H256729   0.853   1.313   0.751  2.7500  0.0753  0.7536
11772TIP3   OH256730   0.716   6.462  16.831 -0.4715  0.3693  0.1876
11772TIP3    H156731   0.630   6.444  16.869 -1.9084  2.0170 -2.0295
11772TIP3    H256732   0.713   6.421  16.745  2.1398 -2.0088  1.0746
11773TIP3   OH256733   6.485   2.299   0.358  0.3068  0.3306  0.3428
11773TIP3    H156734   6.463   2.367   0.294  0.6110 -0.3174 -0.4563
11773TIP3    H256735   6.400   2.269   0.391  0.0666 -0.4752 -0.9597
11774TIP3   OH256736   5.952   1.014  12.722  1.3225 -0.2068  0.0840
11774TIP3    H156737   6.011   1.089  12.722  1.2413 -0.1361  0.5178
11774TIP3    H256738   5.971   0.967  12.641  1.8223 -0.0675  0.1192
11775TIP3   OH256739   4.371   4.601  11.200  0.0617  0.0668  0.7817
11775TIP3    H156740   4.306   4.534  11.218  0.9479 -1.2401 -0.6514
11775TIP3    H256741   4.327   4.663  11.142 -0.0567 -0.5601  0.1965
11776TIP3   OH256742   4.623   4.624  14.891  0.3760 -0.6004  0.0145
11776TIP3    H156743   4.577   4.558  14.839  0.3233  0.2685 -1.0823
11776TIP3    H256744   4.593   4.708  14.856  0.7475  0.0116  1.1065
11777TIP3   OH256745   3.345   1.505   3.847  0.0332 -0.4379 -0.1959
11777TIP3    H156746   3.410   1.542   3.788  0.6367 -0.7781  0.2416
11777TIP3    H256747   3.301   1.437   3.795 -1.2107  0.9587 -1.0652
11778TIP3   OH256748   2.121   4.377  16.163 -0.0093  0.3031  0.2146
11778TIP3    H156749   2.129   4.322  16.085 -0.8179 -0.9781  0.9927
11778TIP3    H256750   2.047   4.435  16.143  0.1234  0.3415 -0.1746
11779TIP3   OH256751   3.961   3.478  15.659  0.3090 -0.2180 -0.0925
11779TIP3    H156752   3.942   3.477  15.565 -0.6590 -1.2704  0.0860
11779TIP3    H256753   4.013   3.557  15.673  0.8016 -0.2598 -1.5755
11780TIP3   OH256754   2.286   3.363  11.362  0.0993  0.0021  0.0510
11780TIP3    H156755   2.240   3.350  11.445 -0.9421  1.9303 -0.1641
11780TIP3    H256756   2.349   3.432  11.381 -0.2162  0.5306 -0.7827
11781TIP3   OH256757   4.452   4.891   0.873 -0.5254 -0.0588  0.1939
11781TIP3    H156758   4.526   4.848   0.915 -0.5378 -2.0412 -1.6397
11781TIP3    H256759   4.491   4.950   0.809 -0.5505  1.0488  1.1547
11782TIP3   OH256760   2.782   4.033  12.579 -0.0054  0.2713 -0.1753
11782TIP3    H156761   2.777   3.991  12.665  1.9994 -0.1314 -0.2092
11782TIP3    H256762   2.869   4.072  12.577 -0.9500  2.5213 -1.0499
11783TIP3   OH256763   3.152   4.226  13.507 -0.1810  0.4101  0.0580
11783TIP3    H156764   3.102   4.234  13.588  1.3232  0.9498  0.9798
11783TIP3    H256765   3.134   4.137  13.476 -2.6230  0.9680 -0.3243
11784TIP3   OH256766   0.060   0.982   5.142  0.0248 -0.0986  0.3670
11784TIP3    H156767  -0.011   0.932   5.182  0.5173  0.6464  2.3108
11784TIP3    H256768   0.133   0.972   5.203  0.5854  1.7287  0.0599
11785TIP3   OH256769   5.271   0.425   0.435  0.3193 -0.1641  0.1151
11785TIP3    H156770   5.184   0.458   0.458  0.0841 -1.7144  1.6805
11785TIP3    H256771   5.299   0.376   0.513  2.6856  0.4582 -0.2703
11786TIP3   OH256772   5.133   5.408   5.557  0.4281  0.6557  0.0281
11786TIP3    H156773   5.205   5.443   5.608 -0.0319  1.2379  0.2827
11786TIP3    H256774   5.102   5.332   5.607  1.5509 -0.2771 -0.6251
11787TIP3   OH256775   6.467   0.279   2.508  0.5596 -0.1862  0.6231
11787TIP3    H156776   6.528   0.246   2.574  3.1382  1.4914 -0.7241
11787TIP3    H256777   6.398   0.321   2.558  0.6398 -1.8598  2.2418
11788TIP3   OH256778   3.078   3.293   5.626  0.4035 -0.2368 -0.0937
11788TIP3    H156779   3.071   3.205   5.591  0.5556 -0.0830 -0.5166
11788TIP3    H256780   3.049   3.285   5.717  1.3144 -0.9087  0.1550
11789TIP3   OH256781   6.770   4.248   2.791  0.1686  0.3220 -0.7642
11789TIP3    H156782   6.752   4.167   2.839 -0.8296  0.5394 -0.7431
11789TIP3    H256783   6.838   4.292   2.842 -0.7999  0.4963  0.4139
11790TIP3   OH256784   4.685   2.213  11.987 -0.2680 -0.2758 -0.4171
11790TIP3    H156785   4.720   2.293  11.948 -0.0492  0.8214  1.8354
11790TIP3    H256786   4.757   2.151  11.982  1.1794  1.0824  1.6523
11791TIP3   OH256787   4.424   2.620   2.458  0.3850  0.4397 -0.0222
11791TIP3    H156788   4.495   2.629   2.394  1.2009  0.2526  0.8243
11791TIP3    H256789   4.455   2.552   2.518 -0.9768 -0.3977 -0.2131
11792TIP3   OH256790   1.552   3.936   3.291 -0.3392  0.0248 -0.1580
11792TIP3    H156791   1.532   3.907   3.203 -0.0143  0.9285 -0.5457
11792TIP3    H256792   1.630   3.886   3.317 -0.0924  0.1726 -0.6091
11793TIP3   OH256793   4.597   4.965   6.504 -1.1195 -0.6501 -0.0215
11793TIP3    H156794   4.636   5.046   6.539  0.5017 -1.4414  0.1127
11793TIP3    H256795   4.520   4.950   6.559 -0.9173  0.3045  0.5532
11794TIP3   OH256796   6.608   3.916   3.603  0.1190 -0.2881  0.0225
11794TIP3    H156797   6.570   3.953   3.683  2.9546  0.0340  1.3509
11794TIP3    H256798   6.590   3.822   3.609 -0.9181 -0.0761  0.3149
11795TIP3   OH256799   5.996   2.809   5.478 -0.1563  0.1852  0.5914
11795TIP3    H156800   5.979   2.733   5.534  0.1851 -0.0821  0.3308
11795TIP3    H256801   5.931   2.802   5.408  0.8682 -0.7397 -0.3071
11796TIP3   OH256802   4.381   6.513  10.609 -0.0352  0.1116  0.0975
11796TIP3    H156803   4.393   6.423  10.577  1.5306  1.3640 -3.4823
11796TIP3    H256804   4.297   6.540  10.572  1.4595  1.3433 -2.7446
11797TIP3   OH256805   6.406   0.048  16.323  0.0482 -0.3008 -0.1820
11797TIP3    H156806   6.386   0.135  16.358  3.1266  1.8878 -3.2048
11797TIP3    H256807   6.501   0.039  16.333  0.1671 -2.1781 -2.2504
11798TIP3   OH256808   6.456   0.322  15.396 -0.0171  0.2123 -0.1444
11798TIP3    H156809   6.465   0.228  15.408  0.8487  0.0232 -1.9527
11798TIP3    H256810   6.540   0.350  15.360 -0.1315  1.7541  0.6580
11799TIP3   OH256811   3.706   3.013   2.044 -0.2281 -0.9674 -0.0778
11799TIP3    H156812   3.788   2.967   2.063  0.9213  1.5079  1.5182
11799TIP3    H256813   3.657   3.009   2.127  0.5558  1.7302  0.6316
11800TIP3   OH256814   3.119   5.587   4.911  0.0719 -0.1424  0.5550
11800TIP3    H156815   3.140   5.560   4.821  0.2462 -1.0774  0.8584
11800TIP3    H256816   3.025   5.569   4.920 -0.1500  0.8187  0.2800
11801TIP3   OH256817   2.634   2.834  15.258 -0.0019  0.7170 -0.4765
11801TIP3    H156818   2.619   2.839  15.352 -0.0827  1.5950 -0.5305
11801TIP3    H256819   2.700   2.901  15.240  1.5130 -0.7838 -0.7623
11802TIP3   OH256820   2.922   3.363  11.708  0.0103  0.3147 -0.3502
11802TIP3    H156821   2.855   3.296  11.695  0.4758  0.1126 -1.8526
11802TIP3    H256822   2.903   3.400  11.794 -2.5012  0.7780 -1.0366
11803TIP3   OH256823   2.698   2.198   4.137 -0.6598  0.0776  0.1872
11803TIP3    H156824   2.785   2.159   4.136 -0.5633  0.2750 -1.2245
11803TIP3    H256825   2.674   2.203   4.230  1.0445  0.5262  0.6275
11804TIP3   OH256826   3.547   3.466   2.800  0.1159 -0.3778 -0.6556
11804TIP3    H156827   3.474   3.528   2.798 -0.0449 -0.5578 -0.4308
11804TIP3    H256828   3.507   3.383   2.827  0.1547 -0.8104 -1.8643
11805TIP3   OH256829   5.572   6.660   2.930 -0.4130 -0.2464  0.2906
11805TIP3    H156830   5.594   6.707   2.849 -0.3799  1.0221  1.0004
11805TIP3    H256831   5.487   6.695   2.955 -0.4557 -0.6827  0.7646
11806TIP3   OH256832   4.514   5.245  14.113 -0.2509  0.1151 -0.0469
11806TIP3    H156833   4.596   5.285  14.142  1.9027 -2.1029 -2.4666
11806TIP3    H256834   4.517   5.157  14.150 -0.6919 -0.5140 -1.4357
11807TIP3   OH256835   1.133   5.570  11.546 -0.3631  0.6332 -0.2539
11807TIP3    H156836   1.146   5.566  11.451 -0.0193 -0.1146 -0.1828
11807TIP3    H256837   1.103   5.659  11.563  0.5201  1.0711 -0.9470
11808TIP3   OH256838   0.796   2.054   2.056  0.7016 -0.4428 -0.8059
11808TIP3    H156839   0.836   1.968   2.068  2.3209  0.4176  0.2915
11808TIP3    H256840   0.743   2.068   2.134 -0.3611 -0.8152 -1.4311
11809TIP3   OH256841   0.786   0.741   1.113  0.0659 -0.3583 -0.3474
11809TIP3    H156842   0.876   0.724   1.086  0.1453 -0.4736 -0.0114
11809TIP3    H256843   0.746   0.783   1.037  0.4797 -0.0426 -0.3911
11810TIP3   OH256844   1.081   3.813  14.433  0.6196  0.1608  0.4610
11810TIP3    H156845   1.045   3.726  14.454  2.8778 -1.1431 -0.6016
11810TIP3    H256846   1.163   3.817  14.483  1.2059  1.0988 -0.5348
11811TIP3   OH256847   0.182   0.485  13.689  0.0594 -0.5854 -0.1673
11811TIP3    H156848   0.152   0.520  13.605 -0.7282 -0.4704  0.1546
11811TIP3    H256849   0.276   0.472  13.677 -0.3070 -2.2422 -1.6608
11812TIP3   OH256850   5.310   6.668  16.522  0.4919 -0.1770  0.1413
11812TIP3    H156851   5.335   6.724  16.596 -0.7810  0.2240  0.2948
11812TIP3    H256852   5.341   6.716  16.445  0.0623  0.3885  0.3128
11813TIP3   OH256853   1.662   0.085  12.688 -0.3399 -0.0898 -0.1288
11813TIP3    H156854   1.711   0.021  12.740 -0.1041  0.6863  0.6328
11813TIP3    H256855   1.570   0.060  12.701 -0.3623  0.6620  1.5111
11814TIP3   OH256856   5.633   1.100   2.692 -0.0230 -0.1165  0.1378
11814TIP3    H156857   5.565   1.167   2.681  0.2885  0.3089  0.7983
11814TIP3    H256858   5.701   1.124   2.630 -0.3428 -0.3972 -0.3392
11815TIP3   OH256859   6.627   1.917   1.492 -0.4972  0.3170 -0.1385
11815TIP3    H156860   6.641   1.835   1.445 -1.2278  0.6597 -0.9713
11815TIP3    H256861   6.613   1.982   1.423  1.0780  1.3531  0.4630
11816TIP3   OH256862   0.739   6.322  12.987  0.0579 -0.0225  0.3006
11816TIP3    H156863   0.767   6.270  13.062  0.6986 -1.6915 -1.0381
11816TIP3    H256864   0.714   6.258  12.922 -1.1311  1.3992 -0.7033
11817TIP3   OH256865   5.383   5.556   4.828  0.7363  0.6342  0.1081
11817TIP3    H156866   5.443   5.519   4.763 -1.5321 -1.7680 -0.8330
11817TIP3    H256867   5.399   5.505   4.907 -1.3093 -1.5250 -0.7396
11818TIP3   OH256868   4.042   1.087   5.190 -0.3314 -0.3919  0.0037
11818TIP3    H156869   3.981   1.049   5.253 -0.4830  1.1750  0.8646
11818TIP3    H256870   3.986   1.117   5.118 -0.2726 -1.2674 -0.4136
11819TIP3   OH256871   4.728   5.102   5.847 -0.2007 -0.2362  0.0076
11819TIP3    H156872   4.778   5.055   5.914 -0.4436  0.1590  0.4749
11819TIP3    H256873   4.754   5.194   5.858 -0.6820 -0.0899 -0.0393
11820TIP3   OH256874   1.233   3.169  12.597 -0.0132 -0.5618 -0.0123
11820TIP3    H156875   1.263   3.256  12.570  0.5195 -0.3642  1.1500
11820TIP3    H256876   1.286   3.109  12.544 -0.4891 -0.1943 -0.9288
11821TIP3   OH256877   6.818   2.675   5.936 -0.1106  0.3349 -0.1865
11821TIP3    H156878   6.888   2.723   5.891 -0.0409 -0.9316 -1.5084
11821TIP3    H256879   6.784   2.737   6.000  1.4008  1.4033 -0.3507
11822TIP3   OH256880   4.465   6.545  12.351  0.0155 -0.6918 -0.0041
11822TIP3    H156881   4.382   6.505  12.376 -0.1745 -2.2360 -2.7194
11822TIP3    H256882   4.531   6.491  12.393 -0.3245 -2.1039 -1.1877
11823TIP3   OH256883   2.152   6.361   0.748  0.4232  0.3680 -0.1415
11823TIP3    H156884   2.212   6.416   0.698 -0.7142  2.1908  0.4125
11823TIP3    H256885   2.172   6.381   0.839  1.0734 -1.3923  0.1531
11824TIP3   OH256886   2.830   3.973  16.200 -0.1682 -0.0562 -0.1340
11824TIP3    H156887   2.750   3.991  16.248 -0.8756  1.4969 -1.7903
11824TIP3    H256888   2.832   3.878  16.191 -1.2200 -0.1982  0.9063
11825TIP3   OH256889   3.091   0.922  13.948  0.1129  0.2330  0.3297
11825TIP3    H156890   3.045   0.924  13.864 -2.8443  1.1973  1.8251
11825TIP3    H256891   3.113   0.830  13.962  0.5594  0.0416 -1.4028
11826TIP3   OH256892   4.672   0.032  16.113  0.7260 -0.4721  0.4191
11826TIP3    H156893   4.599  -0.007  16.064  1.1099 -0.9282  0.2037
11826TIP3    H256894   4.730  -0.041  16.132 -0.0964 -0.5836  2.8147
11827TIP3   OH256895   4.393   5.381   4.838 -0.0597  0.0777  0.7950
11827TIP3    H156896   4.444   5.450   4.880 -0.3360 -0.0226  1.2985
11827TIP3    H256897   4.433   5.372   4.751 -0.9949  1.9496  0.1115
11828TIP3   OH256898   4.287   4.076   2.542 -0.0605  0.0153  0.0530
11828TIP3    H156899   4.360   4.049   2.598  0.7257  0.7461 -0.5897
11828TIP3    H256900   4.209   4.053   2.591  0.6107 -0.0287  1.1280
11829TIP3   OH256901   4.737   2.308   5.876 -0.0740 -0.3809 -0.8777
11829TIP3    H156902   4.695   2.232   5.916  0.4496 -1.2678 -1.9529
11829TIP3    H256903   4.829   2.282   5.865  0.0075  0.2203 -1.6939
11830TIP3   OH256904   1.125   2.007  16.974  0.7297 -0.1227  0.1083
11830TIP3    H156905   1.146   1.915  16.963 -1.6725 -0.5125 -2.2088
11830TIP3    H256906   1.030   2.009  16.987  0.9324  1.9416  1.7666
11831TIP3   OH256907   1.891   1.354  10.736 -0.7794 -0.4556  0.5735
11831TIP3    H156908   1.958   1.412  10.772  0.1577 -0.6834 -0.7036
11831TIP3    H256909   1.915   1.345  10.643 -0.9975 -2.7155  0.6745
11832TIP3   OH256910   3.008   1.287  12.143  1.0765 -0.7635  0.0875
11832TIP3    H156911   3.068   1.337  12.087  0.2083  0.0434 -0.1475
11832TIP3    H256912   2.957   1.353  12.189  1.4432 -1.4315  1.4978
11833TIP3   OH256913   3.317   2.299  11.849  0.1382  0.3716 -0.0170
11833TIP3    H156914   3.354   2.235  11.910  1.6776 -1.6223 -2.8305
11833TIP3    H256915   3.230   2.265  11.829 -0.4412  1.1276  1.1517
11834TIP3   OH256916   3.734   3.778   5.945  0.0877 -0.3752 -1.0327
11834TIP3    H156917   3.712   3.685   5.952 -1.2747 -0.0727 -1.0079
11834TIP3    H256918   3.653   3.820   5.918  0.2518  1.0124  0.4658
11835TIP3   OH256919   3.937   6.803   1.369  0.3516  0.1613  0.4326
11835TIP3    H156920   3.897   6.870   1.423  0.2913  0.5546 -0.0881
11835TIP3    H256921   3.880   6.727   1.377  0.5657  0.0790  1.2397
11836TIP3   OH256922   0.617   2.231   5.705 -0.6201  0.0161  0.5644
11836TIP3    H156923   0.569   2.178   5.769 -2.5578 -0.3405 -1.0856
11836TIP3    H256924   0.570   2.218   5.623  0.5900  2.0157 -0.5312
11837TIP3   OH256925   0.708   1.142   4.741  0.2017  0.0821  0.1086
11837TIP3    H156926   0.728   1.234   4.727 -0.8433  0.2067 -0.6330
11837TIP3    H256927   0.758   1.096   4.674 -0.1374  0.2039 -0.2315
11838TIP3   OH256928   3.389   3.518   5.331  0.1891 -0.1574 -0.2790
11838TIP3    H156929   3.426   3.605   5.350  2.3282 -0.8144 -1.0747
11838TIP3    H256930   3.310   3.513   5.384  0.6025  1.8569  0.6279
11839TIP3   OH256931   6.740   4.184   4.143  0.5404  0.0732  0.5415
11839TIP3    H156932   6.829   4.218   4.136  1.2172 -1.8612 -1.4532
11839TIP3    H256933   6.697   4.211   4.063  0.3755 -1.6362  0.0054
11840TIP3   OH256934   0.526   3.202  11.669 -0.1186  0.1701 -0.0935
11840TIP3    H156935   0.504   3.119  11.626  3.8279 -1.2418  0.1634
11840TIP3    H256936   0.475   3.201  11.751 -0.8611 -1.5431 -0.5329
11841TIP3   OH256937   6.619   5.426   2.539  0.6108  0.7043 -0.1338
11841TIP3    H156938   6.626   5.335   2.567 -1.8369  0.2698 -0.7400
11841TIP3    H256939   6.531   5.434   2.504  1.7709  2.4859 -3.0788
11842TIP3   OH256940   4.792   0.127  15.536 -0.4140 -0.6984 -0.1368
11842TIP3    H156941   4.803   0.212  15.494 -0.1574 -0.7189 -0.1085
11842TIP3    H256942   4.752   0.147  15.621  0.8162 -0.4995  0.4094
11843TIP3   OH256943   3.643   0.008  13.565 -0.2225 -0.1159  0.3047
11843TIP3    H156944   3.655   0.057  13.647  1.2933  1.3249 -0.7251
11843TIP3    H256945   3.726   0.020  13.518  0.2318 -3.7054 -0.0361
11844TIP3   OH256946   5.455   2.581  11.923 -0.3682 -0.1780 -0.3554
11844TIP3    H156947   5.420   2.495  11.943 -2.0704  0.8731  1.5760
11844TIP3    H256948   5.395   2.617  11.858  0.8090 -0.6942 -1.7897
11845TIP3   OH256949   1.722   5.103   4.972 -0.2375  0.5909  0.6791
11845TIP3    H156950   1.752   5.144   4.890  0.6756 -0.1989  0.6075
11845TIP3    H256951   1.749   5.164   5.041  1.9462 -0.2832  0.6536
11846TIP3   OH256952   3.196   5.715   1.602 -0.4115  0.0572  0.2466
11846TIP3    H156953   3.282   5.721   1.643  0.3585 -0.4578 -1.2101
11846TIP3    H256954   3.209   5.749   1.513 -1.4573 -0.9641 -0.3334
11847TIP3   OH256955   4.575   3.575  12.311  0.0885  0.4840 -0.6264
11847TIP3    H156956   4.601   3.660  12.277  0.2130  1.3076  1.3801
11847TIP3    H256957   4.482   3.584  12.331 -0.0139 -0.0163 -0.8514
11848TIP3   OH256958   1.042   3.922   6.556  0.4005 -0.0072 -0.4641
11848TIP3    H156959   0.991   4.001   6.535  0.4363  1.3795  3.7426
11848TIP3    H256960   1.123   3.955   6.595  0.2452 -2.0613  1.8311
11849TIP3   OH256961   4.775   4.541  16.209  0.3837 -0.0884 -0.0053
11849TIP3    H156962   4.766   4.559  16.302  2.4558  0.5404  0.1329
11849TIP3    H256963   4.706   4.592  16.167 -0.0252  0.2947  1.1195
11850TIP3   OH256964   3.641   3.834  11.484 -0.0124 -0.0021 -0.2158
11850TIP3    H156965   3.702   3.764  11.506  0.4010  0.4531  0.1167
11850TIP3    H256966   3.560   3.789  11.460 -0.1011 -0.5564  1.0610
11851TIP3   OH256967   4.194   0.985   4.724 -0.2886  0.3908  0.7411
11851TIP3    H156968   4.280   0.970   4.684 -1.1503 -1.9182 -0.4475
11851TIP3    H256969   4.214   1.007   4.815  1.5742  0.1218  0.4475
11852TIP3   OH256970   0.503   3.074   0.622 -0.0722  0.4742 -0.2508
11852TIP3    H156971   0.471   3.127   0.550 -1.3675  0.6370  0.4044
11852TIP3    H256972   0.574   3.125   0.661 -0.6449  1.2747 -0.2371
11853TIP3   OH256973   1.541   2.644   4.053 -0.1657  0.4294  0.3860
11853TIP3    H156974   1.480   2.575   4.025 -0.3700 -0.3205  2.4794
11853TIP3    H256975   1.541   2.706   3.981 -0.8560 -1.1986 -1.1023
11854TIP3   OH256976   2.254   1.920   0.914 -0.4650 -0.4926 -0.1301
11854TIP3    H156977   2.258   1.837   0.961 -0.6958  0.4439  1.6079
11854TIP3    H256978   2.171   1.959   0.940  0.8178  1.4818  1.2516
11855TIP3   OH256979   1.944   4.753   4.830  0.6352  0.1914  0.0848
11855TIP3    H156980   2.015   4.817   4.819 -0.4544  1.4924  0.4042
11855TIP3    H256981   1.868   4.794   4.790 -0.8021  0.3703  2.7388
11856TIP3   OH256982   3.033   1.577   2.628 -0.5987  0.3988 -0.0897
11856TIP3    H156983   3.042   1.482   2.640 -1.6322  0.2990 -0.0774
11856TIP3    H256984   3.123   1.607   2.612 -0.0814 -0.4046  1.1275
11857TIP3   OH256985   4.366   4.587  12.681  0.1884 -0.0039  0.4676
11857TIP3    H156986   4.422   4.552  12.750  1.0970  0.4872  0.0046
11857TIP3    H256987   4.375   4.524  12.609 -1.7970 -1.2235  1.2264
11858TIP3   OH256988   6.092   0.188  11.429  0.3096 -0.3685 -0.5636
11858TIP3    H156989   6.081   0.118  11.494  0.1590  1.0922  1.0477
11858TIP3    H256990   6.091   0.142  11.345 -1.8736 -2.0954  0.2974
11859TIP3   OH256991   6.622   2.253  16.813 -0.1709 -0.1243  0.2897
11859TIP3    H156992   6.559   2.188  16.783 -0.3683  0.5570 -0.8184
11859TIP3    H256993   6.675   2.273  16.735 -0.7662  1.7694  0.3093
11860TIP3   OH256994   0.935   2.318  11.668  0.2436 -0.4115 -0.0173
11860TIP3    H156995   0.888   2.344  11.747 -0.9298  0.9613 -1.1050
11860TIP3    H256996   0.967   2.230  11.687 -0.7446 -0.4595  1.6476
11861TIP3   OH256997   6.557   6.757   0.752 -0.0510  0.8963  0.2188
11861TIP3    H156998   6.470   6.756   0.791 -0.2758 -0.5101 -0.2777
11861TIP3    H256999   6.542   6.778   0.660  0.1953  1.1748  0.2397
11862TIP3   OH257000   6.632   4.105  14.830 -0.2166  0.0053 -0.2296
11862TIP3    H157001   6.668   4.146  14.909 -1.0535  1.6302 -0.6419
11862TIP3    H257002   6.560   4.052  14.861 -1.1026  1.3265  0.0558
11863TIP3   OH257003   1.959   3.940  15.493  0.1364 -0.6163  0.4334
11863TIP3    H157004   1.977   3.946  15.586  1.1834 -2.1741  0.3731
11863TIP3    H257005   2.045   3.946  15.451 -0.2102 -0.9936 -0.3595
11864TIP3   OH257006   2.631   3.403   4.050 -0.5713 -0.0365 -0.3906
11864TIP3    H157007   2.710   3.352   4.036 -0.8263 -0.5731  0.1045
11864TIP3    H257008   2.571   3.343   4.094 -1.2737  0.3443 -0.8024
11865TIP3   OH257009   6.326   2.197   1.019 -0.3334 -0.3134 -0.0356
11865TIP3    H157010   6.345   2.151   0.937 -0.4584 -0.9876  0.3057
11865TIP3    H257011   6.389   2.161   1.082 -0.1732  0.2700  0.1463
11866TIP3   OH257012   6.246   1.999  15.267  0.7878 -0.0101 -0.2842
11866TIP3    H157013   6.261   2.085  15.305 -0.0126  1.8028 -3.7142
11866TIP3    H257014   6.333   1.970  15.239  1.0623 -0.3810  0.9005
11867TIP3   OH257015   2.602   1.314  11.259 -0.6099 -0.0689 -0.0726
11867TIP3    H157016   2.635   1.382  11.317 -2.4574  0.9279 -0.1056
11867TIP3    H257017   2.650   1.235  11.285  0.7411  0.9781  0.7555
11868TIP3   OH257018   3.293   4.566  15.646  0.2595 -0.2669 -0.4415
11868TIP3    H157019   3.249   4.610  15.573 -0.7598 -0.7609 -0.1368
11868TIP3    H257020   3.293   4.474  15.622  0.8633 -0.3153 -0.2843
11869TIP3   OH257021   0.479   3.162  14.047  0.0470  0.3895  0.2689
11869TIP3    H157022   0.506   3.167  14.138  1.3750 -0.8147 -0.0235
11869TIP3    H257023   0.505   3.246  14.010  1.5548  0.0702  0.5151
11870TIP3   OH257024   4.707   6.446   4.576  0.6181 -0.2138 -0.4434
11870TIP3    H157025   4.793   6.479   4.551  0.2815  0.3572 -0.8986
11870TIP3    H257026   4.692   6.481   4.664  0.6363  0.1322 -0.5749
11871TIP3   OH257027   3.991   1.193  15.437  0.2491 -0.1854  0.0026
11871TIP3    H157028   4.008   1.258  15.506 -1.0478 -1.0984  1.2295
11871TIP3    H257029   4.071   1.194  15.384  0.8867  1.2706  0.9071
11872TIP3   OH257030   5.764   2.582   1.116  0.6360  0.1494 -0.5487
11872TIP3    H157031   5.759   2.642   1.191  2.0276 -0.3986  0.0077
11872TIP3    H257032   5.856   2.584   1.090  0.7196 -1.7147 -0.5294
11873TIP3   OH257033   4.978   1.157   2.505  0.5421 -0.3866  0.0182
11873TIP3    H157034   4.913   1.098   2.467  0.0148  0.0426  0.2440
11873TIP3    H257035   5.032   1.102   2.561  1.3449 -1.0466 -1.3377
11874TIP3   OH257036   4.749   0.567  11.063  0.5780  0.0132 -0.9553
11874TIP3    H157037   4.664   0.553  11.103  0.4203 -3.1322 -2.1575
11874TIP3    H257038   4.735   0.552  10.970  2.2845  0.3867 -1.3152
11875TIP3   OH257039   6.003   0.926   1.581  0.1859  0.5271  0.0130
11875TIP3    H157040   5.923   0.895   1.538  0.0218  0.4753  0.3562
11875TIP3    H257041   5.978   0.937   1.673  0.7928 -0.2842  0.2831
11876TIP3   OH257042   1.861   2.719  12.046 -0.7404 -0.5271 -0.0798
11876TIP3    H157043   1.841   2.639  12.094 -0.8370 -0.5121 -0.0945
11876TIP3    H257044   1.803   2.717  11.971 -0.3465 -0.7205 -0.3810
11877TIP3   OH257045   5.098   1.124   3.077 -0.7764 -0.1936 -0.1866
11877TIP3    H157046   5.039   1.087   3.012 -1.1407 -0.2301  0.1596
11877TIP3    H257047   5.172   1.063   3.081 -0.5048  0.0728 -0.9284
11878TIP3   OH257048   4.020   1.195  12.178  0.6041  0.4665  0.5684
11878TIP3    H157049   3.977   1.187  12.093  0.1436  0.4289  0.8035
11878TIP3    H257050   4.096   1.137  12.173 -1.7042 -2.9158  1.6493
11879TIP3   OH257051   5.716   4.698   3.126  0.0601  0.2270 -0.8043
11879TIP3    H157052   5.622   4.707   3.139  0.1740  0.1190  0.1966
11879TIP3    H257053   5.754   4.770   3.177  0.5341  0.0698 -0.9264
11880TIP3   OH257054   4.411   3.862   0.975 -0.1581  0.6510 -0.1994
11880TIP3    H157055   4.478   3.804   1.010  0.6704  0.4256 -2.0291
11880TIP3    H257056   4.329   3.813   0.983 -0.3230  1.2304  2.7801
11881TIP3   OH257057   3.103   3.299   1.750  0.1261  0.6293 -0.0856
11881TIP3    H157058   3.147   3.367   1.699  0.2221  0.2239 -0.5522
11881TIP3    H257059   3.017   3.290   1.708  0.5163 -0.2945 -0.7111
11882TIP3   OH257060   0.433   3.522   1.985  0.8359  1.1964 -0.1841
11882TIP3    H157061   0.495   3.593   1.974 -0.2574  2.2082 -0.0083
11882TIP3    H257062   0.401   3.504   1.896  0.5863  1.4093 -0.1369
11883TIP3   OH257063   0.692   5.468  12.834 -0.5924 -0.0419 -0.2557
11883TIP3    H157064   0.647   5.400  12.785 -0.3425 -0.7203  0.4352
11883TIP3    H257065   0.642   5.548  12.816 -1.3718 -0.5600 -0.4315
11884TIP3   OH257066   2.765   1.439  16.164  0.2293 -0.3088 -0.1809
11884TIP3    H157067   2.761   1.508  16.231 -1.9234  0.2322 -0.7849
11884TIP3    H257068   2.758   1.357  16.214  0.6128 -0.0007  0.3916
11885TIP3   OH257069   5.584   1.504   2.548  0.6397 -0.2628 -0.0702
11885TIP3    H157070   5.596   1.568   2.479  1.1185 -0.9609 -0.6537
11885TIP3    H257071   5.611   1.421   2.508  1.4958 -0.5897  1.1255
11886TIP3   OH257072   5.294   0.899   3.913  0.1821 -0.3666  0.1620
11886TIP3    H157073   5.297   0.804   3.925  0.0136 -0.4818 -0.6215
11886TIP3    H257074   5.223   0.928   3.970 -2.2176 -1.1910 -2.1749
11887TIP3   OH257075   5.398   6.692  11.314  0.0393  0.1376  0.1408
11887TIP3    H157076   5.426   6.664  11.401  0.7331 -1.4336 -0.5355
11887TIP3    H257077   5.386   6.610  11.266  5.0447  0.8091 -2.9244
11888TIP3   OH257078   5.482   3.704  14.906 -0.2014 -0.1678 -0.1106
11888TIP3    H157079   5.544   3.636  14.930  1.1763  0.4099 -1.8220
11888TIP3    H257080   5.437   3.670  14.828 -1.1765 -0.0666  0.3913
11889TIP3   OH257081   1.449   3.753   5.793 -0.5119  0.1542  0.3125
11889TIP3    H157082   1.473   3.812   5.864 -0.5908  0.0844  0.3980
11889TIP3    H257083   1.520   3.689   5.790  0.9468  1.7436 -1.5041
11890TIP3   OH257084   4.342   6.421  15.543  0.0443  0.1222  0.2580
11890TIP3    H157085   4.276   6.379  15.598 -0.6825 -0.2300 -0.8520
11890TIP3    H257086   4.398   6.350  15.513 -0.3697  0.1097 -0.5196
11891TIP3   OH257087   6.446   4.814  12.286  0.1339 -0.1614 -1.0199
11891TIP3    H157088   6.499   4.891  12.265  1.5391  0.0439  2.6125
11891TIP3    H257089   6.487   4.743  12.236 -0.4497  1.1166 -3.4810
11892TIP3   OH257090   1.930   3.901   3.106  0.0688  0.0744 -0.4724
11892TIP3    H157091   1.972   3.832   3.054  0.6737  0.3173 -0.3167
11892TIP3    H257092   1.870   3.944   3.045 -2.9837 -2.7551  0.2314
11893TIP3   OH257093   2.644   0.346   1.418  0.8734 -0.2471  0.1331
11893TIP3    H157094   2.713   0.404   1.386  0.4333 -0.6740 -1.7326
11893TIP3    H257095   2.600   0.315   1.338 -1.3814 -0.0972  1.2324
11894TIP3   OH257096   5.273   4.750  15.045  0.2118  0.7798 -0.0530
11894TIP3    H157097   5.267   4.822  15.108 -1.2371  1.5636 -1.0211
11894TIP3    H257098   5.193   4.758  14.992 -0.0908 -1.6475 -0.0995
11895TIP3   OH257099   2.004   5.970  15.160 -0.2036  0.2175  0.5049
11895TIP3    H157100   2.094   5.941  15.146 -0.4089 -0.0308 -0.3426
11895TIP3    H257101   1.954   5.890  15.173 -0.6377  0.1996 -1.0651
11896TIP3   OH257102   0.001   0.907  16.667  0.2755 -0.0304  0.0897
11896TIP3    H157103   0.092   0.932  16.649  0.5566 -0.9898  0.1065
11896TIP3    H257104  -0.049   0.944  16.594  0.4253  1.8910  0.9089
11897TIP3   OH257105   4.197   0.276   3.923 -0.2168  0.0343 -0.1785
11897TIP3    H157106   4.260   0.308   3.858 -0.5751  3.7440  1.0308
11897TIP3    H257107   4.111   0.288   3.881 -0.3019 -1.1829 -0.3700
11898TIP3   OH257108   5.252   2.405   5.095  0.2154  0.2627  0.0286
11898TIP3    H157109   5.200   2.485   5.102  0.5738  0.8935 -3.0448
11898TIP3    H257110   5.195   2.342   5.052  1.1068  0.1289 -1.0181
11899TIP3   OH257111   6.457   1.199  11.441 -0.8234  0.3990  0.0194
11899TIP3    H157112   6.464   1.116  11.489  0.0741  0.1897 -0.4523
11899TIP3    H257113   6.462   1.175  11.349 -1.8137  0.8711 -0.1712
11900TIP3   OH257114   5.980   5.616  16.386 -0.3913 -0.3801  0.1266
11900TIP3    H157115   6.067   5.582  16.409 -0.2917 -0.1240  0.1344
11900TIP3    H257116   5.979   5.617  16.291 -0.1658  0.1602  0.1224
11901TIP3   OH257117   0.660   1.984  14.952 -0.0757 -0.3177 -0.4501
11901TIP3    H157118   0.595   2.052  14.967 -0.6423 -0.9379 -0.0528
11901TIP3    H257119   0.744   2.029  14.958 -0.4661  0.5000 -1.0225
11902TIP3   OH257120   0.049   4.007   2.648 -0.1417 -0.4216 -0.3336
11902TIP3    H157121   0.040   4.098   2.676  1.1720 -0.0035 -1.1906
11902TIP3    H257122   0.037   4.010   2.553 -0.6518 -1.2399 -0.3047
11903TIP3   OH257123   1.554   0.876  11.190 -0.5228  0.8527 -0.6133
11903TIP3    H157124   1.626   0.891  11.251 -0.3792 -0.0689 -0.5493
11903TIP3    H257125   1.536   0.963  11.153  0.5844  1.0984 -0.6019
11904TIP3   OH257126   5.271   2.756  11.776  0.0555 -0.2192 -0.2748
11904TIP3    H157127   5.334   2.828  11.782 -1.1605  0.9145 -0.6210
11904TIP3    H257128   5.204   2.788  11.716 -1.6293 -0.7797  1.2316
11905TIP3   OH257129   4.425   5.409   6.173 -0.0346 -0.4981 -0.0806
11905TIP3    H157130   4.360   5.340   6.188 -2.0496  1.1412 -0.7330
11905TIP3    H257131   4.404   5.477   6.237  2.1913 -0.6203  0.8517
11906TIP3   OH257132   6.588   6.226  16.887 -0.0487  0.0070 -0.6697
11906TIP3    H157133   6.636   6.258  16.811  0.5172  2.5544  0.6674
11906TIP3    H257134   6.655   6.201  16.950 -0.4674  1.1397  0.2501
11907TIP3   OH257135   3.173   5.202  11.077  0.6853 -0.4605 -0.1696
11907TIP3    H157136   3.192   5.190  10.984 -2.0980  0.5401 -0.9744
11907TIP3    H257137   3.168   5.297  11.089 -0.0782 -0.5883  0.7159
11908TIP3   OH257138   4.507   5.077   2.451 -0.6267 -0.3103  0.1656
11908TIP3    H157139   4.444   5.109   2.387  0.9863  0.5147 -1.1127
11908TIP3    H257140   4.484   4.985   2.464 -1.5577 -0.2472 -0.9162
11909TIP3   OH257141   0.996   3.570  16.132 -0.0793 -0.0142  0.6442
11909TIP3    H157142   1.087   3.540  16.136 -0.1317 -0.0992  1.5956
11909TIP3    H257143   0.949   3.509  16.189 -0.4465  0.9623  1.4205
11910TIP3   OH257144   2.548   0.757  14.625  0.0425 -0.3856 -0.1057
11910TIP3    H157145   2.468   0.704  14.630  0.7271 -1.3912  0.8463
11910TIP3    H257146   2.607   0.717  14.689  2.0058 -0.8190 -2.0663
11911TIP3   OH257147   5.771   1.793  16.446 -0.4761 -0.8145 -0.2176
11911TIP3    H157148   5.801   1.772  16.534 -2.1382 -0.3461  0.4963
11911TIP3    H257149   5.746   1.885  16.450 -0.0287 -0.6308 -1.3397
11912TIP3   OH257150   4.844   4.348  11.441  0.9659  0.0238 -0.2807
11912TIP3    H157151   4.858   4.294  11.519 -0.7299  0.8398  0.6542
11912TIP3    H257152   4.858   4.438  11.472 -1.5168  0.5052 -0.4062
11913TIP3   OH257153   5.250   1.359  14.162 -0.2015 -0.5530  0.3684
11913TIP3    H157154   5.207   1.356  14.077  0.6295 -0.9106 -0.0443
11913TIP3    H257155   5.197   1.420  14.213 -0.7878 -0.4449 -0.3510
11914TIP3   OH257156   0.838   6.275  11.864  0.4715 -0.7340  0.1149
11914TIP3    H157157   0.773   6.286  11.794 -0.2038 -2.2020  0.4717
11914TIP3    H257158   0.904   6.217  11.826  0.4608 -0.9770  0.4646
11915TIP3   OH257159   1.041   2.555  12.438  0.0067 -0.2093 -0.3246
11915TIP3    H157160   1.059   2.648  12.448 -1.3900  0.1619 -0.9478
11915TIP3    H257161   1.037   2.521  12.528 -1.6632  0.8137  0.0382
11916TIP3   OH257162   2.835   3.048   0.467  0.3507  0.3726  0.0860
11916TIP3    H157163   2.760   3.080   0.418  0.1944 -0.4985 -0.2609
11916TIP3    H257164   2.834   3.099   0.548 -0.3053  0.7325 -0.1416
11917TIP3   OH257165   1.598   1.668   4.820 -0.4785 -0.1685 -0.0698
11917TIP3    H157166   1.657   1.743   4.814 -1.6142  0.6993 -1.0935
11917TIP3    H257167   1.642   1.598   4.771  0.2075  0.0878  0.1719
11918TIP3   OH257168   2.999   1.408   6.411 -0.1168 -0.8353 -0.0904
11918TIP3    H157169   2.913   1.389   6.447  0.0166  0.7523  1.2132
11918TIP3    H257170   2.999   1.368   6.324 -1.8222 -1.6186  0.2392
11919TIP3   OH257171   4.656   6.549   3.368 -0.0415 -0.0259 -0.0124
11919TIP3    H157172   4.690   6.522   3.282 -0.3134  0.6803 -0.3507
11919TIP3    H257173   4.562   6.555   3.355 -0.0028  0.9319  0.0867
11920TIP3   OH257174   4.520   5.678   2.133  0.2435  0.0799 -0.2853
11920TIP3    H157175   4.569   5.750   2.095 -0.9321  1.7656  1.2232
11920TIP3    H257176   4.574   5.648   2.206  1.2547 -1.3701 -1.5828
11921TIP3   OH257177   3.853   3.869   4.766 -0.1097  0.2873  0.1310
11921TIP3    H157178   3.908   3.910   4.699 -1.9458  0.7789 -1.1569
11921TIP3    H257179   3.763   3.885   4.736 -0.9438 -2.1871  1.1143
11922TIP3   OH257180   6.388   5.883  10.682 -0.1873 -0.0649 -0.5741
11922TIP3    H157181   6.428   5.797  10.672 -1.1585 -0.3452 -2.3063
11922TIP3    H257182   6.446   5.942  10.634  0.2154  0.2017  0.2107
11923TIP3   OH257183   0.761   3.003   3.883 -0.0430  0.4342 -0.1948
11923TIP3    H157184   0.780   3.047   3.801 -0.0512  2.8909  1.0337
11923TIP3    H257185   0.707   2.928   3.858  0.1304  0.9886 -2.4350
11924TIP3   OH257186   4.605   0.985   3.548  0.0852 -0.3932  0.3283
11924TIP3    H157187   4.589   1.063   3.601  0.1115  1.8744 -2.7506
11924TIP3    H257188   4.526   0.976   3.495  1.4116 -0.3447 -1.7530
11925TIP3   OH257189   2.277   0.255  11.901 -0.6745 -0.0886  0.1681
11925TIP3    H157190   2.266   0.273  11.808 -0.6608 -1.7764 -0.1904
11925TIP3    H257191   2.203   0.199  11.925 -0.3237 -0.2244  1.0033
11926TIP3   OH257192   6.185   5.721  11.514  0.8670  0.4699 -0.0959
11926TIP3    H157193   6.176   5.639  11.563  2.0664 -0.5504 -1.4792
11926TIP3    H257194   6.111   5.774  11.542  1.0499 -0.3547  2.2014
11927TIP3   OH257195   3.988   1.684   4.858 -0.7241  0.2685 -0.3312
11927TIP3    H157196   3.956   1.605   4.900  0.0156  0.4076  0.5237
11927TIP3    H257197   3.915   1.714   4.804 -0.6764 -1.5323 -1.4769
11928TIP3   OH257198   5.428   5.613  12.050  0.4217  0.1726  0.4529
11928TIP3    H157199   5.449   5.575  12.135 -3.1596  0.2243  1.5501
11928TIP3    H257200   5.442   5.707  12.061  3.4991 -0.0931 -0.3282
11929TIP3   OH257201   1.823   0.603   3.942  0.2273  0.1264 -0.8511
11929TIP3    H157202   1.820   0.538   3.872  1.0118  1.3698 -2.0850
11929TIP3    H257203   1.864   0.557   4.015 -2.2802 -1.7736 -0.4971
11930TIP3   OH257204   3.056   6.793   0.786  0.3588 -0.0243 -0.4564
11930TIP3    H157205   3.117   6.721   0.767  2.8459  1.1973  2.1058
11930TIP3    H257206   3.113   6.868   0.805 -2.0324  1.6582  0.5792
11931TIP3   OH257207   1.139   4.318  13.875 -0.1833  0.2713  0.8314
11931TIP3    H157208   1.141   4.225  13.895 -0.0766  0.5242  2.0887
11931TIP3    H257209   1.050   4.334  13.844 -1.1467  0.2291  3.3152
11932TIP3   OH257210   0.367   1.542   3.405  0.1662 -0.5295  0.2037
11932TIP3    H157211   0.440   1.573   3.458  1.2697 -0.1658 -1.4712
11932TIP3    H257212   0.362   1.448   3.423 -0.7920 -0.1375  2.4249
11933TIP3   OH257213   5.589   2.738  15.226  0.2230  0.1134 -0.1832
11933TIP3    H157214   5.511   2.791  15.241  0.2761  0.1547 -0.0486
11933TIP3    H257215   5.662   2.799  15.234  0.2459  0.1578 -0.7376
11934TIP3   OH257216   5.744   4.614  11.354 -0.9130 -0.2222  0.4369
11934TIP3    H157217   5.834   4.637  11.379 -0.9247 -0.3233  0.5727
11934TIP3    H257218   5.692   4.631  11.433 -1.1220  0.4844  0.1526
11935TIP3   OH257219   2.911   6.733   0.431  0.1432  0.1587 -0.2453
11935TIP3    H157220   2.849   6.671   0.391 -1.0463  0.0228  1.7080
11935TIP3    H257221   2.927   6.698   0.518  2.7226  0.4221 -0.5346
11936TIP3   OH257222   3.321   5.354   1.825  0.6521 -0.0276  0.2798
11936TIP3    H157223   3.393   5.399   1.869 -0.7182  1.8643  0.7175
11936TIP3    H257224   3.298   5.412   1.752  0.3014 -1.1665 -0.5356
11937TIP3   OH257225   1.053   1.996   5.841 -0.0721 -0.1052  0.5191
11937TIP3    H157226   1.052   1.992   5.937 -0.3372 -0.2729  0.5102
11937TIP3    H257227   1.028   2.086   5.821 -1.9004 -0.5654  0.5755
11938TIP3   OH257228   4.953   3.008  14.799  0.2423  0.0711 -0.2981
11938TIP3    H157229   5.043   3.021  14.829 -0.3452  1.9042  0.8455
11938TIP3    H257230   4.950   3.051  14.713 -0.0478  2.1384  0.6659
11939TIP3   OH257231   4.068   4.936  13.820 -0.7085 -0.3220  0.2481
11939TIP3    H157232   4.137   4.889  13.867 -0.1423  1.2417  1.0287
11939TIP3    H257233   4.078   5.027  13.847 -2.4182  0.1056 -0.4444
11940TIP3   OH257234   2.376   2.013  14.320  0.4893  0.3511 -0.1854
11940TIP3    H157235   2.360   1.960  14.398  2.1277  1.2135  0.7987
11940TIP3    H257236   2.289   2.047  14.295 -0.0471  0.1601  1.3435
11941TIP3   OH257237   2.064   5.529   3.396 -0.5196  0.2014 -0.1483
11941TIP3    H157238   2.039   5.610   3.441 -2.6240 -0.2429 -0.3988
11941TIP3    H257239   1.989   5.470   3.409  0.5453 -1.3788 -0.7899
11942TIP3   OH257240   3.404   4.459  16.562  0.0224  0.3164 -1.0847
11942TIP3    H157241   3.495   4.452  16.532  1.2586  2.3185  1.7677
11942TIP3    H257242   3.357   4.498  16.488  1.6444  0.1342 -2.2767
11943TIP3   OH257243   0.251   2.707   1.841  0.3140  0.0410  0.2812
11943TIP3    H157244   0.201   2.728   1.919  1.0673  0.2413  0.7214
11943TIP3    H257245   0.342   2.699   1.872  0.5293 -0.5127 -0.4578
11944TIP3   OH257246   4.828   1.494   2.865  0.6425  0.7141  0.0208
11944TIP3    H157247   4.920   1.494   2.840  0.6036  0.7960 -0.1272
11944TIP3    H257248   4.828   1.518   2.958  0.8106  0.0801  0.1886
11945TIP3   OH257249   5.653   1.469   2.821 -0.0301 -0.1287 -0.4840
11945TIP3    H157250   5.663   1.393   2.764  2.2695  0.0248 -0.3747
11945TIP3    H257251   5.691   1.542   2.772 -0.0194  0.4519  0.3518
11946TIP3   OH257252   5.554   2.308   1.757  0.2887  0.1344 -0.2701
11946TIP3    H157253   5.614   2.240   1.728 -2.0087 -2.5434  0.7407
11946TIP3    H257254   5.477   2.298   1.700 -0.4883  1.2444  0.5360
11947TIP3   OH257255   3.201   5.478  12.606 -0.0851  0.2155 -0.3437
11947TIP3    H157256   3.130   5.531  12.643  2.1710  1.8572  1.8913
11947TIP3    H257257   3.253   5.450  12.681  2.4634  0.3041 -1.9548
11948TIP3   OH257258   4.387   5.099   2.140 -0.0475  0.0168 -0.4291
11948TIP3    H157259   4.321   5.168   2.142 -0.9205 -0.7909 -0.8124
11948TIP3    H257260   4.339   5.018   2.154  0.6329 -0.7434 -2.1243
11949TIP3   OH257261   4.365   6.315  12.732 -0.0698  0.4553  0.3541
11949TIP3    H157262   4.352   6.325  12.638  0.6850 -0.4623  0.1290
11949TIP3    H257263   4.289   6.356  12.772  0.3765  2.2916 -0.5898
11950TIP3   OH257264   2.594   4.471   4.858  0.5030 -0.3538 -0.1950
11950TIP3    H157265   2.595   4.397   4.919  0.7662  0.7571  1.1919
11950TIP3    H257266   2.614   4.432   4.773  0.6258 -1.8755  0.4978
11951TIP3   OH257267   6.060   4.229  12.466  0.4237 -0.3444 -0.2082
11951TIP3    H157268   6.044   4.155  12.407  0.2008 -1.1845  0.8713
11951TIP3    H257269   6.151   4.220  12.492  0.3673 -0.3061  0.0061
11952TIP3   OH257270   0.540   2.329   2.409 -0.3672 -0.2891 -0.3574
11952TIP3    H157271   0.502   2.244   2.432  0.4334 -0.8295 -0.9843
11952TIP3    H257272   0.631   2.323   2.439 -0.4304  0.5398  0.0414
11953TIP3   OH257273   1.334   6.150   2.951 -0.4327  0.7348 -0.3274
11953TIP3    H157274   1.407   6.088   2.955 -0.7314  0.3494 -0.8095
11953TIP3    H257275   1.369   6.225   2.903 -0.2366  0.7233 -0.2071
11954TIP3   OH257276   5.694   5.700   2.011  0.1283  0.1904  0.0385
11954TIP3    H157277   5.639   5.622   2.015 -1.3067  1.1674 -0.0522
11954TIP3    H257278   5.782   5.668   2.034  0.1394 -1.9393 -2.4829
11955TIP3   OH257279   5.566   4.022   0.760  0.2447  0.4137 -0.2431
11955TIP3    H157280   5.503   3.952   0.742  0.8996 -0.2667  0.0591
11955TIP3    H257281   5.518   4.083   0.815 -0.1179 -0.1689  0.1068
11956TIP3   OH257282   4.891   0.115   3.561  0.6266 -0.0404 -0.2909
11956TIP3    H157283   4.945   0.146   3.634 -0.5069 -0.7117  0.8638
11956TIP3    H257284   4.802   0.114   3.595  0.3326 -2.5379 -0.9056
11957TIP3   OH257285   5.641   1.897  12.684  0.2336 -0.4113 -0.1543
11957TIP3    H157286   5.561   1.881  12.635  0.5261  1.9743 -1.5979
11957TIP3    H257287   5.711   1.895  12.618  1.1855 -1.0065  0.8286
11958TIP3   OH257288   5.375   6.791  15.294  0.5703  0.4626  0.2673
11958TIP3    H157289   5.322   6.809  15.216  0.9621  1.3809  0.1986
11958TIP3    H257290   5.465   6.790  15.262  0.7531  1.0837  0.7410
11959TIP3   OH257291   0.318   5.496   4.762 -0.6920  0.3289 -0.2224
11959TIP3    H157292   0.309   5.547   4.682  0.2203 -2.3522 -2.2080
11959TIP3    H257293   0.401   5.448   4.751 -0.0539  0.5400  2.7836
11960TIP3   OH257294   0.460   3.733  14.265  0.2620  0.3816  0.0360
11960TIP3    H157295   0.371   3.755  14.236 -0.1648  0.3780  1.2820
11960TIP3    H257296   0.462   3.757  14.357  0.9407 -1.3861  0.5262
11961TIP3   OH257297   3.932   0.068   1.111 -0.2037 -0.6375 -0.1555
11961TIP3    H157298   3.975   0.011   1.048  1.1886  0.4220 -0.2289
11961TIP3    H257299   3.950   0.027   1.196  2.5986  0.6558 -0.0045
11962TIP3   OH257300   0.005   0.592  15.959 -0.0114 -0.6682  0.7835
11962TIP3    H157301   0.071   0.645  16.004  1.9340 -1.2802 -1.1924
11962TIP3    H257302  -0.079   0.632  15.985  1.2534  2.2554  0.7927
11963TIP3   OH257303   0.044   0.906  13.413 -0.4260 -0.0842 -0.1355
11963TIP3    H157304   0.002   0.852  13.346 -0.4698  0.8185 -0.8529
11963TIP3    H257305   0.137   0.898  13.395 -0.3679 -0.6856  0.3731
11964TIP3   OH257306   2.144   4.190   4.765  0.0857  0.5690 -0.2182
11964TIP3    H157307   2.199   4.237   4.828 -1.6110  1.8169  0.4104
11964TIP3    H257308   2.203   4.125   4.727  0.7014 -2.0145  4.3837
11965TIP3   OH257309   1.530   6.522  11.415  0.1673 -0.0744  0.7084
11965TIP3    H157310   1.514   6.442  11.366  0.9531 -0.0022  0.3150
11965TIP3    H257311   1.557   6.493  11.502  2.0819 -0.3039  0.0816
11966TIP3   OH257312   1.207   0.815  14.201  0.3958  0.4947  0.6610
11966TIP3    H157313   1.276   0.880  14.210 -0.5103  1.6550 -0.3846
11966TIP3    H257314   1.199   0.800  14.107  1.4296 -2.1433  0.8891
11967TIP3   OH257315   4.106   5.368   2.621 -0.1053 -0.4289  0.1478
11967TIP3    H157316   4.186   5.386   2.571  0.9033 -0.0268  1.8417
11967TIP3    H257317   4.097   5.273   2.617 -0.2590 -0.3859 -1.0677
11968TIP3   OH257318   1.160   5.522  11.833 -0.1393  0.5406 -0.1292
11968TIP3    H157319   1.147   5.428  11.828 -0.7892  0.5806  0.5890
11968TIP3    H257320   1.087   5.554  11.886  0.1701  1.4241 -0.2100
11969TIP3   OH257321   4.525   5.464  12.909 -0.1860 -0.3702 -0.0837
11969TIP3    H157322   4.567   5.546  12.934 -0.1926 -0.0011 -1.2200
11969TIP3    H257323   4.576   5.433  12.834 -0.1765 -1.4148  0.3414
11970TIP3   OH257324   1.308   4.072  11.349 -0.4862 -0.6840  0.3516
11970TIP3    H157325   1.270   3.984  11.361 -2.6907  0.1246 -0.2334
11970TIP3    H257326   1.233   4.127  11.327  1.0976  1.0215 -1.0603
11971TIP3   OH257327   0.698   5.905   4.351  0.1244  0.2829 -0.2538
11971TIP3    H157328   0.743   5.965   4.410  0.6766 -0.5608  0.1955
11971TIP3    H257329   0.638   5.961   4.301 -0.2911  1.0162  1.0352
11972TIP3   OH257330   3.453   4.860  15.666 -0.4025  0.1284 -0.4083
11972TIP3    H157331   3.462   4.800  15.740 -1.1853  0.1113 -0.3159
11972TIP3    H257332   3.415   4.939  15.703  0.8670  0.7905 -0.4876
11973TIP3   OH257333   2.720   1.113  14.778 -0.0273 -0.2910 -0.1150
11973TIP3    H157334   2.775   1.160  14.841  0.5952 -0.3617 -0.5955
11973TIP3    H257335   2.631   1.140  14.799  0.3509  1.7645 -0.8923
11974TIP3   OH257336   3.727   6.479   2.704 -0.2840  0.3357 -0.5862
11974TIP3    H157337   3.751   6.410   2.766  0.8547  1.7993  0.6963
11974TIP3    H257338   3.811   6.514   2.673 -0.6007  3.4426  1.5257
11975TIP3   OH257339   2.368   6.755   0.311  0.1581 -0.0667 -0.0387
11975TIP3    H157340   2.293   6.813   0.306  0.7887  0.6900 -0.9472
11975TIP3    H257341   2.403   6.768   0.399  1.5816  2.6321 -0.8905
11976TIP3   OH257342   1.986   6.195   0.345  0.0867  0.0871 -0.3946
11976TIP3    H157343   1.927   6.244   0.287 -1.4752 -0.0175  1.0314
11976TIP3    H257344   1.967   6.230   0.432 -0.1468 -2.1391  0.4986
11977TIP3   OH257345   5.731   6.151  12.533  0.5716  0.0385  0.3332
11977TIP3    H157346   5.735   6.081  12.468  0.4210  0.2721  0.0730
11977TIP3    H257347   5.666   6.212  12.499 -2.6464 -1.7980  2.6428
11978TIP3   OH257348   2.886   0.281   3.007 -0.1413  0.1214  0.1293
11978TIP3    H157349   2.859   0.237   2.926 -0.5369 -0.9568  0.8292
11978TIP3    H257350   2.957   0.226   3.041  0.0562  0.5990  0.4962
11979TIP3   OH257351   2.280   2.164  16.077 -0.1025 -0.0695  0.0040
11979TIP3    H157352   2.339   2.130  16.144  1.3041 -0.6191 -1.4542
11979TIP3    H257353   2.296   2.258  16.075 -1.3088  0.2128  1.4803
11980TIP3   OH257354   2.647   3.901   3.185 -0.5866 -0.3078  0.1204
11980TIP3    H157355   2.716   3.838   3.166 -0.8237 -1.0199  1.5405
11980TIP3    H257356   2.648   3.910   3.280 -0.5715  1.8348 -0.0341
11981TIP3   OH257357   0.248   5.781   5.182  0.1760  0.6421 -0.1422
11981TIP3    H157358   0.242   5.746   5.093 -1.3594 -0.3130  0.3162
11981TIP3    H257359   0.342   5.781   5.200  0.6051  1.7813 -2.1060
11982TIP3   OH257360   6.552   6.317  11.599  0.2927  0.7995 -0.0308
11982TIP3    H157361   6.540   6.412  11.590 -1.6820  0.4212 -2.7604
11982TIP3    H257362   6.644   6.302  11.577  0.4821  2.0188 -0.1302
11983TIP3   OH257363   2.707   5.896   5.789  0.2520  0.2433 -0.4996
11983TIP3    H157364   2.763   5.832   5.746 -0.1722  0.5566 -1.5526
11983TIP3    H257365   2.768   5.959   5.828  0.7665 -1.9671  2.5642
11984TIP3   OH257366   0.898   0.560   6.318  0.0770 -0.0997 -0.5148
11984TIP3    H157367   0.895   0.480   6.371  0.0341 -0.7681 -1.5175
11984TIP3    H257368   0.865   0.628   6.377  1.2693 -0.5731  0.7579
11985TIP3   OH257369   4.092   6.680  12.269 -0.3439  0.1722  1.0185
11985TIP3    H157370   4.095   6.755  12.210 -1.9280  0.7720  1.6548
11985TIP3    H257371   4.051   6.610  12.218  1.7213 -0.5516  0.2024
11986TIP3   OH257372   6.208   6.259   3.499 -0.1668 -0.4537  0.1748
11986TIP3    H157373   6.145   6.218   3.440  0.6068 -0.2352 -0.8275
11986TIP3    H257374   6.245   6.186   3.549 -0.6365 -0.6739  0.2037
11987TIP3   OH257375   5.334   2.804   1.097 -0.4403  0.7420  0.6803
11987TIP3    H157376   5.405   2.755   1.139 -1.2608 -0.2304  0.9508
11987TIP3    H257377   5.307   2.749   1.023  0.0753  1.8084 -0.3408
11988TIP3   OH257378   6.571   0.019  13.252 -0.4316 -0.1455 -0.1116
11988TIP3    H157379   6.552  -0.023  13.336 -1.8072  0.6639  0.0192
11988TIP3    H257380   6.501   0.083  13.241  0.3790  0.5798 -1.3372
11989TIP3   OH257381   4.623   3.224   3.022  0.4504  0.9415 -0.0187
11989TIP3    H157382   4.542   3.202   2.977  0.0949  1.2584  0.4641
11989TIP3    H257383   4.602   3.301   3.075  0.2720 -0.6287  2.3133
11990TIP3   OH257384   3.770   2.508  14.519  0.4184 -0.0060  0.0321
11990TIP3    H157385   3.841   2.457  14.480  0.6750  1.5626 -1.7451
11990TIP3    H257386   3.693   2.451  14.513  0.9023 -0.5887 -0.9334
11991TIP3   OH257387   6.167   1.404   0.910  0.6919 -0.2150  0.4395
11991TIP3    H157388   6.105   1.368   0.974  1.1794  0.0652  1.0804
11991TIP3    H257389   6.172   1.338   0.841  1.7278 -1.5071  1.6851
11992TIP3   OH257390   5.941   6.758  10.831 -0.2675  0.0457 -0.4262
11992TIP3    H157391   5.878   6.792  10.768 -1.1487 -0.9571 -0.1105
11992TIP3    H257392   6.012   6.822  10.830 -1.2464  1.1723 -0.8380
11993TIP3   OH257393   1.551   2.231   5.232 -0.5502 -0.2532 -0.0385
11993TIP3    H157394   1.584   2.158   5.180 -0.5056  0.1009 -0.5276
11993TIP3    H257395   1.529   2.298   5.166 -1.0832 -0.0282  0.3649
11994TIP3   OH257396   3.230   1.739  12.406  0.0422  0.1952  0.5506
11994TIP3    H157397   3.283   1.802  12.357  1.6569 -0.1793  1.7229
11994TIP3    H257398   3.231   1.660  12.352 -0.8825  0.7328 -0.2924
11995TIP3   OH257399   3.213   5.166   2.715  0.1197  0.3154  0.2131
11995TIP3    H157400   3.138   5.150   2.658 -0.8711 -2.7982  2.1104
11995TIP3    H257401   3.176   5.208   2.793  0.1737 -1.5207  1.2971
11996TIP3   OH257402   6.512   6.284  14.653  0.1222 -0.3617 -0.0679
11996TIP3    H157403   6.441   6.252  14.708  1.1593  0.6044  1.9486
11996TIP3    H257404   6.579   6.216  14.658  0.5165  0.0536  0.5349
11997TIP3   OH257405   4.590   1.364   1.776 -0.2273  0.3672 -0.2037
11997TIP3    H157406   4.547   1.427   1.835 -1.2770 -0.5485  0.0350
11997TIP3    H257407   4.637   1.305   1.834  0.6222  0.8096 -0.4218
11998TIP3   OH257408   6.791   6.381  16.016  0.6686 -0.2826 -0.1317
11998TIP3    H157409   6.816   6.442  16.085  0.0986 -1.5739  1.2894
11998TIP3    H257410   6.697   6.394  16.004  0.7439 -0.1460 -0.5711
11999TIP3   OH257411   5.470   1.505  11.485 -0.3913 -0.0803  0.0224
11999TIP3    H157412   5.382   1.533  11.459  0.0348  0.7526 -0.5758
11999TIP3    H257413   5.465   1.496  11.581 -0.9212  0.7362  0.0858
12000TIP3   OH257414   2.209   5.331  15.529 -0.0562  0.0403  0.4701
12000TIP3    H157415   2.119   5.309  15.554  0.1813  0.9153  2.3499
12000TIP3    H257416   2.247   5.366  15.610  2.4443 -1.6715  0.1299
12001TIP3   OH257417   6.443   2.133   4.978 -0.4729 -0.2085  0.5092
12001TIP3    H157418   6.397   2.211   4.947 -0.9273 -0.4372  0.5861
12001TIP3    H257419   6.486   2.098   4.901 -1.5872 -0.7713  0.1143
12002TIP3   OH257420   3.844   6.430   5.440  0.2907  0.3045 -0.7327
12002TIP3    H157421   3.785   6.404   5.510 -0.4500 -0.5721 -1.6451
12002TIP3    H257422   3.929   6.441   5.483  0.3261 -2.1741  0.0260
12003TIP3   OH257423   6.363   3.506  13.659 -0.3147  0.1231  0.0167
12003TIP3    H157424   6.359   3.421  13.704  1.2530 -0.3264 -0.6175
12003TIP3    H257425   6.288   3.505  13.599  0.9849 -1.9042 -1.7487
12004TIP3   OH257426   5.076   3.879   4.703  0.5278  0.3166 -0.2152
12004TIP3    H157427   5.091   3.968   4.734  1.2994 -0.5308  2.0252
12004TIP3    H257428   5.162   3.850   4.670  0.7513 -0.1811  0.7549
12005TIP3   OH257429   3.395   4.223   1.187 -0.4377 -0.5464  0.5542
12005TIP3    H157430   3.409   4.283   1.113  0.3200 -1.5074 -0.1080
12005TIP3    H257431   3.341   4.273   1.248 -0.5695  0.4958 -0.3740
12006TIP3   OH257432   1.011   4.772   4.535  0.1714 -0.5567  0.0706
12006TIP3    H157433   0.953   4.730   4.599  1.1909  0.2276  1.5714
12006TIP3    H257434   1.069   4.701   4.507 -1.7761 -1.4876 -1.8719
12007TIP3   OH257435   4.112   6.373   5.153  0.2666  0.1143 -0.4821
12007TIP3    H157436   4.119   6.304   5.218  0.0587 -1.2787 -1.8861
12007TIP3    H257437   4.065   6.444   5.198  1.5013 -0.1710  1.3357
12008TIP3   OH257438   1.319   3.338   2.917  0.3725  0.1113 -0.1670
12008TIP3    H157439   1.376   3.316   2.844  0.5525  1.1496 -0.3607
12008TIP3    H257440   1.294   3.254   2.955  0.4287 -0.4412 -1.3042
12009TIP3   OH257441   2.337   2.707   2.982 -0.2116  0.2824 -0.2151
12009TIP3    H157442   2.420   2.755   2.983 -0.6024  0.9559  0.8868
12009TIP3    H257443   2.356   2.629   2.928  1.6533 -0.4592  1.3871
12010TIP3   OH257444   3.800   0.074  16.233  0.9497 -0.6150 -0.2627
12010TIP3    H157445   3.746   0.118  16.168 -0.7918 -2.7283 -0.3290
12010TIP3    H257446   3.886   0.066  16.192  0.7514  0.8609 -1.0133
12011TIP3   OH257447   4.966   2.651  17.108  0.6921  0.6488  0.3878
12011TIP3    H157448   4.967   2.722  17.044  0.8347 -0.0723 -0.4218
12011TIP3    H257449   4.975   2.571  17.056 -0.4792 -0.0418  1.2024
12012TIP3   OH257450   6.229   4.598  13.625 -0.0471  0.5283  0.0713
12012TIP3    H157451   6.197   4.567  13.709  1.5021  1.9865  1.2785
12012TIP3    H257452   6.241   4.519  13.573 -2.5076 -0.2788  0.6266
12013TIP3   OH257453   0.876   0.425  15.905  0.5473  0.0150 -0.1567
12013TIP3    H157454   0.858   0.477  15.983 -2.9747 -1.5831  0.2920
12013TIP3    H257455   0.871   0.487  15.833 -0.5320  0.7943  0.5681
12014TIP3   OH257456   4.151   5.905  13.594 -0.1098  0.2555 -0.6720
12014TIP3    H157457   4.102   5.941  13.521 -1.1349 -2.8583 -1.7037
12014TIP3    H257458   4.085   5.879  13.658  0.5604  0.2723  0.0523
12015TIP3   OH257459   2.507   3.587   1.445 -0.4501  0.2137 -0.0677
12015TIP3    H157460   2.541   3.605   1.533  1.1850 -2.6843  0.0367
12015TIP3    H257461   2.414   3.569   1.458 -0.0637 -1.0563  1.2899
12016TIP3   OH257462   2.665   6.352   1.264  0.0998  0.4440 -0.0195
12016TIP3    H157463   2.580   6.372   1.303  0.7447 -0.7897  2.2011
12016TIP3    H257464   2.729   6.385   1.327  1.2833  0.8822 -1.3979
12017TIP3   OH257465   6.347   1.794  13.347  0.4736 -0.4713  0.2769
12017TIP3    H157466   6.407   1.848  13.398  0.0634  1.4624 -1.1567
12017TIP3    H257467   6.303   1.739  13.412  2.1028 -0.3002  1.6108
12018TIP3   OH257468   3.858   0.663  11.653 -0.0893  0.3716 -0.0302
12018TIP3    H157469   3.926   0.661  11.586 -0.5061  0.5168 -0.4588
12018TIP3    H257470   3.877   0.742  11.703 -1.5992  2.0296 -1.9146
12019TIP3   OH257471   6.302   3.342   4.496  0.0764  0.0838  0.2729
12019TIP3    H157472   6.298   3.387   4.412 -1.9705  0.9436  0.7672
12019TIP3    H257473   6.368   3.391   4.546  0.5492  0.2095 -0.4611
12020TIP3   OH257474   4.026   1.666   4.315 -0.5967 -0.4504 -0.0140
12020TIP3    H157475   4.103   1.705   4.356 -1.5377  1.8019 -0.2362
12020TIP3    H257476   4.007   1.588   4.367  1.2829 -0.5686  0.5733
12021TIP3   OH257477   3.734   6.790  10.518  0.3428 -0.3686 -0.0160
12021TIP3    H157478   3.749   6.837  10.436  1.5063 -1.5514 -0.5272
12021TIP3    H257479   3.648   6.820  10.548 -0.4712 -0.4818 -2.0878
12022TIP3   OH257480   6.117   2.178  16.604 -0.0946 -0.4759 -0.4675
12022TIP3    H157481   6.072   2.183  16.688  0.9706 -2.5151  0.3042
12022TIP3    H257482   6.089   2.095  16.566  0.2267 -0.0620 -1.6629
12023TIP3   OH257483   5.055   4.561  17.052 -0.2220 -0.5035 -0.4296
12023TIP3    H157484   5.055   4.645  17.099  0.1003 -0.8223  0.1486
12023TIP3    H257485   4.988   4.572  16.984 -0.0515  0.2896 -0.4826
12024TIP3   OH257486   4.938   1.721  15.131  0.1011 -0.2046  0.3769
12024TIP3    H157487   4.950   1.795  15.190 -0.3803  1.1046 -1.0811
12024TIP3    H257488   4.843   1.710  15.124  0.1395 -0.1318 -0.3777
12025TIP3   OH257489   1.414   4.873   4.381  0.7080 -0.7906  0.1536
12025TIP3    H157490   1.336   4.928   4.395  1.1055 -0.8287  3.1705
12025TIP3    H257491   1.483   4.935   4.357  0.7329 -0.1437  1.7808
12026TIP3   OH257492   5.781   1.827  12.033  0.2488  0.0177  0.0971
12026TIP3    H157493   5.723   1.857  11.963  1.3473  2.0157 -0.0263
12026TIP3    H257494   5.869   1.836  11.997  0.7698 -0.3687  1.2237
12027TIP3   OH257495   0.701   2.546  14.626  0.1272 -0.3208 -0.3396
12027TIP3    H157496   0.707   2.637  14.595  0.9444  0.0271  0.7837
12027TIP3    H257497   0.659   2.499  14.553 -4.1366  1.6576  0.4934
12028TIP3   OH257498   2.142   2.124  12.935  0.6241  0.0159  0.5286
12028TIP3    H157499   2.190   2.042  12.948 -0.9954 -1.0910 -0.0104
12028TIP3    H257500   2.172   2.156  12.850 -2.1213 -2.6701 -1.6758
12029TIP3   OH257501   5.329   1.986   4.231 -1.1469  0.0296 -0.2738
12029TIP3    H157502   5.274   1.930   4.177  0.3303 -1.9780  0.1753
12029TIP3    H257503   5.292   1.977   4.319 -0.8953 -0.2928 -0.1977
12030TIP3   OH257504   6.299   5.637  14.394  0.2761 -0.1504 -0.3182
12030TIP3    H157505   6.352   5.681  14.327 -1.5600  2.0776 -0.4328
12030TIP3    H257506   6.274   5.555  14.353 -1.4567  1.4765 -2.8448
12031TIP3   OH257507   2.216   3.693   3.969 -0.8410 -0.1991 -0.1117
12031TIP3    H157508   2.230   3.599   3.980 -3.2363 -0.8296 -1.6627
12031TIP3    H257509   2.161   3.700   3.891  0.4095  2.6211 -0.8497
12032TIP3   OH257510   1.465   1.674  12.797 -0.1874  0.1654  0.2743
12032TIP3    H157511   1.384   1.633  12.830 -0.0296  0.2100  0.7197
12032TIP3    H257512   1.511   1.602  12.753 -0.5879  0.1976 -0.2051
12033TIP3   OH257513   1.320   5.631   0.423  0.1134 -0.3919  0.0529
12033TIP3    H157514   1.248   5.589   0.376  1.2739 -0.6227 -1.6227
12033TIP3    H257515   1.315   5.723   0.398  1.3389 -0.6884 -1.4137
12034TIP3   OH257516   4.401   0.239  15.154 -0.6355  0.1916 -0.2040
12034TIP3    H157517   4.466   0.309  15.146  0.0137  0.0106  2.4776
12034TIP3    H257518   4.438   0.166  15.104  1.0845  0.2263  0.9315
12035TIP3   OH257519   6.041   4.054  13.440  0.5460  0.2559 -0.1115
12035TIP3    H157520   6.016   4.134  13.486  0.4480 -0.9718  2.1061
12035TIP3    H257521   6.134   4.043  13.459  0.2083 -0.9694  0.9923
12036TIP3   OH257522   5.193   6.470   4.719 -0.3406  0.3523 -0.6382
12036TIP3    H157523   5.116   6.423   4.751  0.4141 -0.2593  0.3342
12036TIP3    H257524   5.157   6.537   4.659 -1.5407 -0.5070 -0.9248
12037TIP3   OH257525   0.175   4.111  13.636 -0.0821  0.7928 -0.1769
12037TIP3    H157526   0.139   4.189  13.679  0.0005 -0.7505  2.9316
12037TIP3    H257527   0.268   4.131  13.625 -0.2902  1.5948 -0.5672
12038TIP3   OH257528   0.140   4.348   6.718 -0.1188  0.1109  0.5121
12038TIP3    H157529   0.221   4.357   6.666  0.9032  0.0408  2.0301
12038TIP3    H257530   0.079   4.410   6.678  1.3676  1.7049  0.5997
12039TIP3   OH257531   6.739   6.127  14.642 -0.2676 -0.7761  0.4065
12039TIP3    H157532   6.706   6.042  14.611 -1.0772 -0.3425  0.0307
12039TIP3    H257533   6.798   6.105  14.714  0.1645 -1.7013 -0.2087
12040TIP3   OH257534   2.175   3.820  13.937 -0.2347  0.4831 -1.3044
12040TIP3    H157535   2.197   3.891  13.876  1.0698  2.1377  0.9400
12040TIP3    H257536   2.106   3.856  13.992  0.7293  0.2149  0.1359
12041TIP3   OH257537   2.606   6.283   6.304 -0.2234  0.1511  0.1266
12041TIP3    H157538   2.530   6.339   6.319  0.1209 -0.2609  5.0488
12041TIP3    H257539   2.568   6.198   6.282 -1.1003  0.5002  0.2493
12042TIP3   OH257540   2.296   5.949   5.188  0.4418 -0.3675 -0.2051
12042TIP3    H157541   2.324   5.955   5.280  0.2203 -1.3845 -0.0540
12042TIP3    H257542   2.320   5.861   5.162  0.2751 -0.1654 -1.0570
12043TIP3   OH257543   0.821   6.511  13.983  0.3249 -0.0085 -0.5425
12043TIP3    H157544   0.862   6.470  13.906 -0.6941 -0.1234 -1.0473
12043TIP3    H257545   0.826   6.605  13.966  2.8666  0.1659  0.7227
12044TIP3   OH257546   4.332   4.034  13.551 -0.4206 -0.3365  0.2345
12044TIP3    H157547   4.237   4.017  13.550 -0.7521  0.9667 -3.4238
12044TIP3    H257548   4.340   4.121  13.589 -0.9970  0.4827 -1.4134
12045TIP3   OH257549   4.054   3.173   3.185  0.1164 -0.5872 -0.1325
12045TIP3    H157550   4.054   3.080   3.207 -0.1163 -0.5820 -0.1033
12045TIP3    H257551   4.128   3.210   3.232  0.8719 -0.9545 -1.0083
12046TIP3   OH257552   3.401   1.143   0.547 -0.7379  0.1210 -0.4796
12046TIP3    H157553   3.495   1.129   0.561 -0.5666  1.2748 -0.3642
12046TIP3    H257554   3.366   1.156   0.635 -0.7882  0.8764 -0.6027
12047TIP3   OH257555   1.275   6.098  11.155 -0.0104  0.4428  0.1212
12047TIP3    H157556   1.278   6.077  11.061  0.3064 -0.8856  0.4075
12047TIP3    H257557   1.214   6.034  11.192  0.4135  0.4921  0.9306
12048TIP3   OH257558   2.054   3.109   0.783  0.2208  0.4403  0.4387
12048TIP3    H157559   1.986   3.071   0.727  1.3484  0.6326 -1.1296
12048TIP3    H257560   2.027   3.086   0.872 -2.4234  1.3792 -0.0275
12049TIP3   OH257561   3.104   1.525  15.003  0.1153 -0.4971 -0.2666
12049TIP3    H157562   3.187   1.477  15.001 -0.6970 -1.9608 -0.9172
12049TIP3    H257563   3.127   1.615  14.981  1.7524 -0.4681  1.3602
12050TIP3   OH257564   6.715   4.080  14.101  0.1320 -0.3875 -0.1395
12050TIP3    H157565   6.809   4.062  14.102 -0.1177 -1.9238 -0.8598
12050TIP3    H257566   6.682   4.038  14.181  0.1665  0.9227  0.5801
12051TIP3   OH257567   0.895   0.357  12.310  0.4062 -0.0176 -0.6000
12051TIP3    H157568   0.900   0.320  12.222  0.3530  0.1238 -0.6629
12051TIP3    H257569   0.803   0.350  12.335  0.1454  1.2398 -1.1235
12052TIP3   OH257570   0.951   0.013  16.817  0.0660 -0.0323 -0.0521
12052TIP3    H157571   0.879  -0.024  16.766 -1.7140  3.0955 -0.0108
12052TIP3    H257572   0.963  -0.048  16.890 -2.1991 -0.8761 -0.3238
12053TIP3   OH257573   2.555   6.501   3.679 -0.1218 -0.4509 -0.1771
12053TIP3    H157574   2.649   6.501   3.664 -0.0409 -0.5959  0.2921
12053TIP3    H257575   2.524   6.418   3.642  0.1062 -0.9085  0.6446
12054TIP3   OH257576   3.792   1.692  13.424  0.2636 -1.1640 -0.6272
12054TIP3    H157577   3.711   1.738  13.446 -0.5100 -1.8896 -1.7847
12054TIP3    H257578   3.790   1.614  13.478  0.6706 -0.7235  0.0298
12055TIP3   OH257579   4.153   5.603   0.069 -0.3605  0.0002  0.1632
12055TIP3    H157580   4.206   5.631   0.143 -1.0367 -0.8131  0.9708
12055TIP3    H257581   4.141   5.682   0.016  1.3208  0.2791  0.1499
12056TIP3   OH257582   5.093   6.575   5.713  0.0042  0.3821  0.3390
12056TIP3    H157583   5.123   6.582   5.803 -1.7794 -2.0529  1.2153
12056TIP3    H257584   5.039   6.653   5.699  1.0164  1.2316  1.0198
12057TIP3   OH257585   3.292   6.257   6.526 -0.0828 -0.1553  0.2961
12057TIP3    H157586   3.262   6.181   6.576  1.3430 -0.7268  0.3470
12057TIP3    H257587   3.231   6.264   6.453 -0.8490 -0.7071  0.8699
12058TIP3   OH257588   0.894   3.994  16.209  0.2338 -0.2218 -0.3324
12058TIP3    H157589   0.977   3.948  16.219  0.3929 -0.2412 -1.6523
12058TIP3    H257590   0.827   3.927  16.224  0.4330 -0.1562  0.9667
12059TIP3   OH257591   5.307   6.113  16.953 -0.3485  0.7129 -0.1720
12059TIP3    H157592   5.304   6.028  16.996 -0.6471  0.7080 -0.1996
12059TIP3    H257593   5.353   6.098  16.871 -1.6203  0.2850 -0.8306
12060TIP3   OH257594   0.168   5.215   1.956  0.2518 -0.6236  0.4744
12060TIP3    H157595   0.139   5.204   1.866 -1.8446 -0.5272  1.0727
12060TIP3    H257596   0.162   5.309   1.972 -1.3156 -0.8253  1.2580
12061TIP3   OH257597   5.202   1.201  17.105  0.4704 -0.0183 -0.3522
12061TIP3    H157598   5.216   1.157  17.021 -0.2444  0.7956 -0.9163
12061TIP3    H257599   5.269   1.269  17.108  0.3259  0.1259 -0.3878
12062TIP3   OH257600   3.014   6.805   4.257 -0.1987  0.0298  0.1266
12062TIP3    H157601   3.026   6.800   4.162  0.7186  1.1072  0.1527
12062TIP3    H257602   2.929   6.847   4.268 -0.4171 -0.3175 -0.2171
12063TIP3   OH257603   4.747   3.324   3.918 -0.0933 -0.0604  0.3265
12063TIP3    H157604   4.686   3.371   3.861 -0.8404 -0.7770  0.5374
12063TIP3    H257605   4.756   3.380   3.995  0.5972  0.7089 -0.2884
12064TIP3   OH257606   4.910   2.168  15.245 -0.1140  0.0143  0.7744
12064TIP3    H157607   4.994   2.212  15.260  0.9887 -1.6159 -0.1722
12064TIP3    H257608   4.906   2.157  15.150 -2.1608  1.3974  0.6398
12065TIP3   OH257609   0.495   4.758  13.403 -0.0511 -0.4186  0.8726
12065TIP3    H157610   0.507   4.722  13.315  1.1393  0.4099  0.6657
12065TIP3    H257611   0.463   4.685  13.455  0.1541 -1.1782 -0.0393
12066TIP3   OH257612   1.755   2.828   0.534  0.3271  0.4163 -1.1221
12066TIP3    H157613   1.790   2.792   0.453  1.2049  0.8760 -0.9535
12066TIP3    H257614   1.660   2.824   0.522  0.3796 -1.7590 -1.1856
12067TIP3   OH257615   0.098   3.862   3.514  0.3354 -0.2807  0.5309
12067TIP3    H157616   0.059   3.776   3.497  1.8132 -0.7304 -0.8007
12067TIP3    H257617   0.153   3.849   3.591 -1.4332  0.1671  1.9406
12068TIP3   OH257618   5.667   3.979  11.363  0.5815  0.0453  0.3921
12068TIP3    H157619   5.686   3.980  11.269 -0.0314  0.3915  0.2704
12068TIP3    H257620   5.669   3.886  11.386 -1.0718 -0.2252 -0.3529
12069TIP3   OH257621   1.419   3.227  13.863  0.1726  0.4807 -0.3120
12069TIP3    H157622   1.334   3.238  13.906  0.4448 -0.0853  0.4155
12069TIP3    H257623   1.401   3.171  13.788  0.2656 -1.7962  1.2709
12070TIP3   OH257624   3.045   2.217   0.435 -0.0442  0.2983  0.0493
12070TIP3    H157625   3.123   2.175   0.470 -0.4062  0.4435  1.0677
12070TIP3    H257626   2.974   2.186   0.492 -0.2848  2.5109  1.0563
12071TIP3   OH257627   1.001   4.768  17.000  0.3463 -0.6042  0.4256
12071TIP3    H157628   0.950   4.813  17.067 -0.3769 -1.0401  0.1841
12071TIP3    H257629   1.007   4.832  16.929 -2.2139 -1.4252 -0.6528
12072TIP3   OH257630   4.498   6.711   4.670  0.0826  0.0082 -0.1622
12072TIP3    H157631   4.548   6.667   4.739  0.9653 -0.5505 -1.1325
12072TIP3    H257632   4.435   6.766   4.717  0.5310 -0.5124  1.0799
12073TIP3   OH257633   5.958   3.657   0.618 -0.0265 -0.2164 -0.0634
12073TIP3    H157634   6.016   3.695   0.684  0.3245 -2.6061  1.1193
12073TIP3    H257635   5.881   3.713   0.619 -0.1637 -0.3304  2.6533
12074TIP3   OH257636   2.883   2.894   1.255 -0.2116 -0.2352  0.7176
12074TIP3    H157637   2.935   2.932   1.326 -0.6904  0.4574  0.7093
12074TIP3    H257638   2.792   2.913   1.279 -0.3440  1.1258 -0.6666
12075TIP3   OH257639   4.162   4.446   1.623  0.4073  0.4672  0.0050
12075TIP3    H157640   4.106   4.508   1.670  0.6005  0.5541  0.1263
12075TIP3    H257641   4.127   4.445   1.534  0.4914  0.8666 -0.0366
12076TIP3   OH257642   5.237   0.874  16.419  0.0419  0.0835  0.2385
12076TIP3    H157643   5.259   0.787  16.452 -0.4824 -0.0328  0.2849
12076TIP3    H257644   5.236   0.863  16.323 -0.2847 -0.0251  0.2542
12077TIP3   OH257645   0.428   6.494  11.397  0.9364 -0.1097  0.1893
12077TIP3    H157646   0.516   6.489  11.434  0.4667 -1.0903  1.2538
12077TIP3    H257647   0.376   6.537  11.465  0.0187 -2.1058  0.8364
12078TIP3   OH257648   0.558   1.215   2.793  0.8504 -0.0976 -0.0695
12078TIP3    H157649   0.602   1.143   2.836 -0.5429 -1.7092 -1.2193
12078TIP3    H257650   0.465   1.204   2.815  0.2434 -0.3323 -2.4562
12079TIP3   OH257651   6.251   4.486   0.989  0.5079 -0.4493  0.2138
12079TIP3    H157652   6.228   4.457   1.077 -1.3204 -1.5815 -0.5643
12079TIP3    H257653   6.166   4.493   0.944  1.3887  0.2030 -1.4147
12080TIP3   OH257654   1.321   4.529  12.750 -0.4582  0.1722  0.9036
12080TIP3    H157655   1.301   4.595  12.817  0.1922  0.5525  0.7203
12080TIP3    H257656   1.414   4.512  12.759 -0.2661  0.5819 -0.2366
12081TIP3   OH257657   2.132   3.678  11.886 -0.0479  0.4403  0.4502
12081TIP3    H157658   2.148   3.762  11.843  0.0688 -0.1838 -0.7703
12081TIP3    H257659   2.197   3.674  11.956  0.3858  1.0687  0.0970
12082TIP3   OH257660   5.617   4.075   4.338 -0.2608  0.1842  0.5585
12082TIP3    H157661   5.617   4.126   4.256  0.2343  0.0622  0.4818
12082TIP3    H257662   5.543   4.015   4.328 -0.6089  0.6194  0.4807
12083TIP3   OH257663   3.955   0.383  13.252  0.0576 -0.1988  0.4793
12083TIP3    H157664   3.930   0.291  13.259 -0.7861  0.1235  2.3586
12083TIP3    H257665   3.998   0.390  13.167 -2.9743 -1.5906 -1.3454
12084TIP3   OH257666   5.979   0.947   4.225  0.5040  0.2883 -0.5573
12084TIP3    H157667   5.957   0.913   4.138  1.7170 -0.9303 -0.4192
12084TIP3    H257668   6.069   0.977   4.218 -0.1396  2.4338 -0.3240
12085TIP3   OH257669   6.759   2.476  11.668 -0.2936  0.2007  0.5856
12085TIP3    H157670   6.808   2.558  11.668  0.0169  0.0233 -0.1056
12085TIP3    H257671   6.799   2.424  11.737  0.2508  0.2071  0.2838
12086TIP3   OH257672   0.277   6.115   4.993  0.0298 -0.2774 -0.1020
12086TIP3    H157673   0.201   6.172   4.986 -0.0207 -0.1708  1.1606
12086TIP3    H257674   0.279   6.087   5.084 -0.7620 -3.4580 -0.9516
12087TIP3   OH257675   0.129   4.849  16.310  0.7350 -0.2618 -0.1716
12087TIP3    H157676   0.102   4.925  16.259 -0.3413 -0.4314  0.1278
12087TIP3    H257677   0.224   4.846  16.300  1.0402  2.2076  1.3087
12088TIP3   OH257678   0.345   3.150   4.183  0.6970  0.2194 -0.6094
12088TIP3    H157679   0.317   3.241   4.175  1.1719  0.2919 -1.5641
12088TIP3    H257680   0.441   3.155   4.183  0.7321 -0.1900  0.5041
12089TIP3   OH257681   4.383   1.701  11.269  0.5153 -0.5536  0.7196
12089TIP3    H157682   4.343   1.657  11.345 -0.8410 -0.1782  0.2527
12089TIP3    H257683   4.392   1.632  11.204 -2.4023 -0.0923 -0.3237
12090TIP3   OH257684   2.034   6.488   5.137 -0.4370  0.3902 -0.2577
12090TIP3    H157685   2.029   6.559   5.201  1.5439 -0.7978  1.3243
12090TIP3    H257686   2.094   6.520   5.070 -1.7338  1.2399 -1.0696
12091TIP3   OH257687   0.228   2.153   2.214 -0.5201  0.0484  0.3092
12091TIP3    H157688   0.235   2.169   2.308  0.8444 -1.0318  0.4343
12091TIP3    H257689   0.275   2.070   2.201 -3.6471 -1.7321 -0.8041
12092TIP3   OH257690   2.310   4.513   2.540  0.5695  0.2890 -0.6110
12092TIP3    H157691   2.393   4.478   2.509  0.2965  0.0288 -1.0480
12092TIP3    H257692   2.256   4.436   2.559  0.7332  0.4434  0.5161
12093TIP3   OH257693   0.522   0.906  11.493  0.1723  0.0962 -0.2340
12093TIP3    H157694   0.588   0.918  11.562 -0.6142  1.9350  0.2605
12093TIP3    H257695   0.444   0.878  11.540 -0.0653  0.3048 -0.5016
12094TIP3   OH257696   1.748   5.397   4.110 -0.0930  0.4362  0.1513
12094TIP3    H157697   1.659   5.412   4.141 -1.1629 -1.2440 -1.8263
12094TIP3    H257698   1.763   5.465   4.046 -0.0302  0.5922  0.3306
12095TIP3   OH257699   3.862   3.739   6.420  0.2855  0.5163 -0.2795
12095TIP3    H157700   3.771   3.713   6.405 -0.0261  1.2818  0.1615
12095TIP3    H257701   3.855   3.817   6.477  1.2472  0.0182  0.5581
12096TIP3   OH257702   1.055   0.959  11.115  0.0737 -0.3455  0.0234
12096TIP3    H157703   1.102   0.980  11.034  0.2844  0.0004  0.2334
12096TIP3    H257704   0.994   1.031  11.127  1.9798  1.1026  1.6602
12097TIP3   OH257705   0.793   4.536   2.872  0.0388  0.3290  0.0065
12097TIP3    H157706   0.836   4.462   2.916 -1.7881  0.1728  1.6601
12097TIP3    H257707   0.856   4.607   2.877  0.8671 -0.4247  0.6234
12098TIP3   OH257708   3.796   1.666  16.603 -0.3875 -0.8097  0.3155
12098TIP3    H157709   3.769   1.741  16.657 -2.3156 -1.0365 -0.2402
12098TIP3    H257710   3.767   1.589  16.654  0.4373 -1.1348  0.3020
12099TIP3   OH257711   1.968   4.899   2.587  0.0587 -0.3360 -0.8403
12099TIP3    H157712   1.917   4.829   2.628  0.3271  1.4854  3.0643
12099TIP3    H257713   2.059   4.872   2.600  0.1705  0.6770  0.8681
12100TIP3   OH257714   3.698   6.374   1.701 -0.2405  0.3384 -0.2531
12100TIP3    H157715   3.626   6.313   1.719  1.2739 -0.9008  2.1625
12100TIP3    H257716   3.700   6.431   1.777  1.6771 -0.0565  0.0335
12101TIP3   OH257717   1.866   6.629  15.982 -0.9363 -0.1185  0.1208
12101TIP3    H157718   1.780   6.649  16.020 -0.5680 -1.4027  1.7529
12101TIP3    H257719   1.907   6.569  16.045  1.8079  1.6729  0.2013
12102TIP3   OH257720   4.011   4.602   1.097 -0.5176 -0.2631  0.0602
12102TIP3    H157721   4.081   4.567   1.152 -1.6160 -0.9359  1.0689
12102TIP3    H257722   3.967   4.525   1.061 -1.0379  0.1395 -0.1847
12103TIP3   OH257723   2.639   6.721   4.594 -0.0196  0.3545  0.5079
12103TIP3    H157724   2.663   6.767   4.514 -1.4193  1.5558  0.7372
12103TIP3    H257725   2.600   6.639   4.563  0.7070  0.1870  0.0194
12104TIP3   OH257726   0.023   5.771   2.599  0.2006 -0.2794 -0.3240
12104TIP3    H157727   0.043   5.805   2.512  0.5622  0.0979 -0.0951
12104TIP3    H257728   0.097   5.714   2.620  0.4964  0.2392  0.0568
12105TIP3   OH257729   3.661   4.325  12.250  0.2851 -0.0123 -0.6799
12105TIP3    H157730   3.571   4.350  12.267  1.1613  2.4921  0.8721
12105TIP3    H257731   3.672   4.336  12.156 -0.3944  2.2801 -0.5601
12106TIP3   OH257732   5.771   3.427   1.543  0.1636  0.4006 -0.0396
12106TIP3    H157733   5.701   3.363   1.532 -0.0643  0.7497 -0.7098
12106TIP3    H257734   5.773   3.475   1.460  0.4014  1.1859  0.4036
12107TIP3   OH257735   5.389   5.798  15.224  0.2590 -0.3432 -0.3808
12107TIP3    H157736   5.440   5.863  15.176  0.9638 -1.5028 -1.2454
12107TIP3    H257737   5.321   5.771  15.163 -1.1264  0.7948  0.5761
12108TIP3   OH257738   0.605   5.386   1.337  0.9238 -0.5004 -0.0137
12108TIP3    H157739   0.633   5.391   1.246  1.4852 -1.3328  0.1053
12108TIP3    H257740   0.681   5.418   1.387  0.5958  0.0166  0.1638
12109TIP3   OH257741   1.480   4.269  14.672  0.2655  0.0458 -0.3988
12109TIP3    H157742   1.514   4.180  14.680 -2.1000 -0.8377  0.7854
12109TIP3    H257743   1.500   4.294  14.581  1.5926 -1.3986 -0.5431
12110TIP3   OH257744   4.213   4.921   0.226 -0.3072  0.1694 -0.2155
12110TIP3    H157745   4.198   4.983   0.155 -0.3106  2.7681  1.8953
12110TIP3    H257746   4.147   4.943   0.292  0.6012 -1.1215  1.1963
12111TIP3   OH257747   1.409   1.416   3.016 -0.2487  0.2091 -0.5427
12111TIP3    H157748   1.492   1.368   3.020 -0.4864 -0.2578 -1.1094
12111TIP3    H257749   1.359   1.383   3.091 -0.1032  0.1667 -0.4625
12112TIP3   OH257750   5.323   6.381  12.000 -0.3232 -0.3262 -0.1796
12112TIP3    H157751   5.373   6.453  12.037  0.0878 -0.7335  0.0632
12112TIP3    H257752   5.293   6.413  11.915 -0.0734  0.0980 -0.1073
12113TIP3   OH257753   3.971   5.048  15.642  0.2979  0.0958 -0.0357
12113TIP3    H157754   3.903   4.985  15.622 -0.3722  0.1009  1.9362
12113TIP3    H257755   3.946   5.127  15.594 -1.4589  0.2833  1.1010
12114TIP3   OH257756   5.407   4.034   4.134 -0.0263  0.2584 -0.2235
12114TIP3    H157757   5.370   4.120   4.153  1.6327  0.8452  0.4910
12114TIP3    H257758   5.405   4.027   4.039  1.8044  2.0604 -0.4666
12115TIP3   OH257759   2.827   4.200  13.719  0.1360 -0.1709 -0.6120
12115TIP3    H157760   2.858   4.117  13.681 -0.3446 -0.0515 -1.2877
12115TIP3    H257761   2.732   4.192  13.719  0.0773  0.4713 -0.8984
12116TIP3   OH257762   3.763   0.647   4.320  0.0625  0.3050  0.1151
12116TIP3    H157763   3.801   0.574   4.369  0.8228  1.1761  0.8541
12116TIP3    H257764   3.721   0.701   4.387 -3.1617 -0.9556 -0.7181
12117TIP3   OH257765   4.860   1.233  15.418  0.4902  0.4334 -0.3703
12117TIP3    H157766   4.902   1.286  15.349  0.9278  1.1908  0.4641
12117TIP3    H257767   4.910   1.252  15.497 -1.6450  1.6956  0.7579
12118TIP3   OH257768   4.155   0.622   1.952  0.4593  0.2963  0.4758
12118TIP3    H157769   4.061   0.632   1.939  0.7942  1.1662 -1.6160
12118TIP3    H257770   4.166   0.530   1.978 -0.9472  0.2410  0.9561
12119TIP3   OH257771   5.142   3.773   3.451  0.2199 -0.4029 -0.4651
12119TIP3    H157772   5.190   3.747   3.530 -1.1978 -2.0894 -0.0892
12119TIP3    H257773   5.168   3.709   3.385  0.2651  0.0996 -0.9382
12120TIP3   OH257774   5.331   2.088  16.814 -0.0016 -0.0563  0.0529
12120TIP3    H157775   5.394   2.153  16.845 -1.0317  0.4262  1.2328
12120TIP3    H257776   5.288   2.057  16.894 -1.0716 -0.5571 -0.6998
12121TIP3   OH257777   4.192   2.638   4.106  0.4130 -0.4532  0.6501
12121TIP3    H157778   4.154   2.714   4.061 -0.3870 -0.9520  0.4846
12121TIP3    H257779   4.198   2.571   4.039  0.1341 -0.8806  1.0505
12122TIP3   OH257780   0.023   1.498  15.253  0.0487  0.4237 -0.1048
12122TIP3    H157781  -0.028   1.422  15.281  1.4077 -0.1227  1.0701
12122TIP3    H257782  -0.039   1.570  15.255 -0.8297 -0.3117  0.6985
12123TIP3   OH257783   0.950   1.863   1.551 -0.4716  0.0363 -0.0909
12123TIP3    H157784   0.893   1.821   1.486 -1.7076  0.0698  0.9319
12123TIP3    H257785   0.901   1.940   1.579  0.6168  0.7245 -0.0367
12124TIP3   OH257786   0.396   0.914  14.408 -0.0110  0.2924  0.2342
12124TIP3    H157787   0.306   0.882  14.413 -0.2614  1.1256  1.3641
12124TIP3    H257788   0.424   0.922  14.499  1.3738 -0.3857 -0.1039
12125TIP3   OH257789   4.174   5.631   6.133 -0.0775  0.3380  0.0160
12125TIP3    H157790   4.133   5.544   6.133  1.0801 -0.2458 -1.6298
12125TIP3    H257791   4.204   5.643   6.223 -1.4053 -0.3743  0.5945
12126TIP3   OH257792   3.621   2.339   1.016 -0.2405 -0.8879 -0.1257
12126TIP3    H157793   3.572   2.311   1.093  0.5187 -1.5692  0.1146
12126TIP3    H257794   3.713   2.339   1.043 -0.1052  0.8769 -0.4205
12127TIP3   OH257795   3.961   6.794  13.720 -0.0956  0.4596  0.3538
12127TIP3    H157796   4.013   6.871  13.698  1.6104 -0.6035  0.4589
12127TIP3    H257797   3.992   6.726  13.660 -0.3153 -0.6159  1.4055
12128TIP3   OH257798   5.637   5.318   3.937  0.0279  0.1342  0.1203
12128TIP3    H157799   5.697   5.246   3.920 -0.9501 -0.5196 -0.7617
12128TIP3    H257800   5.668   5.358   4.018  1.6746 -0.1132 -0.3501
12129TIP3   OH257801   1.854   6.507   4.209  0.1267  0.2994 -0.3931
12129TIP3    H157802   1.817   6.588   4.245  1.8772  0.7073  0.6223
12129TIP3    H257803   1.848   6.444   4.281  1.8369  0.5344 -0.0150
12130TIP3   OH257804   0.171   6.725   5.612  0.5241 -0.6576  0.1177
12130TIP3    H157805   0.086   6.755   5.644  1.2515 -0.5962  2.1638
12130TIP3    H257806   0.196   6.655   5.672  1.1232 -1.9465 -1.5647
12131TIP3   OH257807   3.096   1.999   5.321 -0.5012 -0.5632 -0.2666
12131TIP3    H157808   3.012   2.045   5.322 -0.3143 -0.1456  1.8171
12131TIP3    H257809   3.106   1.967   5.410  2.0907  0.4335 -0.0991
12132TIP3   OH257810   4.578   1.389   2.372 -0.4284  0.4555 -0.2277
12132TIP3    H157811   4.664   1.426   2.355 -0.6626  0.2742 -1.9620
12132TIP3    H257812   4.565   1.401   2.466  2.4767 -1.7139  0.5944
12133TIP3   OH257813   5.136   3.986   1.376 -0.4257 -0.2146  0.1749
12133TIP3    H157814   5.068   3.996   1.310  0.7004  0.7357 -0.8832
12133TIP3    H257815   5.160   4.075   1.400 -0.4530 -0.5395  1.5109
12134TIP3   OH257816   1.113   1.029   3.162  0.3494 -0.4608  0.2382
12134TIP3    H157817   1.077   1.082   3.091  0.1662 -0.5536  0.2628
12134TIP3    H257818   1.208   1.038   3.152  0.3399  1.0508  1.0956
12135TIP3   OH257819   1.386   3.367  16.764  0.2512  0.5505 -0.5286
12135TIP3    H157820   1.292   3.365  16.781  0.0754 -0.4729 -1.4943
12135TIP3    H257821   1.427   3.363  16.850 -0.5801  1.2194 -0.0879
12136TIP3   OH257822   5.192   1.435   3.635  0.6906  0.5000  0.0517
12136TIP3    H157823   5.157   1.517   3.669 -2.7928 -0.0461 -1.7917
12136TIP3    H257824   5.241   1.460   3.556  2.4257  1.0221  1.2388
12137TIP3   OH257825   0.624   4.838  15.306 -0.0017  0.4665 -0.2143
12137TIP3    H157826   0.594   4.749  15.287 -1.8626  1.3555 -1.8406
12137TIP3    H257827   0.708   4.844  15.261  1.4328 -1.1809  2.0110
12138TIP3   OH257828   2.117   2.974  12.082 -0.1286  0.2895  0.0753
12138TIP3    H157829   2.165   2.892  12.073 -2.3536 -1.1142  0.0861
12138TIP3    H257830   2.054   2.973  12.009  0.7115  2.7157 -0.7915
12139TIP3   OH257831   1.648   6.595   3.619 -0.2277  0.3140  0.6023
12139TIP3    H157832   1.561   6.610   3.657 -0.2162 -3.0837  2.3906
12139TIP3    H257833   1.636   6.521   3.560  1.3661 -0.0350  0.6660
12140TIP3   OH257834   1.631   5.935   4.985  0.1837 -0.6697  0.0544
12140TIP3    H157835   1.602   6.021   4.954 -0.0839  0.1060  2.2596
12140TIP3    H257836   1.726   5.943   4.993 -0.0913  0.7614  3.6321
12141TIP3   OH257837   4.110   1.919   4.157 -0.0713 -0.3190 -0.6172
12141TIP3    H157838   4.143   1.898   4.070  4.4912  0.7334  0.5955
12141TIP3    H257839   4.065   1.839   4.184 -0.8747 -0.9902 -3.5427
12142TIP3   OH257840   1.515   1.852   3.043  0.1544  0.2611 -0.0552
12142TIP3    H157841   1.511   1.885   2.954 -0.4320 -1.2386 -0.6262
12142TIP3    H257842   1.601   1.810   3.050 -0.4091 -1.0131 -0.4705
12143TIP3   OH257843   3.541   5.384  15.495 -0.6330  0.0972  0.1059
12143TIP3    H157844   3.574   5.387  15.584  1.3915 -1.7236 -0.5043
12143TIP3    H257845   3.534   5.291  15.475 -2.0614  0.4596 -1.3017
12144TIP3   OH257846   3.627   2.414  14.915 -0.1463 -0.5613 -0.2990
12144TIP3    H157847   3.695   2.352  14.887 -0.2635 -0.2475 -1.3452
12144TIP3    H257848   3.565   2.361  14.965  0.7646 -0.8878  0.4999
12145TIP3   OH257849   4.704   5.029  13.225 -0.0571  0.2075  0.2169
12145TIP3    H157850   4.771   5.065  13.283  0.2469  0.7539 -0.4532
12145TIP3    H257851   4.670   5.105  13.178  0.6817 -0.3727 -1.3157
12146TIP3   OH257852   0.097   4.355   0.776  0.1054 -0.3761 -0.0590
12146TIP3    H157853   0.020   4.298   0.774 -1.6439  1.7579  0.9700
12146TIP3    H257854   0.083   4.418   0.706  0.5280  0.4762  0.5950
12147TIP3   OH257855   5.993   2.140   1.485  0.2315 -0.1138 -0.4328
12147TIP3    H157856   6.057   2.103   1.545  0.1110 -0.4479 -0.5077
12147TIP3    H257857   6.031   2.224   1.458  0.5172 -0.1931 -0.2789
12148TIP3   OH257858   5.571   0.185  16.965  0.0669 -0.0693  0.3039
12148TIP3    H157859   5.522   0.146  16.893  1.2588  1.6101 -1.5270
12148TIP3    H257860   5.517   0.259  16.994  0.2007  0.0564  0.2335
12149TIP3   OH257861   3.070   0.537   5.354 -0.1614 -0.3398  0.5447
12149TIP3    H157862   2.981   0.518   5.382 -0.4170  1.6361  1.2472
12149TIP3    H257863   3.125   0.503   5.425 -0.3834 -0.9511  0.4317
12150TIP3   OH257864   0.007   0.955   3.250 -0.1776  0.1001 -0.0599
12150TIP3    H157865  -0.078   0.915   3.268  0.5158 -0.5934  2.0009
12150TIP3    H257866   0.061   0.883   3.218 -0.3198  0.5204 -1.2795
12151TIP3   OH257867   6.282   0.639  13.598  0.2455 -0.2303  0.1970
12151TIP3    H157868   6.216   0.574  13.623 -0.9049  0.8746  0.1031
12151TIP3    H257869   6.275   0.707  13.664  0.4369  0.4837 -0.5017
12152TIP3   OH257870   6.034   4.199  15.560 -0.2667  0.4093 -0.7030
12152TIP3    H157871   6.030   4.190  15.465 -0.4944  0.8537 -0.7377
12152TIP3    H257872   6.020   4.293  15.576  0.2277  0.4127 -0.2584
12153TIP3   OH257873   0.427   3.404  13.490 -0.3069  0.2161  0.0067
12153TIP3    H157874   0.477   3.424  13.411  0.8349 -0.3705  0.5447
12153TIP3    H257875   0.494   3.386  13.557 -1.2245 -1.2129  0.5957
12154TIP3   OH257876   5.758   3.023   0.130  0.0540 -0.3345 -0.6262
12154TIP3    H157877   5.770   2.932   0.156  0.7560 -0.2406 -0.5877
12154TIP3    H257878   5.763   3.022   0.035 -0.8771 -0.4561 -0.6836
12155TIP3   OH257879   3.100   0.890  15.416 -0.4304 -0.1434  0.2755
12155TIP3    H157880   3.146   0.867  15.497  2.3531 -0.3161 -1.2248
12155TIP3    H257881   3.132   0.977  15.394 -2.0068  0.3704 -0.0947
12156TIP3   OH257882   2.406   6.370  12.506 -0.0507  0.1139 -0.2007
12156TIP3    H157883   2.351   6.329  12.439 -0.2931  0.2687 -0.0996
12156TIP3    H257884   2.423   6.458  12.472  0.8605 -0.2294 -0.6377
12157TIP3   OH257885   1.632   0.441  12.051  0.1754  0.5871  0.2846
12157TIP3    H157886   1.592   0.495  11.982 -0.1682  0.2995  0.2595
12157TIP3    H257887   1.669   0.366  12.004 -0.5041  0.1321  0.4662
12158TIP3   OH257888   5.490   6.463   3.350 -0.1128 -0.5656  0.4981
12158TIP3    H157889   5.459   6.376   3.376  1.0082 -0.9231  0.7055
12158TIP3    H257890   5.557   6.446   3.283  1.7225 -0.0281  2.0992
12159TIP3   OH257891   3.643   5.370  12.477  0.4517 -0.0240 -0.2703
12159TIP3    H157892   3.682   5.283  12.473 -0.4062 -0.4177 -0.1775
12159TIP3    H257893   3.554   5.359  12.444  0.5913  0.9787 -1.0521
12160TIP3   OH257894   5.409   1.841   0.920  0.0168  0.1440  0.4107
12160TIP3    H157895   5.470   1.767   0.912 -1.2760 -0.8959 -0.0984
12160TIP3    H257896   5.379   1.837   1.011 -0.6095 -0.4392  0.1910
12161TIP3   OH257897   1.052   4.525   4.265 -0.0644 -0.3691  0.2944
12161TIP3    H157898   0.957   4.536   4.259 -0.0092 -0.2368 -0.5430
12161TIP3    H257899   1.071   4.449   4.211  0.6587  1.7447 -2.7227
12162TIP3   OH257900   6.069   5.274  15.971 -0.2762 -0.3443  0.2741
12162TIP3    H157901   6.126   5.286  15.896 -0.7822  0.6285  0.0262
12162TIP3    H257902   6.068   5.179  15.986 -1.5374 -0.7701 -2.0434
12163TIP3   OH257903   5.463   6.569  15.837 -0.1433  0.1988 -0.1080
12163TIP3    H157904   5.385   6.611  15.802 -0.1978 -1.4645 -2.2221
12163TIP3    H257905   5.532   6.589  15.772  0.9148  0.6721  1.1200
12164TIP3   OH257906   3.749   2.354  14.171  0.3456  0.3032  0.7189
12164TIP3    H157907   3.718   2.444  14.155 -0.0273  0.3160  1.4942
12164TIP3    H257908   3.710   2.329  14.254 -1.3109 -1.3788 -0.4875
12165TIP3   OH257909   5.188   2.577  13.532 -0.5430 -0.3699 -0.3939
12165TIP3    H157910   5.174   2.497  13.584  0.4501 -0.3897 -0.1386
12165TIP3    H257911   5.100   2.602  13.503 -0.9331 -1.2408 -0.0094
12166TIP3   OH257912   3.636   6.090  12.796  0.0571  0.0688 -0.0213
12166TIP3    H157913   3.617   6.067  12.887 -0.1179 -0.3063 -0.1500
12166TIP3    H257914   3.552   6.083  12.751 -0.0100  0.9816 -0.0684
12167TIP3   OH257915   2.709   0.342  15.377 -0.2237 -0.0369 -0.1564
12167TIP3    H157916   2.804   0.352  15.373 -0.1654  0.1813  1.2647
12167TIP3    H257917   2.678   0.375  15.293  1.0004 -0.8226 -0.9459
12168TIP3   OH257918   6.022   2.544   1.076  0.0018 -0.0747 -0.2232
12168TIP3    H157919   6.043   2.456   1.045 -0.4191 -0.1282 -0.3599
12168TIP3    H257920   6.063   2.549   1.163  0.5482 -0.1873 -0.4720
12169TIP3   OH257921   0.192   0.317   2.397 -0.6273 -0.4362  0.0010
12169TIP3    H157922   0.239   0.265   2.332 -0.0418 -0.3421  0.3420
12169TIP3    H257923   0.140   0.379   2.345  1.4430  1.0889 -0.4193
12170TIP3   OH257924   0.157   5.983   2.469 -0.0406  0.9857  0.0258
12170TIP3    H157925   0.180   6.071   2.440  1.7826  0.2446 -0.9384
12170TIP3    H257926   0.129   5.939   2.388  2.0933 -0.2031 -0.1215
12171TIP3   OH257927   6.222   2.283  13.218 -0.3497 -0.0650 -0.0646
12171TIP3    H157928   6.154   2.332  13.170 -1.0655 -1.0192 -0.0425
12171TIP3    H257929   6.278   2.248  13.149  0.7387  1.5273 -0.0602
12172TIP3   OH257930   5.978   5.109   2.820 -0.2706  0.1477 -0.4668
12172TIP3    H157931   6.072   5.123   2.828 -0.0120 -0.7984 -1.6478
12172TIP3    H257932   5.950   5.175   2.756 -0.7998  1.7552  1.3012
12173TIP3   OH257933   2.126   2.249   4.247 -0.6012  0.2653  0.1300
12173TIP3    H157934   2.155   2.313   4.312 -2.7181 -0.9955  2.5059
12173TIP3    H257935   2.187   2.260   4.174  1.7221  2.0372  2.1456
12174TIP3   OH257936   3.112   0.686   0.565 -0.6864 -0.0158 -0.1270
12174TIP3    H157937   3.143   0.670   0.476  2.7125  0.2114  0.8808
12174TIP3    H257938   3.039   0.747   0.554 -0.1622  0.2868 -2.7221
12175TIP3   OH257939   2.004   1.837   4.439  0.3555 -0.5048  0.1062
12175TIP3    H157940   2.066   1.826   4.368  0.9739  1.2998  0.3183
12175TIP3    H257941   2.032   1.916   4.484 -2.4117  0.7605 -0.1472
12176TIP3   OH257942   0.760   3.803  12.938  0.6354 -0.2294 -0.3761
12176TIP3    H157943   0.744   3.778  12.847 -0.2516 -0.2634 -0.2224
12176TIP3    H257944   0.684   3.855  12.963  0.4176 -0.9863  0.6311
12177TIP3   OH257945   0.610   5.576   5.473  0.7310 -0.2039 -0.4694
12177TIP3    H157946   0.528   5.588   5.521 -0.1279 -1.4991 -1.5397
12177TIP3    H257947   0.676   5.565   5.541 -0.4183 -1.8358  0.4385
12178TIP3   OH257948   1.560   2.477  15.264  0.4544  0.0082  0.1951
12178TIP3    H157949   1.518   2.560  15.242  0.5818 -0.0629 -0.3249
12178TIP3    H257950   1.648   2.501  15.292 -0.3331  0.2860  2.6018
12179TIP3   OH257951   0.664   4.407   3.924 -0.4720 -0.4544  0.1195
12179TIP3    H157952   0.745   4.451   3.952 -0.1703 -0.8421 -0.1249
12179TIP3    H257953   0.646   4.444   3.838 -0.1294 -0.9078 -0.1567
12180TIP3   OH257954   6.711   1.989   7.010  0.1710  0.2772  0.4111
12180TIP3    H157955   6.718   1.906   6.962  1.1677 -0.3924  1.6561
12180TIP3    H257956   6.766   2.050   6.961 -0.0870  0.0505 -0.1742
12181TIP3   OH257957   4.054   3.797  11.352 -0.8510  0.1341  0.1059
12181TIP3    H157958   4.036   3.708  11.384 -0.6856  0.4797  1.1963
12181TIP3    H257959   4.072   3.785  11.259  2.6681 -1.5140  0.7961
12182TIP3   OH257960   2.314   2.857   4.565 -0.5981 -0.4661  0.1246
12182TIP3    H157961   2.340   2.843   4.473 -1.8403  3.1891 -0.9500
12182TIP3    H257962   2.395   2.845   4.615  0.1040 -2.6077 -1.3512
12183TIP3   OH257963   0.339   1.843  15.364  0.6192 -0.0498 -0.2461
12183TIP3    H157964   0.263   1.839  15.422 -0.0811  0.3904 -1.1054
12183TIP3    H257965   0.395   1.771  15.393 -0.3375 -0.6760  0.1200
12184TIP3   OH257966   4.110   6.063   0.825  0.2753  0.4001 -0.3616
12184TIP3    H157967   4.078   6.153   0.818  0.8445  0.8746  2.0841
12184TIP3    H257968   4.198   6.072   0.863  0.7880 -1.1555 -1.1127
12185TIP3   OH257969   2.043   3.321   3.786  0.7751  0.4374  0.4019
12185TIP3    H157970   2.031   3.392   3.723 -0.7747 -2.2131 -2.5453
12185TIP3    H257971   2.056   3.243   3.732 -0.8334 -2.0773  3.3359
12186TIP3   OH257972   2.832   2.309  15.903 -0.4193 -0.2204  0.5018
12186TIP3    H157973   2.766   2.315  15.972 -0.8980  2.1501 -0.0811
12186TIP3    H257974   2.781   2.294  15.823 -0.2737  1.3497  0.0868
12187TIP3   OH257975   2.076   1.583   2.520  0.0566  0.4225 -0.5217
12187TIP3    H157976   2.028   1.557   2.441  0.8052  2.1224 -1.6027
12187TIP3    H257977   2.131   1.508   2.541 -1.3557 -0.6767 -0.6273
12188TIP3   OH257978   4.321   3.702   1.652  0.3159  0.2573 -0.0313
12188TIP3    H157979   4.302   3.771   1.716  0.7635  0.2936  0.0631
12188TIP3    H257980   4.391   3.651   1.691 -0.3544 -0.5694  0.1240
12189TIP3   OH257981   6.481   5.032   5.392  0.3382  0.1817 -1.0010
12189TIP3    H157982   6.465   4.958   5.333  0.0616 -1.5185  1.0938
12189TIP3    H257983   6.406   5.090   5.378  1.2425  0.8377 -3.6780
12190TIP3   OH257984   0.558   4.712  12.252  0.4587  0.5341  0.4649
12190TIP3    H157985   0.641   4.747  12.284  1.1004  1.5631 -2.0414
12190TIP3    H257986   0.574   4.618  12.241  0.1347  0.0985  3.1474
12191TIP3   OH257987   2.698   6.052  16.723  0.0932  0.1917 -0.1143
12191TIP3    H157988   2.625   6.023  16.778  0.3734 -1.3443 -0.4936
12191TIP3    H257989   2.684   6.007  16.640  1.6431 -0.4247 -0.0712
12192TIP3   OH257990   6.604   3.427  10.432 -0.0538 -0.8783  0.2395
12192TIP3    H157991   6.627   3.343  10.472  1.4507 -1.1789 -1.1156
12192TIP3    H257992   6.512   3.418  10.408 -0.8553 -0.8805  3.0155
12193TIP3   OH257993   6.424   2.169   3.959  0.0432 -0.1613 -0.1784
12193TIP3    H157994   6.454   2.212   3.878  1.3210 -2.0035 -0.7572
12193TIP3    H257995   6.331   2.153   3.944 -0.1288  1.0454 -0.5443
12194TIP3   OH257996   3.039   4.009   4.166 -0.5425 -0.1377  0.0474
12194TIP3    H157997   2.946   3.997   4.151 -0.6088  0.6183 -0.2129
12194TIP3    H257998   3.050   4.104   4.174 -0.1339 -0.3254  2.3892
12195TIP3   OH257999   2.441   0.036  12.027 -0.2058  0.4212 -0.1465
12195TIP3    H158000   2.411   0.126  12.039  0.3989  0.8710 -1.7342
12195TIP3    H258001   2.377  -0.003  11.968 -1.1101 -0.5875  1.4315
12196TIP3   OH258002   6.298   5.919   4.613  0.3073  0.5567 -0.2347
12196TIP3    H158003   6.321   5.828   4.595 -0.7717  0.2493 -0.1432
12196TIP3    H258004   6.356   5.944   4.685 -0.4389 -0.5654  0.7973
12197TIP3   OH258005   5.349   5.324   1.566  0.1310 -0.5097  0.5506
12197TIP3    H158006   5.387   5.237   1.576 -0.0489 -0.6553 -0.0155
12197TIP3    H258007   5.424   5.384   1.571  0.4885 -0.8120 -0.8493
12198TIP3   OH258008   4.053   0.923  14.999 -0.3365  0.2898  0.5103
12198TIP3    H158009   4.132   0.949  15.046 -0.9871 -1.6691  2.8956
12198TIP3    H258010   4.005   1.005  14.986  1.2399  1.2721  0.6294
12199TIP3   OH258011   6.288   2.585   0.780 -0.1795  0.3060  0.1984
12199TIP3    H158012   6.220   2.652   0.790  0.1009  0.7647 -0.8456
12199TIP3    H258013   6.309   2.558   0.870 -0.0889  1.8249  0.6534
12200TIP3   OH258014   1.022   3.287   3.488 -0.0813  0.2805  0.1138
12200TIP3    H158015   1.102   3.252   3.450 -0.3985 -2.5477  1.7985
12200TIP3    H258016   1.052   3.360   3.543  1.2120 -0.1995  0.0780
12201TIP3   OH258017   4.825   0.350  16.201 -0.3427 -0.5581  0.1449
12201TIP3    H158018   4.915   0.328  16.182  0.1375 -1.0128  2.5502
12201TIP3    H258019   4.830   0.432  16.250 -1.1628 -0.8567  0.7690
12202TIP3   OH258020   4.046   6.725   3.410 -0.3748  0.4584  0.0215
12202TIP3    H158021   4.008   6.662   3.472 -4.3052 -0.3569 -2.8349
12202TIP3    H258022   4.005   6.808   3.432  0.0204  0.6834 -0.0845
12203TIP3   OH258023   5.988   0.558   1.623 -0.0903  0.2284 -0.3363
12203TIP3    H158024   6.036   0.486   1.664 -0.6797 -0.5160 -0.9215
12203TIP3    H258025   6.056   0.615   1.587  0.3789 -0.2845 -0.2744
12204TIP3   OH258026   2.009   2.664  14.973  0.4006 -0.5515 -0.1891
12204TIP3    H158027   2.045   2.658  14.885 -0.2886  1.1581 -0.6433
12204TIP3    H258028   1.989   2.574  14.998  1.0043 -1.1006 -1.5974
12205TIP3   OH258029   5.766   3.388   2.032 -0.3533  0.2742 -0.0540
12205TIP3    H158030   5.856   3.404   2.002 -0.5822  1.5145 -0.1293
12205TIP3    H258031   5.731   3.325   1.969 -0.0117  0.9394 -0.9385
12206TIP3   OH258032   0.650   0.512  13.976  0.2805  0.4222  0.3455
12206TIP3    H158033   0.743   0.497  13.991  0.6242  3.0715  1.3194
12206TIP3    H258034   0.645   0.601  13.942 -1.7765 -0.3628 -1.7253
12207TIP3   OH258035   5.721   6.566   0.667 -0.1712 -0.0720  0.5443
12207TIP3    H158036   5.739   6.651   0.628  0.8784 -2.1142 -4.0519
12207TIP3    H258037   5.626   6.555   0.658  0.1119 -0.8889 -2.9336
12208TIP3   OH258038   4.636   0.546  13.397 -0.3662 -0.1671  0.3367
12208TIP3    H158039   4.643   0.632  13.355 -1.4236 -0.0216  0.4232
12208TIP3    H258040   4.647   0.483  13.326  0.5152  0.0261  0.2897
12209TIP3   OH258041   3.424   5.395  14.111 -0.2587  0.1461  0.2464
12209TIP3    H158042   3.401   5.418  14.021 -0.1354  0.7425  0.3627
12209TIP3    H258043   3.504   5.343  14.103  0.2072  0.8847  0.0610
12210TIP3   OH258044   0.075   2.593  15.732 -0.0413 -0.2259  0.2648
12210TIP3    H158045   0.106   2.591  15.823  0.3887  0.6459  0.1471
12210TIP3    H258046   0.152   2.569  15.680  0.4852  1.9067 -0.0259
12211TIP3   OH258047   4.247   0.887  14.768  0.4386  0.0848  0.1882
12211TIP3    H158048   4.213   0.821  14.707 -1.0113  1.4511 -0.5382
12211TIP3    H258049   4.188   0.883  14.843 -1.6697  2.6245 -1.1739
12212TIP3   OH258050   0.450   0.636   4.544  0.4647  0.5701  0.8430
12212TIP3    H158051   0.438   0.600   4.456  0.1444  1.4854  0.5049
12212TIP3    H258052   0.530   0.594   4.576  0.5871  0.2313  0.1206
12213TIP3   OH258053   2.279   0.069  16.717 -0.0472 -0.4864 -0.1024
12213TIP3    H158054   2.225   0.142  16.746 -0.3020 -0.5367 -0.4523
12213TIP3    H258055   2.366   0.089  16.752 -0.6198 -1.2286  1.9105
12214TIP3   OH258056   1.622   1.400  14.902  0.2079  0.0740  0.2261
12214TIP3    H158057   1.703   1.404  14.851 -0.2749  1.4162 -0.4900
12214TIP3    H258058   1.651   1.412  14.993  0.7582  1.3527 -0.0970
12215TIP3   OH258059   3.242   1.027  13.503  0.2260  0.4391 -0.0758
12215TIP3    H158060   3.328   1.010  13.540  0.8449  2.1381 -0.6484
12215TIP3    H258061   3.258   1.087  13.430 -1.4239  0.7733 -0.2052
12216TIP3   OH258062   2.718   3.102   3.146 -0.0226 -1.2046 -0.3278
12216TIP3    H158063   2.747   3.182   3.103 -1.2685 -0.9803 -0.7969
12216TIP3    H258064   2.794   3.073   3.197  0.2737  0.6036  0.3562
12217TIP3   OH258065   5.978   0.552  14.621 -0.0239  0.7570  0.2150
12217TIP3    H158066   6.015   0.544  14.533 -0.4518 -0.8200  0.1495
12217TIP3    H258067   6.020   0.630  14.657  2.1511 -0.0234 -0.4545
12218TIP3   OH258068   3.318   0.174   1.546  0.1581  0.2485  0.6550
12218TIP3    H158069   3.282   0.101   1.495  0.4850  0.2286  0.4521
12218TIP3    H258070   3.245   0.236   1.553 -0.2584 -0.2888  1.2045
12219TIP3   OH258071   6.222   5.048   0.650 -0.8225  0.1629  0.6560
12219TIP3    H158072   6.244   4.959   0.623 -3.2840 -0.4919  0.5461
12219TIP3    H258073   6.307   5.091   0.663  0.4528 -1.5664 -1.2516
12220TIP3   OH258074   1.344   6.343  12.724  0.2807  0.0689 -0.2992
12220TIP3    H158075   1.275   6.331  12.790  0.6223 -0.3830 -0.0209
12220TIP3    H258076   1.426   6.326  12.771  0.6174  1.0082 -0.5278
12221TIP3   OH258077   0.634   6.659  12.051  0.4401 -0.7583 -0.5750
12221TIP3    H158078   0.586   6.609  12.117 -0.4004 -1.5663 -1.7494
12221TIP3    H258079   0.724   6.661  12.083 -0.3018  0.6708  1.6084
12222TIP3   OH258080   1.218   4.752  16.366  0.3404 -0.2460  0.2656
12222TIP3    H158081   1.311   4.761  16.343  0.6589 -0.3400  1.4634
12222TIP3    H258082   1.202   4.657  16.364  0.5007 -0.2914  0.8894
12223TIP3   OH258083   0.952   4.974  16.127  0.1773  0.0977  0.2370
12223TIP3    H158084   1.036   5.000  16.166 -0.7925  1.4905  1.5548
12223TIP3    H258085   0.934   5.043  16.063 -1.0140  1.1283  1.6206
12224TIP3   OH258086   2.726   3.314  15.266 -0.9136 -0.5119 -0.0537
12224TIP3    H158087   2.675   3.394  15.255 -0.2270 -0.0284  0.2134
12224TIP3    H258088   2.757   3.317  15.356  2.5865  1.0579 -1.1500
12225TIP3   OH258089   5.236   4.738   4.555 -0.1292  0.1995 -0.0844
12225TIP3    H158090   5.242   4.742   4.651 -0.0476  2.8645 -0.1212
12225TIP3    H258091   5.318   4.779   4.525  0.7571 -2.3219 -1.3875
12226TIP3   OH258092   0.192   2.288   0.623 -0.0863  0.1495  0.4965
12226TIP3    H158093   0.190   2.218   0.688  0.3037 -2.2874 -1.9431
12226TIP3    H258094   0.280   2.325   0.631  0.4395 -1.0399  0.5075
12227TIP3   OH258095   4.007   1.438  15.167  0.4344 -0.0623  0.3531
12227TIP3    H158096   4.036   1.479  15.248  0.6893  1.0485 -0.2715
12227TIP3    H258097   3.924   1.481  15.147  1.9427  2.2179 -1.6987
12228TIP3   OH258098   3.479   0.071  12.290  0.1306 -0.5076 -0.3593
12228TIP3    H158099   3.543   0.019  12.337  0.7454  2.2281  2.1346
12228TIP3    H258100   3.397   0.058  12.338  0.1534  0.2877 -0.0844
12229TIP3   OH258101   1.995   6.800   2.053 -0.1426 -0.0588 -0.4296
12229TIP3    H158102   2.039   6.737   2.110  1.6951  0.3208 -1.3495
12229TIP3    H258103   2.057   6.873   2.045 -1.0356  0.6068 -1.6087
12230TIP3   OH258104   1.072   5.437   4.972 -0.4704 -0.5633  0.1138
12230TIP3    H158105   1.053   5.439   5.066 -1.2828  1.5000 -0.0281
12230TIP3    H258106   1.086   5.529   4.949 -0.4495 -1.0095 -1.8307
12231TIP3   OH258107   1.185   2.159  13.756  0.6744  0.7672 -0.1777
12231TIP3    H158108   1.249   2.097  13.792  0.6851 -0.3317 -1.9858
12231TIP3    H258109   1.120   2.169  13.826 -0.4236 -2.8810 -0.4536
12232TIP3   OH258110   4.060   4.349   5.050  0.8317 -0.3136  0.8031
12232TIP3    H158111   4.027   4.423   5.000  2.8706  1.8366  2.4727
12232TIP3    H258112   3.990   4.330   5.113 -1.3965 -2.5122 -2.0454
12233TIP3   OH258113   4.704   1.192   5.318 -0.4264  0.1720 -0.2463
12233TIP3    H158114   4.740   1.130   5.255  1.0329 -0.1014  0.7848
12233TIP3    H258115   4.744   1.276   5.295 -1.7165  0.5697 -1.1003
12234TIP3   OH258116   6.116   5.294   4.115  0.6147  0.0343  0.1366
12234TIP3    H158117   6.208   5.317   4.103  0.6001 -0.7427 -1.8883
12234TIP3    H258118   6.076   5.372   4.153  2.0587  0.4558  0.8570
12235TIP3   OH258119   1.443   2.932  15.734 -0.0854 -0.4572  0.3168
12235TIP3    H158120   1.477   2.995  15.670 -1.3701  0.6492  0.6759
12235TIP3    H258121   1.366   2.976  15.772  1.3101 -0.5531  3.5388
12236TIP3   OH258122   6.183   0.596  11.796  0.1508 -0.1057  0.4337
12236TIP3    H158123   6.187   0.535  11.723 -0.6631  0.1203  0.1917
12236TIP3    H258124   6.245   0.560  11.860 -1.5462 -2.1619  1.0332
12237TIP3   OH258125   6.117   0.133  12.056 -1.0410 -0.0440  0.3236
12237TIP3    H158126   6.046   0.081  12.018 -1.7416  1.5914 -0.6841
12237TIP3    H258127   6.097   0.223  12.033 -0.5739  0.8992  3.1620
12238TIP3   OH258128   2.582   3.507  13.875 -0.2576  0.4060  0.4364
12238TIP3    H158129   2.633   3.489  13.797  1.0094  0.7334  1.1672
12238TIP3    H258130   2.515   3.569  13.847 -0.3416 -0.1085 -0.5547
12239TIP3   OH258131   6.555   2.986   1.665 -0.4061 -0.5669 -0.2158
12239TIP3    H158132   6.581   2.951   1.580 -0.3582  0.1379 -0.5008
12239TIP3    H258133   6.462   2.964   1.673 -0.2991 -1.0456 -0.2314
12240TIP3   OH258134   0.491   4.275   2.730  0.3165  0.0275 -0.0740
12240TIP3    H158135   0.503   4.344   2.796  1.4638  1.2026 -1.4415
12240TIP3    H258136   0.424   4.218   2.767 -0.8322  1.9795  1.0401
12241TIP3   OH258137   5.809   5.907   0.889 -0.2206 -0.2878  0.1777
12241TIP3    H158138   5.746   5.971   0.920 -0.6619 -1.0097  0.7892
12241TIP3    H258139   5.894   5.945   0.911 -0.4453  0.4934 -0.2721
12242TIP3   OH258140   1.172   4.619   5.459 -0.0251  0.4812  0.2115
12242TIP3    H158141   1.240   4.579   5.513  0.6616 -0.2785 -1.1583
12242TIP3    H258142   1.139   4.692   5.512  2.0787  1.0737  0.7955
12243TIP3   OH258143   4.339   2.723   5.956  0.0148 -0.2229  0.2032
12243TIP3    H158144   4.266   2.687   6.006 -0.6072 -2.4407 -2.0818
12243TIP3    H258145   4.300   2.795   5.905  0.5376  1.6842  2.3424
12244TIP3   OH258146   0.804   6.421  14.240 -0.0541 -0.3947  0.4191
12244TIP3    H158147   0.879   6.361  14.239  1.8237  1.8171  1.0696
12244TIP3    H258148   0.795   6.448  14.148 -0.9874 -1.6945  0.1008
12245TIP3   OH258149   3.380   0.045   4.201  0.0691  0.3214 -0.8850
12245TIP3    H158150   3.324   0.101   4.254 -0.1801  0.2214 -1.0415
12245TIP3    H258151   3.445   0.012   4.263 -0.9720 -0.8065 -0.3423
12246TIP3   OH258152   5.426   3.587   0.413  0.0094  0.3016  0.8404
12246TIP3    H158153   5.383   3.672   0.420  0.5367  0.4784  2.1469
12246TIP3    H258154   5.518   3.605   0.430  0.6095 -0.1364 -1.5257
12247TIP3   OH258155   3.488   5.003   1.580 -0.1340 -0.7519  0.4271
12247TIP3    H158156   3.562   4.970   1.529 -0.0120 -0.6484  0.5362
12247TIP3    H258157   3.526   5.023   1.666  0.2416  1.5995 -0.2093
12248TIP3   OH258158   6.306   5.310  11.125  0.1471  0.2071  0.0142
12248TIP3    H158159   6.316   5.255  11.202  0.4321  0.1124 -0.0902
12248TIP3    H258160   6.261   5.254  11.062  1.6281 -0.3822 -0.5758
12249TIP3   OH258161   2.252   5.771   2.543 -0.7730 -0.0266  0.6765
12249TIP3    H158162   2.265   5.806   2.455 -2.1726 -2.4247 -0.5968
12249TIP3    H258163   2.302   5.689   2.543 -0.5060  0.1042  2.2684
12250TIP3   OH258164   0.114   2.870   4.414 -0.2722  0.7896 -0.2458
12250TIP3    H158165   0.048   2.852   4.347 -1.0588  1.3504  0.3624
12250TIP3    H258166   0.086   2.817   4.489  1.0707 -0.4934 -0.6132
12251TIP3   OH258167   1.676   1.167  11.931 -0.2373 -0.2934 -0.5470
12251TIP3    H158168   1.588   1.192  11.903  0.0722 -0.4722 -1.7320
12251TIP3    H258169   1.733   1.233  11.890  0.2917 -0.9727 -0.9190
12252TIP3   OH258170   0.842   2.033  16.708 -0.4704 -0.1936  0.3391
12252TIP3    H158171   0.800   2.062  16.626  0.0185 -0.1807  0.0927
12252TIP3    H258172   0.936   2.039  16.690 -0.3617 -0.8074  0.6840
12253TIP3   OH258173   1.041   3.194  16.325 -0.9176 -0.1667  0.4610
12253TIP3    H158174   0.949   3.182  16.345 -0.9672 -0.6069 -0.0153
12253TIP3    H258175   1.070   3.262  16.386 -1.9435  1.1518 -0.4774
12254TIP3   OH258176   5.569   0.739   6.041 -0.5542  0.0243 -0.8149
12254TIP3    H158177   5.531   0.659   6.078  0.0991 -0.7004 -1.6737
12254TIP3    H258178   5.502   0.773   5.983 -0.5476 -0.3089 -1.0165
12255TIP3   OH258179   1.219   2.772   2.565  0.0836  0.4202  0.1565
12255TIP3    H158180   1.279   2.724   2.621  1.1731  1.8852  0.2962
12255TIP3    H258181   1.177   2.835   2.623 -2.4072 -1.2287  0.2821
12256TIP3   OH258182   3.291   6.509   1.346 -0.2441  0.1746 -0.3269
12256TIP3    H158183   3.368   6.524   1.400  1.7371 -0.3541 -2.8145
12256TIP3    H258184   3.253   6.428   1.380 -0.0623  0.7378  1.2959
12257TIP3   OH258185   2.642   5.346   5.551  0.0463  0.3741  0.0601
12257TIP3    H158186   2.548   5.348   5.571  0.0427  1.0634 -0.0308
12257TIP3    H258187   2.659   5.254   5.529 -0.3800  0.0148  1.1675
12258TIP3   OH258188   2.441   6.635   3.455 -0.0435  0.4258 -0.0203
12258TIP3    H158189   2.409   6.570   3.391 -0.5128 -0.6035  1.2113
12258TIP3    H258190   2.456   6.584   3.535  4.1974  0.8916 -0.2730
12259TIP3   OH258191   3.928   6.126  15.584  0.1937  0.4405  0.5986
12259TIP3    H158192   3.851   6.170  15.621  0.0075  1.4276 -0.8500
12259TIP3    H258193   3.893   6.071  15.514  0.7288  0.3325  0.4102
12260TIP3   OH258194   2.838   4.596   4.773 -0.0929  0.3730 -0.1892
12260TIP3    H158195   2.749   4.597   4.807  0.0495  0.1359  0.2012
12260TIP3    H258196   2.862   4.503   4.770 -0.1834  0.3734 -1.1674
12261TIP3   OH258197   3.305   5.867   1.122 -0.4297 -0.0278  0.4575
12261TIP3    H158198   3.333   5.944   1.072  0.8747 -0.6346  0.2117
12261TIP3    H258199   3.272   5.807   1.055 -0.9933  0.1115  0.6019
12262TIP3   OH258200   3.663   3.777   2.599 -0.1452  0.2061  0.1610
12262TIP3    H158201   3.666   3.819   2.513 -1.7652  0.3230  0.1397
12262TIP3    H258202   3.701   3.690   2.583  1.1299  0.8213 -0.2817
12263TIP3   OH258203   6.307   4.878  15.579  0.0652  0.1015 -0.5582
12263TIP3    H158204   6.392   4.851  15.544 -0.2040 -0.2764 -0.9366
12263TIP3    H258205   6.244   4.823  15.533 -0.4112  0.5891 -0.5044
12264TIP3   OH258206   0.870   3.521   1.140 -0.2313 -0.0961  0.3005
12264TIP3    H158207   0.909   3.449   1.091 -1.4634 -0.7216  0.2131
12264TIP3    H258208   0.934   3.540   1.209  1.7095  1.0130 -1.6446
12265TIP3   OH258209   0.269   4.677  10.712  0.2423 -0.2335  0.2045
12265TIP3    H158210   0.268   4.681  10.616  1.4223 -1.6606  0.0954
12265TIP3    H258211   0.179   4.695  10.737  0.3673  2.5769 -1.0139
12266TIP3   OH258212   0.838   4.343  15.432 -0.0636  0.0332  0.2691
12266TIP3    H158213   0.846   4.428  15.477  0.8665  0.9501 -1.5375
12266TIP3    H258214   0.797   4.364  15.348 -0.3351 -1.4029  0.0189
12267TIP3   OH258215   3.628   2.252   6.070 -0.2803  0.0109 -0.7479
12267TIP3    H158216   3.534   2.245   6.056 -0.2644  0.4950 -1.1104
12267TIP3    H258217   3.646   2.346   6.068  0.0200  0.0099  0.6066
12268TIP3   OH258218   5.885   4.614   0.683 -0.1348 -0.3061 -0.1430
12268TIP3    H158219   5.829   4.551   0.637 -1.6078 -0.6097  1.9490
12268TIP3    H258220   5.843   4.699   0.668  1.2005  0.1195 -1.9659
12269TIP3   OH258221   4.985   5.735   1.048 -0.2026 -0.5710  0.4828
12269TIP3    H158222   5.036   5.793   1.105 -0.4786  1.2109 -1.0025
12269TIP3    H258223   4.900   5.727   1.092 -0.2576  0.4168  0.5843
12270TIP3   OH258224   2.196   0.272   0.941 -0.0119 -0.1031 -0.0477
12270TIP3    H158225   2.236   0.357   0.960  0.7474 -0.5835  0.5166
12270TIP3    H258226   2.115   0.294   0.895 -0.3343  0.9654  0.9959
12271TIP3   OH258227   0.482   0.124  11.759  0.1732 -0.2764 -0.3609
12271TIP3    H158228   0.525   0.123  11.844 -0.0898 -2.0525 -0.1968
12271TIP3    H258229   0.552   0.146  11.697  0.5544  0.2030  0.2318
12272TIP3   OH258230   2.948   1.443   5.731  0.0210 -0.4776  0.2051
12272TIP3    H158231   2.988   1.375   5.785  0.1502 -0.8216 -0.3130
12272TIP3    H258232   2.931   1.399   5.648  1.5533  0.5229 -0.6922
12273TIP3   OH258233   4.648   1.894  14.972 -0.1510  0.2649 -0.2495
12273TIP3    H158234   4.647   1.842  15.052 -1.6592 -2.5875 -1.9466
12273TIP3    H258235   4.590   1.968  14.990  0.0676  0.0557  1.4634
12274TIP3   OH258236   3.101   5.831  14.076  0.4337 -0.0764  0.0897
12274TIP3    H158237   3.057   5.889  14.137  0.2917  0.3402 -0.4028
12274TIP3    H258238   3.071   5.860  13.989  0.2631 -0.9560 -0.1588
12275TIP3   OH258239   4.984   6.462  16.276  0.1488 -0.0283  1.0139
12275TIP3    H158240   4.930   6.404  16.223  2.7282 -1.3228 -0.3974
12275TIP3    H258241   4.990   6.419  16.361  1.9864 -1.9617 -0.0037
12276TIP3   OH258242   2.848   0.645   6.105 -0.1506 -0.1553  0.2596
12276TIP3    H158243   2.770   0.699   6.119 -0.3002  0.0970 -1.4018
12276TIP3    H258244   2.910   0.675   6.172 -1.8692 -1.2515  2.4965
12277TIP3   OH258245   0.788   4.358   3.277 -0.2536  0.0055 -0.0370
12277TIP3    H158246   0.716   4.414   3.249  0.3233  0.4005 -0.7544
12277TIP3    H258247   0.846   4.416   3.326  1.5301  0.6686 -2.7169
12278TIP3   OH258248   0.517   3.075   1.012 -0.3017  0.8795 -0.3198
12278TIP3    H158249   0.440   3.019   1.005  0.5524 -0.4589  0.5279
12278TIP3    H258250   0.490   3.147   1.068 -1.0253  0.6070 -0.3154
12279TIP3   OH258251   1.900   0.999   6.230 -0.2796  0.4674  0.4006
12279TIP3    H158252   1.855   0.939   6.172 -1.4469  0.1628  1.5738
12279TIP3    H258253   1.837   1.070   6.245 -0.8181 -0.4166  2.7997
12280TIP3   OH258254   3.837   5.787  15.882  0.5604  0.2493  0.4342
12280TIP3    H158255   3.924   5.818  15.910  0.7447  1.6258 -1.4061
12280TIP3    H258256   3.856   5.716  15.821  0.4232  0.5575  0.0246
12281TIP3   OH258257   2.404   5.575   4.954 -0.0304  0.3860  0.4435
12281TIP3    H158258   2.330   5.623   4.992  1.0157  3.0007 -0.6335
12281TIP3    H258259   2.481   5.626   4.979  1.4214 -1.8871  0.9414
12282TIP3   OH258260   3.013   2.887  16.341 -0.3860 -0.2578 -0.1821
12282TIP3    H158261   3.079   2.822  16.367 -1.9000 -1.8147  0.0086
12282TIP3    H258262   3.003   2.942  16.418  0.0155 -0.5935  0.1212
12283TIP3   OH258263   4.915   6.570  11.120 -0.1378 -0.2557 -0.1428
12283TIP3    H158264   4.913   6.514  11.043  1.8096 -2.2718  1.1421
12283TIP3    H258265   4.824   6.595  11.135 -0.9587 -2.3347 -1.3344
12284TIP3   OH258266   4.132   0.757   1.393 -0.1114 -0.5199  0.2754
12284TIP3    H158267   4.084   0.821   1.341  0.9641 -0.9626 -1.3281
12284TIP3    H258268   4.112   0.780   1.484 -0.2220  1.7224 -0.2565
12285TIP3   OH258269   0.604   1.515   6.063  0.9748 -0.2079  0.0725
12285TIP3    H158270   0.520   1.556   6.082  0.8041  0.5417 -2.0621
12285TIP3    H258271   0.596   1.426   6.097 -1.5758 -0.9085 -2.0892
12286TIP3   OH258272   4.507   4.990  14.244 -0.2607 -0.6533  0.3538
12286TIP3    H158273   4.542   4.917  14.296 -0.9442 -0.0777  1.6799
12286TIP3    H258274   4.418   5.002  14.276 -0.7077 -0.2451 -0.9683
12287TIP3   OH258275   5.997   0.265   3.798 -0.1106  0.2229  0.1659
12287TIP3    H158276   6.061   0.226   3.739 -1.7368 -1.5995 -0.4885
12287TIP3    H258277   6.045   0.283   3.878  1.2694 -0.8060 -0.4011
12288TIP3   OH258278   2.519   3.018  13.470 -0.1861  0.6096 -0.4580
12288TIP3    H158279   2.546   2.977  13.552 -2.4598 -1.6544 -0.7233
12288TIP3    H258280   2.507   2.945  13.409  0.0840  2.1120 -2.4272
12289TIP3   OH258281   2.503   3.927  12.873 -0.3582 -0.6488 -0.1972
12289TIP3    H158282   2.534   3.857  12.930 -2.8904 -1.1446  0.6853
12289TIP3    H258283   2.510   3.890  12.784  0.9473 -0.9170 -0.0130
12290TIP3   OH258284   4.980   0.292  16.563  0.3452  0.2680 -0.7151
12290TIP3    H158285   4.910   0.330  16.617 -0.2248 -0.5303 -0.8669
12290TIP3    H258286   5.051   0.276  16.624  0.1552  0.4858 -0.4293
12291TIP3   OH258287   6.087   5.338  13.534 -0.1195  0.2547 -0.0984
12291TIP3    H158288   6.014   5.368  13.588  0.5041 -0.1657  1.0069
12291TIP3    H258289   6.088   5.398  13.459 -1.4393  0.4113 -0.0078
12292TIP3   OH258290   3.790   3.270  12.143 -0.0028  0.2627 -0.2243
12292TIP3    H158291   3.739   3.337  12.187  1.2606  0.5019  0.9146
12292TIP3    H258292   3.741   3.189  12.158 -0.7274  0.6734 -0.3048
12293TIP3   OH258293   0.209   1.407  16.670  0.0316  0.0547 -0.2754
12293TIP3    H158294   0.287   1.383  16.721 -0.1373  0.0487 -0.0160
12293TIP3    H258295   0.169   1.323  16.647  0.0001  0.0611 -0.2455
12294TIP3   OH258296   0.034   5.058   0.184  0.1243 -0.2173  0.0595
12294TIP3    H158297   0.115   5.076   0.231  0.8155  1.0508 -1.5070
12294TIP3    H258298  -0.012   5.142   0.182 -1.7995 -1.1391  1.8425
12295TIP3   OH258299   3.647   2.806   4.071 -0.5805  0.2463 -0.1335
12295TIP3    H158300   3.737   2.773   4.072 -0.2064  1.1431 -1.4481
12295TIP3    H258301   3.629   2.823   3.979 -0.5169  4.2142  0.4166
12296TIP3   OH258302   2.233   0.956   1.314 -0.6467  0.5509 -0.0005
12296TIP3    H158303   2.158   0.902   1.341  1.2787 -2.7706 -0.6327
12296TIP3    H258304   2.237   0.946   1.219  1.4578 -0.7614  0.1574
12297TIP3   OH258305   5.069   6.766   3.351 -0.0643  0.3833  0.0524
12297TIP3    H158306   4.984   6.806   3.372  0.5731  1.1794  1.2835
12297TIP3    H258307   5.086   6.707   3.424 -0.5042 -1.4255 -1.2396
12298TIP3   OH258308   1.690   0.575   3.667 -0.4049 -0.2882 -0.2841
12298TIP3    H158309   1.638   0.529   3.733  1.0995  0.0055  1.1782
12298TIP3    H258310   1.698   0.665   3.701  1.8244 -0.5587  0.0847
12299TIP3   OH258311   3.588   5.552   6.459  0.5063  0.1780  0.6893
12299TIP3    H158312   3.662   5.610   6.474 -0.3482  1.4827  0.0699
12299TIP3    H258313   3.558   5.573   6.371  0.1739 -1.2381  0.4382
12300TIP3   OH258314   4.520   2.771  13.280  1.1120 -0.0502  0.2459
12300TIP3    H158315   4.530   2.682  13.247 -0.1623 -0.7858  1.7397
12300TIP3    H258316   4.426   2.788  13.277  1.1379  0.5147  1.7773
12301TIP3   OH258317   4.680   0.352   6.329  0.6329  0.0715 -0.0925
12301TIP3    H158318   4.736   0.390   6.396 -1.0079 -0.0896  1.4510
12301TIP3    H258319   4.619   0.297   6.378 -1.2668  0.7312 -1.6093
12302TIP3   OH258320   1.123   5.561  13.850 -0.4966 -0.3396  0.1697
12302TIP3    H158321   1.129   5.636  13.790 -0.2100  1.0604  1.8658
12302TIP3    H258322   1.029   5.540  13.851 -1.2360  2.3528  2.2699
12303TIP3   OH258323   6.557   1.151   5.902 -0.9917  0.0064 -0.1181
12303TIP3    H158324   6.533   1.069   5.946  0.5369  0.1376  1.0359
12303TIP3    H258325   6.618   1.126   5.834 -2.1400 -0.0087 -1.1887
12304TIP3   OH258326   2.676   0.023  14.250 -0.7048 -0.1443  0.3906
12304TIP3    H158327   2.594   0.068  14.233 -0.9825  0.7224  3.3898
12304TIP3    H258328   2.718   0.015  14.164 -2.3640  2.4557 -0.7919
12305TIP3   OH258329   4.171   0.781   2.161  0.1802  0.1229  0.1722
12305TIP3    H158330   4.130   0.714   2.215 -0.5947 -0.3611 -0.9693
12305TIP3    H258331   4.205   0.733   2.085  0.5936  0.8746 -0.1293
12306TIP3   OH258332   1.487   6.450   0.619 -0.0807 -0.2026 -0.1608
12306TIP3    H158333   1.574   6.443   0.582  1.3312 -0.1687  2.8631
12306TIP3    H258334   1.450   6.530   0.581  1.4850  0.1666 -0.9492
12307TIP3   OH258335   3.605   2.427  16.143 -0.3214 -0.1119  0.4266
12307TIP3    H158336   3.591   2.343  16.101 -1.9292 -0.7845  2.1620
12307TIP3    H258337   3.697   2.426  16.170  0.0886 -0.6251 -0.9400
12308TIP3   OH258338   5.785   5.885  15.526 -0.1572 -0.0545 -0.1534
12308TIP3    H158339   5.824   5.851  15.445  1.9590 -2.1948  1.6329
12308TIP3    H258340   5.856   5.931  15.570 -0.2947 -1.6956  1.9375
12309TIP3   OH258341   4.267   4.569  10.809  0.0373  0.3237 -0.2856
12309TIP3    H158342   4.328   4.619  10.754 -1.0374  1.4347 -0.5206
12309TIP3    H258343   4.322   4.530  10.876  1.1449  0.4221 -1.1005
12310TIP3   OH258344   3.014   5.548   3.173  0.7751  0.2602 -0.1308
12310TIP3    H158345   3.050   5.494   3.103 -0.5844 -1.0083  0.0953
12310TIP3    H258346   2.987   5.485   3.240  1.5198  1.4099  1.2919
12311TIP3   OH258347   0.385   0.790  11.716  0.4040 -0.1154  0.8931
12311TIP3    H158348   0.341   0.745  11.788 -2.0630 -0.0760 -0.4887
12311TIP3    H258349   0.391   0.881  11.745  0.2142 -0.2546  1.3847
12312TIP3   OH258350   3.303   2.950   4.690 -0.0320  0.6517 -0.4321
12312TIP3    H158351   3.380   2.895   4.705  1.1169  2.5388  1.3233
12312TIP3    H258352   3.241   2.923   4.757 -0.7993 -0.6375 -1.6289
12313TIP3   OH258353   4.302   4.373   5.178  0.1858  0.6294 -0.1331
12313TIP3    H158354   4.335   4.457   5.147 -0.9054  1.1590  0.1157
12313TIP3    H258355   4.229   4.352   5.120 -0.6076  0.6731  0.8245
12314TIP3   OH258356   3.134   1.549   3.472 -0.2466 -0.5589 -0.0447
12314TIP3    H158357   3.055   1.584   3.431  0.7999  0.8210 -0.9724
12314TIP3    H258358   3.179   1.627   3.507  0.0742 -1.4536  1.6212
12315TIP3   OH258359   2.980   3.130  15.276 -0.7910 -0.6280  0.2464
12315TIP3    H158360   3.006   3.209  15.228 -0.6680  0.0558  1.4070
12315TIP3    H258361   2.930   3.162  15.350 -0.8307 -1.6576  0.6847
12316TIP3   OH258362   5.949   5.085   0.798 -0.0565 -0.4540  0.2598
12316TIP3    H158363   5.893   5.163   0.801 -1.6624 -1.5849  1.4306
12316TIP3    H258364   5.896   5.018   0.755  0.9066 -1.1974  0.1890
12317TIP3   OH258365   3.592   6.471   4.651 -0.3269 -0.1856 -0.4702
12317TIP3    H158366   3.672   6.489   4.701 -1.0486 -0.3249  0.7469
12317TIP3    H258367   3.614   6.498   4.562  1.1304 -0.3558 -0.1858
12318TIP3   OH258368   2.372   3.861  13.313 -0.0258  0.4045  0.4580
12318TIP3    H158369   2.283   3.835  13.289  0.4571  0.5213 -1.6862
12318TIP3    H258370   2.427   3.789  13.282  0.6920  0.6749  1.0771
12319TIP3   OH258371   3.701   3.192   3.350 -0.0751  0.2260  0.3363
12319TIP3    H158372   3.665   3.130   3.287  0.1142  0.9417 -0.4960
12319TIP3    H258373   3.736   3.263   3.297  0.0053  0.8966  1.2555
12320TIP3   OH258374   5.998   0.359   2.424  0.5519  0.0074  0.2980
12320TIP3    H158375   6.016   0.426   2.490  1.0520 -0.9416  1.1485
12320TIP3    H258376   5.919   0.390   2.380  0.1377  0.6047  1.4173
12321TIP3   OH258377   1.978   6.784  13.633  0.3605  0.0824  0.1050
12321TIP3    H158378   1.942   6.702  13.667 -0.0191  0.1030 -0.2402
12321TIP3    H258379   1.942   6.852  13.690  1.0501 -0.0201  0.6879
12322TIP3   OH258380   0.796   3.796   2.376 -0.3631 -0.6246  0.0071
12322TIP3    H158381   0.854   3.819   2.303 -0.4877 -1.5345 -0.3939
12322TIP3    H258382   0.767   3.880   2.411 -0.4243 -0.1654 -1.0974
12323TIP3   OH258383   6.244   0.107   3.149  0.2174  0.2064  0.5567
12323TIP3    H158384   6.262   0.195   3.114  0.5424  0.6600  1.8083
12323TIP3    H258385   6.230   0.053   3.071  0.4652  1.2681 -0.2552
12324TIP3   OH258386   3.646   0.561   4.887 -0.4049 -0.0231 -0.2805
12324TIP3    H158387   3.601   0.637   4.923  0.1596 -0.3814  1.2937
12324TIP3    H258388   3.735   0.591   4.871 -0.7551  0.2444 -1.8319
12325TIP3   OH258389   5.331   0.832  14.504 -0.0129  0.4977 -0.4034
12325TIP3    H158390   5.402   0.769  14.502 -0.8413 -0.4334 -1.1218
12325TIP3    H258391   5.365   0.909  14.458 -0.0771 -0.6249 -2.4461
12326TIP3   OH258392   0.976   4.341   5.117 -0.3170  0.3778  0.0556
12326TIP3    H158393   1.023   4.336   5.200 -1.0059  2.3774  0.6153
12326TIP3    H258394   0.945   4.252   5.101  0.1826 -0.1224  1.7044
12327TIP3   OH258395   3.988   4.706  13.338 -0.8251 -0.0019  0.3912
12327TIP3    H158396   3.903   4.674  13.309 -0.8001 -0.2943  0.6448
12327TIP3    H258397   4.026   4.634  13.388  0.3534 -0.5943 -1.2453
12328TIP3   OH258398   6.640   2.581  16.509  0.1542 -0.7902 -0.2606
12328TIP3    H158399   6.594   2.509  16.466 -3.9353  1.0623  0.5395
12328TIP3    H258400   6.617   2.658  16.459  1.9922  0.4109  0.6150
12329TIP3   OH258401   0.717   6.298   3.324 -0.2655  0.4213  0.2846
12329TIP3    H158402   0.734   6.276   3.416 -0.9375  2.0615  0.8553
12329TIP3    H258403   0.721   6.215   3.278 -1.2224 -0.6472  2.0088
12330TIP3   OH258404   2.981   3.272   0.664  0.0457 -0.1034  0.1125
12330TIP3    H158405   3.019   3.187   0.686  0.7947  0.5040  1.2895
12330TIP3    H258406   2.887   3.260   0.675  0.0659 -0.9934 -0.5554
12331TIP3   OH258407   1.968   0.543  15.347  0.1792  0.4154 -0.0157
12331TIP3    H158408   2.053   0.532  15.389  0.2776 -1.3346 -0.6100
12331TIP3    H258409   1.987   0.584  15.263  0.2571  1.3913  0.4608
12332TIP3   OH258410   4.333   0.981   1.128  0.0578 -0.3310  0.5472
12332TIP3    H158411   4.264   0.988   1.063  0.6219  2.0077  0.1052
12332TIP3    H258412   4.341   1.070   1.164 -0.0225 -1.4413  3.6143
12333TIP3   OH258413   5.057   4.094  12.674  0.0722 -0.1564 -0.0506
12333TIP3    H158414   5.001   4.034  12.723 -0.1955 -0.1120 -0.2971
12333TIP3    H258415   5.018   4.180  12.689 -1.5177 -0.3884 -2.3198
12334TIP3   OH258416   1.153   4.920   1.051  0.8479 -0.1395 -0.3959
12334TIP3    H158417   1.152   4.985   1.121  2.6753 -2.3247  1.8169
12334TIP3    H258418   1.231   4.941   1.000  0.3790  0.5143 -0.8607
12335TIP3   OH258419   4.423   6.384  12.112  0.9086 -0.0088  0.0537
12335TIP3    H158420   4.443   6.434  12.191 -0.2608 -2.3131  1.9477
12335TIP3    H258421   4.500   6.329  12.099  1.4703  0.9912 -0.9896
12336TIP3   OH258422   0.631   4.831  14.069 -0.0551 -0.7501 -0.2213
12336TIP3    H158423   0.702   4.851  14.130 -0.7801 -1.1101  0.7630
12336TIP3    H258424   0.606   4.741  14.089 -0.9923 -0.5306 -0.3303
12337TIP3   OH258425   0.651   2.109  11.905 -0.1112  0.1619 -0.6282
12337TIP3    H158426   0.559   2.082  11.902 -1.4704  3.9570  0.9149
12337TIP3    H258427   0.654   2.190  11.854  1.5271  1.9394  2.0147
12338TIP3   OH258428   0.305   4.861   0.030  0.4879 -0.0337 -0.0688
12338TIP3    H158429   0.348   4.841  -0.053 -1.2993 -0.4276 -0.9567
12338TIP3    H258430   0.237   4.794   0.038 -0.1285  0.6972  1.1363
12339TIP3   OH258431   5.037   6.717   1.355 -0.0448  0.9356  0.6447
12339TIP3    H158432   4.959   6.734   1.302  0.0679  0.4649  0.3113
12339TIP3    H258433   5.051   6.622   1.346  0.9570  1.1228  0.1440
12340TIP3   OH258434   4.186   1.525  13.533  0.2251 -0.4203  0.5803
12340TIP3    H158435   4.100   1.485  13.548  0.1479 -0.4561  0.0634
12340TIP3    H258436   4.185   1.551  13.441  0.0311  1.3860  1.0481
12341TIP3   OH258437   1.511   4.866  12.529 -0.0911 -0.7452  0.5188
12341TIP3    H158438   1.587   4.828  12.484 -0.2987 -0.2291 -0.2761
12341TIP3    H258439   1.435   4.826  12.486 -0.3410  1.1352 -0.8957
12342TIP3   OH258440   6.258   6.408  16.202  0.3536  0.7868 -0.2206
12342TIP3    H158441   6.166   6.381  16.195  0.6581 -1.3828  2.3783
12342TIP3    H258442   6.255   6.487  16.255 -0.0051 -0.3066  1.4906
12343TIP3   OH258443   3.364   6.070  14.351 -0.2415 -0.1783 -0.2764
12343TIP3    H158444   3.401   5.994  14.397 -1.8611 -0.1231  1.2345
12343TIP3    H258445   3.414   6.145  14.385 -1.4674 -0.1295  1.5590
12344TIP3   OH258446   6.168   3.710  11.428  0.4313 -0.1065  0.1721
12344TIP3    H158447   6.256   3.693  11.461  0.6018  0.6487  0.1387
12344TIP3    H258448   6.140   3.790  11.474  0.6935  1.0118 -1.5014
12345TIP3   OH258449   0.200   5.791  14.523 -0.0798 -1.0914 -0.4483
12345TIP3    H158450   0.230   5.849  14.452 -1.8900 -0.3019 -0.6121
12345TIP3    H258451   0.179   5.709  14.480  0.9652 -1.3650 -0.4626
12346TIP3   OH258452   5.144   0.559   1.376  0.4148  0.1218 -0.6993
12346TIP3    H158453   5.202   0.538   1.304  1.3173 -1.9054  0.5212
12346TIP3    H258454   5.196   0.543   1.455 -1.2602 -0.0678  0.4343
12347TIP3   OH258455   2.349   2.425  11.618  0.7520  0.0326 -0.1540
12347TIP3    H158456   2.362   2.391  11.530  0.5952 -0.3362 -0.0365
12347TIP3    H258457   2.265   2.390  11.646  1.6892 -1.5006  0.8900
12348TIP3   OH258458   0.617   5.868   5.776  0.3346 -0.5284 -0.7288
12348TIP3    H158459   0.599   5.947   5.827  2.5998 -0.4790  0.0852
12348TIP3    H258460   0.568   5.880   5.695 -0.4003  1.0984 -0.0817
12349TIP3   OH258461   5.688   5.560   2.787  0.8342 -0.1572  0.3462
12349TIP3    H158462   5.678   5.466   2.795  0.6082 -0.0283  2.0563
12349TIP3    H258463   5.781   5.576   2.802  1.0138 -0.1585 -0.7152
12350TIP3   OH258464   5.476   4.422   3.947 -0.0975  0.1497  0.0354
12350TIP3    H158465   5.493   4.487   3.879 -0.0235  0.9712  0.8321
12350TIP3    H258466   5.527   4.451   4.022 -1.4298  0.1475  0.9769
12351TIP3   OH258467   5.937   0.566  16.309 -0.3073 -0.3975 -0.3387
12351TIP3    H158468   5.908   0.645  16.263  0.9535 -1.3088 -2.8617
12351TIP3    H258469   5.864   0.544  16.367 -0.2888  3.1873  1.3717
12352TIP3   OH258470   3.805   5.282   4.785 -0.1119 -0.0569  0.3665
12352TIP3    H158471   3.894   5.314   4.771  1.9676 -4.6204  1.2008
12352TIP3    H258472   3.765   5.281   4.698  1.4362  0.1314 -0.3645
12353TIP3   OH258473   1.046   2.025  13.575 -0.2900  0.2874 -0.1599
12353TIP3    H158474   1.070   2.062  13.490 -0.7984 -0.5940 -0.7069
12353TIP3    H258475   1.105   2.067  13.638  1.0701 -0.0806 -1.1471
12354TIP3   OH258476   1.507   2.637   1.075  0.0630 -0.0066 -0.6572
12354TIP3    H158477   1.462   2.715   1.107 -0.1211 -0.7911  1.1248
12354TIP3    H258478   1.592   2.640   1.119 -0.1133 -1.0197 -0.2237
12355TIP3   OH258479   3.923   5.681  15.167  1.0360  0.2002  0.0859
12355TIP3    H158480   3.991   5.615  15.158  1.0589  0.1464  0.6032
12355TIP3    H258481   3.844   5.638  15.135  1.6289  1.0114 -2.7080
12356TIP3   OH258482   0.249   5.279   0.751  0.1410  0.2004  0.0487
12356TIP3    H158483   0.244   5.352   0.689  1.0591  0.9770  0.8653
12356TIP3    H258484   0.340   5.249   0.745 -0.4320 -1.4857 -0.9276
12357TIP3   OH258485   6.731   5.831  14.556 -0.0005  0.1455  0.0027
12357TIP3    H158486   6.690   5.794  14.634 -0.6460 -1.8919 -1.2263
12357TIP3    H258487   6.811   5.780  14.544 -0.0902  0.1786 -0.8471
12358TIP3   OH258488   1.779   1.807  10.625 -0.4090  0.3100 -0.0827
12358TIP3    H158489   1.697   1.780  10.668 -0.9008 -0.8386 -1.6716
12358TIP3    H258490   1.831   1.845  10.696 -1.1583 -1.5657  1.5843
12359TIP3   OH258491   3.571   0.906  14.348 -0.1201 -0.2416 -0.3002
12359TIP3    H158492   3.481   0.936  14.360 -0.8921 -2.4061 -0.2206
12359TIP3    H258493   3.618   0.984  14.320 -1.6214  1.3813  1.3360
12360TIP3   OH258494   2.410   0.600   3.184 -0.1276  0.3374  0.4428
12360TIP3    H158495   2.479   0.544   3.219  0.1244  0.8753  0.8226
12360TIP3    H258496   2.365   0.633   3.262  0.7520  1.9511  0.3155
12361TIP3   OH258497   4.554   1.947  10.654  0.1097 -0.7769  0.4798
12361TIP3    H158498   4.630   1.966  10.708  0.6443 -1.1886 -0.1029
12361TIP3    H258499   4.538   1.853  10.668  0.1874 -0.8625  0.0213
12362TIP3   OH258500   2.900   1.220   5.440 -0.3181  0.1815 -0.6073
12362TIP3    H158501   2.836   1.202   5.371 -0.7151  1.0922 -0.4888
12362TIP3    H258502   2.852   1.201   5.521  0.3554 -1.5469 -0.5682
12363TIP3   OH258503   5.236   2.062  15.950  0.2621 -0.3180 -0.4609
12363TIP3    H158504   5.210   2.120  16.021 -0.7519 -0.1587 -0.9582
12363TIP3    H258505   5.170   2.074  15.882  2.1172  0.8225 -2.1795
12364TIP3   OH258506   4.858   0.336  11.187 -0.1251 -0.1274  0.0222
12364TIP3    H158507   4.924   0.403  11.208  1.3272 -1.2894 -0.6846
12364TIP3    H258508   4.785   0.386  11.151  0.9869  1.0829 -0.6563
12365TIP3   OH258509   1.387   1.694   0.365  0.0605  0.2414 -0.1723
12365TIP3    H158510   1.398   1.608   0.407 -0.1057 -0.0478 -0.7176
12365TIP3    H258511   1.429   1.755   0.425 -0.7519 -0.0821  0.7501
12366TIP3   OH258512   2.814   0.467  11.298  0.0493  0.2685 -0.1788
12366TIP3    H158513   2.775   0.507  11.220 -0.6242  1.2538  0.6481
12366TIP3    H258514   2.834   0.541  11.356 -3.0188 -0.6177  2.2404
12367TIP3   OH258515   0.539   4.623  12.560  0.8629 -1.1433  0.1928
12367TIP3    H158516   0.472   4.561  12.588 -1.7112  1.1124 -0.5653
12367TIP3    H258517   0.530   4.626  12.465 -0.2697  1.5010  0.2924
12368TIP3   OH258518   3.091   4.787  10.618  0.2777  0.1121 -0.6456
12368TIP3    H158519   3.158   4.847  10.586 -2.1628  2.3134 -2.0010
12368TIP3    H258520   3.025   4.844  10.659 -2.0751 -1.6169 -1.7895
12369TIP3   OH258521   3.813   3.532   2.914  0.1325 -0.0623  0.4806
12369TIP3    H158522   3.870   3.582   2.856  1.8436 -0.0553  2.0662
12369TIP3    H258523   3.729   3.528   2.868  2.2601 -3.4075 -3.8618
12370TIP3   OH258524   3.415   5.544  11.945 -0.3676 -0.3696  0.6978
12370TIP3    H158525   3.452   5.456  11.947  2.3181  0.6790  0.8134
12370TIP3    H258526   3.386   5.556  11.854 -0.9008 -1.3959  0.7189
12371TIP3   OH258527   4.348   3.002  15.325  0.5158  0.1513  0.0605
12371TIP3    H158528   4.329   2.957  15.242  1.6634  0.0064 -0.1320
12371TIP3    H258529   4.312   2.944  15.392  0.8038 -0.4152 -0.2628
12372TIP3   OH258530   1.553   1.239   0.962 -0.8905 -0.5277 -0.0728
12372TIP3    H158531   1.625   1.201   0.912 -0.3534  0.2786  0.0694
12372TIP3    H258532   1.577   1.224   1.053 -0.8571 -0.1721 -0.0235
12373TIP3   OH258533   2.998   6.192  13.077  0.6364 -0.3158 -0.1967
12373TIP3    H158534   2.997   6.101  13.108  0.1771 -1.0661 -2.2291
12373TIP3    H258535   3.070   6.195  13.014  1.6412  1.1792  0.9621
12374TIP3   OH258536   4.061   3.080  15.704 -0.1011  0.2907 -0.0933
12374TIP3    H158537   4.151   3.107  15.724 -0.2061 -0.3574  1.4614
12374TIP3    H258538   4.010   3.160  15.707  0.0776  0.3830  1.3697
12375TIP3   OH258539   4.645   2.646   5.489  0.2102  0.1935 -0.5295
12375TIP3    H158540   4.553   2.637   5.462  0.5557 -0.7866 -1.4210
12375TIP3    H258541   4.657   2.577   5.554  0.5937 -0.3557 -1.1796
12376TIP3   OH258542   4.083   5.843  12.377 -0.4151  0.2049  0.5529
12376TIP3    H158543   4.172   5.879  12.372  0.0223 -0.7196  1.2687
12376TIP3    H258544   4.095   5.754  12.410 -1.5178 -0.3913 -0.5704
12377TIP3   OH258545   4.475   0.086  16.335  0.4117  0.4883 -0.0203
12377TIP3    H158546   4.512  -0.002  16.335  1.0902  0.7594  1.4416
12377TIP3    H258547   4.380   0.072  16.343  0.3583 -0.1230 -1.3615
12378TIP3   OH258548   6.454   2.671  13.750  0.1458  0.0930  0.0736
12378TIP3    H158549   6.520   2.708  13.808  1.1791 -0.2475 -0.8438
12378TIP3    H258550   6.472   2.577  13.750 -0.1981  0.0194 -0.3494
12379TIP3   OH258551   6.707   4.700   5.717  0.0114 -0.0917  0.4025
12379TIP3    H158552   6.680   4.772   5.659  0.2907 -0.4574 -0.1923
12379TIP3    H258553   6.644   4.630   5.698  0.4898 -0.4367  0.0696
12380TIP3   OH258554   3.468   0.486  12.040  0.1667  0.1527  0.4441
12380TIP3    H158555   3.525   0.419  12.001  1.2287  0.7686  0.8899
12380TIP3    H258556   3.439   0.447  12.122 -0.0881 -0.1780  0.2011
12381TIP3   OH258557   1.984   2.534   0.432 -0.0016  0.8821  0.0488
12381TIP3    H158558   2.041   2.608   0.456 -0.7223  0.6733  2.7588
12381TIP3    H258559   1.912   2.538   0.496 -1.6979 -0.3692 -1.6815
12382TIP3   OH258560   4.579   3.000  12.587 -0.2616 -0.9610 -0.0271
12382TIP3    H158561   4.659   2.995  12.641  0.0529  1.8312 -0.0894
12382TIP3    H258562   4.575   2.915  12.543  4.1022 -0.4815 -1.9336
12383TIP3   OH258563   1.491   6.017  15.554 -0.2528  0.5236  0.2394
12383TIP3    H158564   1.516   6.056  15.638 -2.5708  0.4831  1.0452
12383TIP3    H258565   1.457   5.930  15.577  0.7371 -0.2179 -0.9876
12384TIP3   OH258566   4.802   0.388   4.356 -0.6568  0.2518 -0.1611
12384TIP3    H158567   4.811   0.475   4.394 -0.7120  0.9746 -1.6980
12384TIP3    H258568   4.797   0.329   4.431  0.0985  1.4908  0.9042
12385TIP3   OH258569   3.983   1.832  13.740  0.2357  0.2523 -0.2922
12385TIP3    H158570   3.897   1.807  13.775  0.6752  0.2833  0.8403
12385TIP3    H258571   3.972   1.923  13.713  0.7008  1.3043  2.7097
12386TIP3   OH258572   3.194   3.329  12.572 -0.2303 -0.6039  0.1710
12386TIP3    H158573   3.184   3.388  12.497 -2.1012 -1.0602 -0.0026
12386TIP3    H258574   3.203   3.387  12.647 -2.2269 -0.0142  0.0226
12387TIP3   OH258575   0.580   3.900  10.473 -1.0183 -0.5919  0.0644
12387TIP3    H158576   0.633   3.822  10.456 -1.3155 -0.4586 -1.7142
12387TIP3    H258577   0.496   3.866  10.504 -0.9569 -0.9721 -0.1771
12388TIP3   OH258578   2.532   4.336  13.913  0.5168 -0.5473  0.3263
12388TIP3    H158579   2.501   4.342  14.004  1.0038  0.9217  0.4155
12388TIP3    H258580   2.533   4.242  13.895  1.5404 -0.9587  2.2389
12389TIP3   OH258581   1.603   3.355  15.995 -0.0714  0.0876 -0.2130
12389TIP3    H158582   1.659   3.327  15.923  0.6182  0.7370  0.0529
12389TIP3    H258583   1.651   3.329  16.074 -0.1542  0.6208  0.0197
12390TIP3   OH258584   0.989   5.758  13.046  0.4876  0.5687  0.3403
12390TIP3    H158585   0.906   5.784  13.085  0.1349  0.6194 -0.4257
12390TIP3    H258586   1.032   5.705  13.113 -0.5067 -0.1209  0.4470
12391TIP3   OH258587   3.758   0.253   3.804  0.3073 -0.5358  0.1446
12391TIP3    H158588   3.739   0.300   3.723 -1.3763  1.3034  1.5165
12391TIP3    H258589   3.844   0.214   3.789  0.5957  0.7610 -2.0658
12392TIP3   OH258590   2.860   3.451   3.277  0.4770  0.2533 -0.0588
12392TIP3    H158591   2.879   3.474   3.368  1.9908 -0.0600 -0.2729
12392TIP3    H258592   2.942   3.466   3.231 -0.2913  0.4615 -1.3994
12393TIP3   OH258593   0.214   1.672  12.736  0.3487  0.1704 -0.3458
12393TIP3    H158594   0.209   1.766  12.719 -1.5032  0.4524  1.3613
12393TIP3    H258595   0.218   1.665  12.832 -1.8515 -1.5182 -0.3015
12394TIP3   OH258596   3.993   3.561   1.467 -0.0777 -0.5063  0.0759
12394TIP3    H158597   3.922   3.542   1.405 -0.1983 -0.9679  0.3458
12394TIP3    H258598   4.073   3.547   1.417 -0.1750 -0.5722 -0.0630
12395TIP3   OH258599   4.115   3.309  15.061  0.1144 -0.9845  0.3323
12395TIP3    H158600   4.030   3.327  15.021  0.7745 -0.0900 -0.7548
12395TIP3    H258601   4.095   3.279  15.149 -1.2813  2.9854  1.6099
12396TIP3   OH258602   1.855   4.475   4.125 -0.7194  0.3037 -0.3474
12396TIP3    H158603   1.845   4.413   4.197  0.2838 -1.1839 -1.4283
12396TIP3    H258604   1.929   4.441   4.074 -0.2533  2.2947 -1.0913
12397TIP3   OH258605   3.690   4.698   4.059  0.4889  0.3118 -0.0199
12397TIP3    H158606   3.761   4.636   4.072 -0.0693 -0.8162 -2.0424
12397TIP3    H258607   3.634   4.686   4.135 -0.0750 -2.3519 -0.7695
12398TIP3   OH258608   3.052   0.127   0.334  0.1633  0.5588  0.0069
12398TIP3    H158609   3.004   0.051   0.365  0.6252  0.0947 -0.3940
12398TIP3    H258610   3.003   0.157   0.257  0.1643  0.4715 -0.0274
12399TIP3   OH258611   3.244   6.219   2.935  0.5882  0.3059  0.3199
12399TIP3    H158612   3.329   6.213   2.891  0.0291  0.9789 -0.9161
12399TIP3    H258613   3.253   6.296   2.992  0.9618  0.0947  0.5489
12400TIP3   OH258614   5.123   2.082   3.679 -0.1549  0.1220  0.2212
12400TIP3    H158615   5.166   2.096   3.763  1.2027  0.4824 -0.5143
12400TIP3    H258616   5.036   2.048   3.702  0.8894 -1.7080  1.7249
12401TIP3   OH258617   2.721   6.186  10.460 -0.1561 -0.2740 -1.0819
12401TIP3    H158618   2.757   6.097  10.460  0.9155  0.1474 -0.9968
12401TIP3    H258619   2.634   6.176  10.421 -0.2488 -1.4331 -0.6150
12402TIP3   OH258620   3.648   1.028   4.429 -0.3813 -0.3968 -0.3369
12402TIP3    H158621   3.665   1.067   4.514 -0.2230  3.3675 -1.9197
12402TIP3    H258622   3.559   1.054   4.408 -0.0201 -0.2479 -1.7919
12403TIP3   OH258623   5.639   6.215  14.963  0.2048 -0.4117  0.0232
12403TIP3    H158624   5.715   6.242  15.015  0.8269  0.4453 -1.2903
12403TIP3    H258625   5.572   6.280  14.981  0.2620 -0.3700  0.0831
12404TIP3   OH258626   3.616   5.557   2.170  0.0004  0.2227  0.5278
12404TIP3    H158627   3.526   5.526   2.181 -0.0596  0.7019  1.5290
12404TIP3    H258628   3.665   5.511   2.238  0.5387 -0.1054 -0.0721
12405TIP3   OH258629   1.985   0.402  16.901 -0.2737 -0.2004  0.3390
12405TIP3    H158630   1.996   0.416  16.995  1.1312 -0.8274  0.2946
12405TIP3    H258631   1.897   0.434  16.882  0.4490  2.6474  1.3156
12406TIP3   OH258632   2.100   6.532  11.877  0.1595 -0.1809  0.2425
12406TIP3    H158633   2.102   6.437  11.869 -0.0058 -0.1669  0.0264
12406TIP3    H258634   2.008   6.554  11.889  0.1583 -0.0261 -0.0258
12407TIP3   OH258635   3.331   3.828   4.267 -0.3115  0.0462  0.4076
12407TIP3    H158636   3.252   3.844   4.318 -0.5029  0.1458  0.0806
12407TIP3    H258637   3.399   3.814   4.333 -1.0575 -2.5067  0.7575
12408TIP3   OH258638   6.015   3.452  14.095  0.4793 -0.2347 -0.1538
12408TIP3    H158639   6.095   3.467  14.045  0.8480 -1.2542  0.1018
12408TIP3    H258640   5.982   3.369  14.062 -0.4130  0.1196 -0.1678
12409TIP3   OH258641   0.829   2.924   0.467 -0.7118 -0.2989  0.1094
12409TIP3    H158642   0.814   3.018   0.480  0.1533  0.1729 -1.8525
12409TIP3    H258643   0.743   2.889   0.446 -0.8233  0.3718 -0.6197
12410TIP3   OH258644   1.100   2.306   0.794 -0.0837 -0.0924  0.4297
12410TIP3    H158645   1.052   2.230   0.827  0.4016 -0.9183 -0.6948
12410TIP3    H258646   1.162   2.327   0.864 -0.9645 -0.0348  1.2075
12411TIP3   OH258647   2.337   3.029   1.401 -0.4662  1.1020 -0.1880
12411TIP3    H158648   2.342   2.942   1.362 -0.7046  0.5396  0.9976
12411TIP3    H258649   2.253   3.064   1.369  0.5249  1.7457 -2.2888
12412TIP3   OH258650   6.332   0.639   3.064 -0.2782  0.1691 -0.4240
12412TIP3    H158651   6.242   0.618   3.086 -0.1700 -0.5565 -0.6376
12412TIP3    H258652   6.384   0.598   3.134 -0.0457 -0.5808 -1.0092
12413TIP3   OH258653   1.163   5.514   4.323  0.0217 -0.2086  0.0712
12413TIP3    H158654   1.157   5.552   4.411  0.6963  1.2143 -0.4717
12413TIP3    H258655   1.225   5.570   4.277  0.8516 -1.8267 -0.8736
12414TIP3   OH258656   6.348   5.103  15.217 -0.0699 -0.4702  0.2292
12414TIP3    H158657   6.439   5.074  15.217  0.0540 -0.0858 -0.1715
12414TIP3    H258658   6.348   5.184  15.166 -0.4295  0.1808  1.2116
12415TIP3   OH258659   4.047   3.834   0.428 -0.2343 -0.4663 -0.6032
12415TIP3    H158660   4.046   3.866   0.518 -1.1718  0.4979 -0.9352
12415TIP3    H258661   4.115   3.886   0.385 -0.0133 -0.6954 -0.5298
12416TIP3   OH258662   6.757   3.694   3.781  0.2944  0.4077  0.5848
12416TIP3    H158663   6.715   3.771   3.821  2.2220  0.5501  2.5234
12416TIP3    H258664   6.710   3.619   3.818  0.7841  0.5986  1.6380
12417TIP3   OH258665   0.940   5.110  11.526  0.2886 -0.1722  0.2053
12417TIP3    H158666   0.992   5.034  11.553 -0.0733 -0.6285 -0.3504
12417TIP3    H258667   0.883   5.077  11.457 -0.7746  0.3125  0.8284
12418TIP3   OH258668   0.516   5.257  15.640 -0.1399  0.0060  0.6704
12418TIP3    H158669   0.523   5.345  15.677 -0.9441  0.2278  0.3080
12418TIP3    H258670   0.463   5.208  15.702 -0.5144  0.0557  0.3946
12419TIP3   OH258671   5.015   4.587   5.642  0.4306 -0.1178  0.1221
12419TIP3    H158672   5.072   4.519   5.605  0.2945  0.0143 -0.3259
12419TIP3    H258673   4.935   4.540   5.664  1.2167 -0.6407  2.1754
12420TIP3   OH258674   2.812   6.154  14.916  0.8578 -0.0254 -0.5886
12420TIP3    H158675   2.727   6.139  14.875  0.7898 -1.4721  0.0262
12420TIP3    H258676   2.850   6.227  14.867 -0.1866 -0.2067 -1.7124
12421TIP3   OH258677   6.242   2.989   3.203 -0.0683  0.3681  0.1899
12421TIP3    H158678   6.188   3.013   3.128  1.6151  0.9282 -0.9165
12421TIP3    H258679   6.331   2.982   3.167  0.9158  1.3037  2.2381
12422TIP3   OH258680   6.210   4.646  12.576 -0.0011 -0.2877 -0.6596
12422TIP3    H158681   6.197   4.717  12.513 -2.4677  0.1085  0.1553
12422TIP3    H258682   6.161   4.572  12.539  0.7463 -0.8996 -0.4580
12423TIP3   OH258683   5.206   4.166  11.132  0.5677 -0.2541  0.0007
12423TIP3    H158684   5.139   4.126  11.076  3.5853 -0.8676 -3.6538
12423TIP3    H258685   5.248   4.091  11.175  2.1037 -0.5784 -1.8685
12424TIP3   OH258686   3.062   2.806   3.629 -0.0334  0.2765 -0.1268
12424TIP3    H158687   3.053   2.800   3.534  1.0579 -3.5170 -0.1587
12424TIP3    H258688   2.993   2.749   3.663 -1.8488  3.2547  1.6080
12425TIP3   OH258689   2.874   4.855   3.193 -0.0299  0.3124 -0.7520
12425TIP3    H158690   2.814   4.870   3.121 -0.5464 -1.2255 -0.6872
12425TIP3    H258691   2.959   4.884   3.160 -0.5705  1.3312 -1.2944
12426TIP3   OH258692   1.753   1.652   0.432 -0.0021  0.7638 -0.0068
12426TIP3    H158693   1.802   1.682   0.509 -2.3880  2.6309  0.8972
12426TIP3    H258694   1.682   1.599   0.468  1.3602 -2.2026 -1.3216
12427TIP3   OH258695   0.407   1.711  14.738  0.4022 -0.4535 -0.4724
12427TIP3    H158696   0.417   1.619  14.761 -2.0529 -0.9213 -0.9968
12427TIP3    H258697   0.486   1.732  14.687  1.6516 -1.8403  0.8153
12428TIP3   OH258698   2.315   1.633  16.941  0.1737 -0.2333  0.3515
12428TIP3    H158699   2.375   1.585  16.885 -0.0542  0.4407 -0.4932
12428TIP3    H258700   2.229   1.617  16.903  0.2115  1.8754 -0.7837
12429TIP3   OH258701   2.438   3.026   5.285  0.1943 -0.4513  0.1941
12429TIP3    H158702   2.353   3.064   5.306  0.1152  0.4714 -1.5657
12429TIP3    H258703   2.496   3.058   5.354 -0.8945 -1.3079  1.5614
12430TIP3   OH258704   5.328   0.742  12.630 -0.0716 -0.4851 -0.6756
12430TIP3    H158705   5.416   0.719  12.600 -0.1542  0.5300 -1.7431
12430TIP3    H258706   5.289   0.789  12.557 -1.8387 -1.6753 -0.5567
12431TIP3   OH258707   3.399   3.897   3.995  0.2420  0.0433 -0.8321
12431TIP3    H158708   3.355   3.890   4.080 -0.7007  1.0694 -1.2244
12431TIP3    H258709   3.487   3.930   4.016 -0.7118  2.4976 -0.4017
12432TIP3   OH258710   3.972   2.107   4.723 -0.3303  0.6844 -0.3080
12432TIP3    H158711   3.898   2.099   4.663  0.3234 -0.0662 -1.0434
12432TIP3    H258712   4.015   2.188   4.698 -0.3835  0.6614 -0.4718
12433TIP3   OH258713   1.740   5.630   1.544 -0.3088 -0.0851 -0.4337
12433TIP3    H158714   1.751   5.542   1.509 -0.7877  0.4469 -2.0006
12433TIP3    H258715   1.757   5.621   1.638  3.5250 -1.0888 -1.0907
12434TIP3   OH258716   2.227   2.230  12.256 -0.4874  0.2565  0.1124
12434TIP3    H158717   2.302   2.234  12.197 -0.3448 -1.8411  0.0919
12434TIP3    H258718   2.170   2.164  12.218  0.6455 -2.9156  3.3450
12435TIP3   OH258719   4.245   3.776   4.146  0.9440  0.6542 -0.0590
12435TIP3    H158720   4.287   3.803   4.227  0.8060  1.9297 -0.3924
12435TIP3    H258721   4.257   3.681   4.143  0.6270  0.5420  1.6204
12436TIP3   OH258722   4.240   2.241   5.767  0.0417  0.1008 -0.2949
12436TIP3    H158723   4.314   2.199   5.810  0.0089  0.9407  0.5929
12436TIP3    H258724   4.165   2.223   5.823 -0.0119  1.1571 -0.0137
12437TIP3   OH258725   4.947   4.351  13.431 -0.2183 -0.1946  0.4944
12437TIP3    H158726   4.929   4.430  13.381  0.5576  1.8469  3.2342
12437TIP3    H258727   4.898   4.282  13.386 -1.0041  1.8246 -1.9345
12438TIP3   OH258728   0.213   1.563  13.537  0.4435 -0.0239 -0.2169
12438TIP3    H158729   0.273   1.586  13.467 -0.1456 -1.0262 -1.0813
12438TIP3    H258730   0.131   1.542  13.493  0.0240 -0.5780  0.7752
12439TIP3   OH258731   5.622   3.827  16.782  0.5282 -0.4248 -0.5912
12439TIP3    H158732   5.539   3.799  16.820  0.2006 -0.7492 -1.4964
12439TIP3    H258733   5.604   3.915  16.747  0.2584 -0.8790 -1.6492
12440TIP3   OH258734   1.185   0.032  15.371  0.1487  0.4742 -0.1358
12440TIP3    H158735   1.101   0.068  15.397 -0.8223  0.0141 -2.3508
12440TIP3    H258736   1.215  -0.017  15.447 -2.7213 -1.2554  0.0371
12441TIP3   OH258737   5.106   0.999   4.662 -0.5791 -0.1534 -0.2178
12441TIP3    H158738   5.159   0.920   4.651 -0.7243 -0.2415 -0.2809
12441TIP3    H258739   5.078   0.997   4.753 -3.0027 -1.7048 -0.8857
12442TIP3   OH258740   3.463   6.359  11.794  0.2278 -0.5746  0.3401
12442TIP3    H158741   3.404   6.390  11.862  1.2709  3.6226 -0.3825
12442TIP3    H258742   3.432   6.401  11.714  2.2704 -0.8664 -0.6833
12443TIP3   OH258743   0.920   0.126  12.119  0.0333 -0.0841  0.0493
12443TIP3    H158744   0.993   0.118  12.057  1.0899 -0.4033  1.2941
12443TIP3    H258745   0.949   0.077  12.196 -1.0973  0.6129  0.9378
12444TIP3   OH258746   1.244   5.995  15.871  0.3809  0.4725  0.0641
12444TIP3    H158747   1.256   5.919  15.927 -0.6408 -0.4237 -0.8969
12444TIP3    H258748   1.178   5.969  15.807  0.9550  1.7094 -1.1025
12445TIP3   OH258749   1.877   1.523   1.272  0.2894 -0.2206  0.0452
12445TIP3    H158750   1.878   1.458   1.342  2.7189 -0.3499 -0.0255
12445TIP3    H258751   1.824   1.482   1.203 -1.6394 -0.3358  1.5089
12446TIP3   OH258752   4.907   0.876   5.339  0.2652 -0.6736  0.1832
12446TIP3    H158753   4.956   0.826   5.404 -1.3110 -2.0324  0.3837
12446TIP3    H258754   4.817   0.880   5.373  0.1314  1.6429 -0.2215
12447TIP3   OH258755   6.653   3.421  12.989 -0.2505 -0.0497 -0.0019
12447TIP3    H158756   6.721   3.400  13.053 -1.8601 -3.2093  0.9024
12447TIP3    H258757   6.694   3.402  12.904  0.4884 -0.4130  0.4227
12448TIP3   OH258758   0.569   3.091  13.785 -0.2517  0.2370 -0.6513
12448TIP3    H158759   0.538   3.001  13.797 -0.5826  0.3052 -0.9752
12448TIP3    H258760   0.581   3.124  13.873 -1.7809  0.4395 -0.4881
12449TIP3   OH258761   0.038   1.082   0.855 -0.0486 -0.6972  0.1406
12449TIP3    H158762  -0.057   1.075   0.844 -0.2129 -0.1084  1.0310
12449TIP3    H258763   0.057   1.174   0.836 -0.0442 -0.1745  2.3426
12450TIP3   OH258764   3.866   3.702  11.608 -0.5791 -0.1302 -0.1103
12450TIP3    H158765   3.907   3.627  11.564 -0.3179 -0.1186  0.1136
12450TIP3    H258766   3.938   3.762  11.627 -0.9699  0.9036 -1.6789
12451TIP3   OH258767   6.065   1.220   2.505  0.1529 -0.0273 -0.1281
12451TIP3    H158768   6.140   1.201   2.561  0.0345 -0.0721  0.0142
12451TIP3    H258769   6.093   1.297   2.454  0.5260 -0.4151 -0.5145
12452TIP3   OH258770   1.490   2.522  16.535 -0.2070 -0.1389  0.1626
12452TIP3    H158771   1.493   2.437  16.577 -0.0201  1.1634  2.9817
12452TIP3    H258772   1.455   2.581  16.601 -0.3880  1.9988 -1.6998
12453TIP3   OH258773   4.118   0.372   2.060  0.0260  0.4381  0.0684
12453TIP3    H158774   4.177   0.306   2.097 -1.3231 -1.1106 -0.4390
12453TIP3    H258775   4.093   0.426   2.135 -0.2764 -0.7865  0.8807
12454TIP3   OH258776   3.015   0.423   0.319 -0.0957  0.4666  0.1645
12454TIP3    H158777   3.090   0.409   0.377  0.0631 -1.4405 -0.4421
12454TIP3    H258778   2.953   0.354   0.343 -2.3683  2.8354  1.6465
12455TIP3   OH258779   2.983   4.482   5.060 -0.5132 -0.4671  0.1261
12455TIP3    H158780   3.026   4.410   5.107 -1.3235 -1.0151  0.0436
12455TIP3    H258781   3.052   4.547   5.048  0.2150 -1.1953  0.2715
12456TIP3   OH258782   2.725   0.823  13.922 -0.0046 -0.1940 -0.4232
12456TIP3    H158783   2.698   0.782  13.840 -0.9706  0.4211 -0.4234
12456TIP3    H258784   2.789   0.762  13.959  0.4744 -0.4660 -1.6429
12457TIP3   OH258785   4.808   5.427  11.277  0.2247 -0.0727 -0.2630
12457TIP3    H158786   4.752   5.473  11.215 -0.0163  0.4332  0.3140
12457TIP3    H258787   4.865   5.495  11.314  0.3626 -0.3613  0.0649
12458TIP3   OH258788   2.640   5.697   1.875  0.0128 -0.2184 -0.1758
12458TIP3    H158789   2.681   5.705   1.790  0.2901 -1.2898 -0.1620
12458TIP3    H258790   2.563   5.642   1.860 -1.7499  2.1430 -0.2897
12459TIP3   OH258791   5.263   1.949  13.791 -0.1495  0.0158  0.7445
12459TIP3    H158792   5.215   1.868  13.809 -1.3535  0.5921  0.2004
12459TIP3    H258793   5.201   2.004  13.744  0.5305  1.4197  1.4416
12460TIP3   OH258794   2.931   6.645  13.679 -0.2072 -0.2940  0.3817
12460TIP3    H158795   2.926   6.590  13.757  0.0740  0.9510  1.3045
12460TIP3    H258796   3.016   6.626  13.641  0.8745  1.1124  1.9636
12461TIP3   OH258797   4.519   1.976  11.973 -0.0989 -0.1619  0.4408
12461TIP3    H158798   4.562   2.059  11.991  1.6674 -0.7007 -1.0266
12461TIP3    H258799   4.430   2.000  11.947 -0.1836  1.1013  1.8018
12462TIP3   OH258800   4.047   4.974  14.770  0.4230  0.4518  0.3552
12462TIP3    H158801   4.038   4.909  14.700 -0.2260  0.2569  0.6105
12462TIP3    H258802   4.096   5.046  14.730 -1.8026  1.3217 -0.9845
12463TIP3   OH258803   1.677   5.864  16.642 -0.3008 -0.0395 -0.2717
12463TIP3    H158804   1.743   5.811  16.597  0.1842  0.3663 -0.0446
12463TIP3    H258805   1.647   5.809  16.714 -1.9671 -1.1902 -1.7618
12464TIP3   OH258806   5.188   2.710   1.455  0.0333  0.1537  0.0288
12464TIP3    H158807   5.230   2.658   1.386  3.2291 -0.0031  1.9273
12464TIP3    H258808   5.138   2.646   1.506  0.2326 -0.2589 -0.2881
12465TIP3   OH258809   6.724   5.960  11.817  0.4553 -0.7583 -0.1236
12465TIP3    H158810   6.753   5.894  11.754 -1.7709 -0.3257 -1.7018
12465TIP3    H258811   6.629   5.965  11.805  0.2606  1.0650  1.6207
12466TIP3   OH258812   2.332   6.107  15.715 -0.6470 -0.5342  0.3931
12466TIP3    H158813   2.301   6.037  15.772 -0.3565 -0.0788  1.1211
12466TIP3    H258814   2.428   6.105  15.725 -0.4979 -1.1703 -0.9360
12467TIP3   OH258815   6.636   5.562   4.721 -0.1992 -0.1195  0.7187
12467TIP3    H158816   6.591   5.502   4.780 -2.2610  1.4315  0.8439
12467TIP3    H258817   6.678   5.626   4.779 -2.4652  1.5747  0.6285
12468TIP3   OH258818   2.899   6.789  12.154 -0.3373 -0.1096 -0.3443
12468TIP3    H158819   2.870   6.881  12.155  0.1055  0.0408 -0.8787
12468TIP3    H258820   2.823   6.742  12.119  0.0165  0.2859 -1.7312
12469TIP3   OH258821   3.009   2.313  14.743 -0.3463  0.0603 -0.3576
12469TIP3    H158822   3.009   2.218  14.736 -1.2424  0.0663 -0.5504
12469TIP3    H258823   3.036   2.330  14.834 -0.4548 -0.3853 -0.2390
12470TIP3   OH258824   5.232   5.367   0.144  0.6305 -0.0136 -0.2060
12470TIP3    H158825   5.231   5.452   0.101 -0.1487  0.1022  0.0245
12470TIP3    H258826   5.141   5.352   0.171  0.7687 -0.8808 -0.1738
12471TIP3   OH258827   4.703   1.845  14.702  0.2631  0.1985  0.3493
12471TIP3    H158828   4.619   1.859  14.660  0.4275 -1.8749 -0.8363
12471TIP3    H258829   4.682   1.835  14.795 -0.9542 -1.1430 -0.0298
12472TIP3   OH258830   4.142   0.837   1.666  0.1096  0.5577  0.5927
12472TIP3    H158831   4.235   0.826   1.648  0.1127  0.8221  0.4493
12472TIP3    H258832   4.121   0.767   1.729 -0.3696 -1.8359 -2.0027
12473TIP3   OH258833   6.461   4.739   3.798  0.3360  0.0627 -0.1697
12473TIP3    H158834   6.500   4.651   3.793 -2.6448 -1.2946 -1.4596
12473TIP3    H258835   6.368   4.725   3.784 -0.4915  3.3025  1.2884
12474TIP3   OH258836   0.306   4.337   1.858  0.9028 -0.2301  0.2432
12474TIP3    H158837   0.212   4.356   1.854  0.5954 -1.3892  1.1557
12474TIP3    H258838   0.343   4.408   1.910  0.5733  0.3193 -0.2549
12475TIP3   OH258839   0.578   2.975  16.822 -0.8770 -0.0379  0.4154
12475TIP3    H158840   0.545   3.019  16.900 -0.2479 -2.0600  1.9236
12475TIP3    H258841   0.666   2.946  16.846  0.1176  0.9782 -1.7755
12476TIP3   OH258842   2.060   6.042   4.642  0.1602  0.1881 -0.0085
12476TIP3    H158843   2.109   6.015   4.564 -1.1412 -0.8143 -0.5174
12476TIP3    H258844   2.125   6.040   4.712  1.2272  0.5334 -0.9479
12477TIP3   OH258845   2.751   4.537  10.995 -0.1914 -0.2125 -0.1066
12477TIP3    H158846   2.735   4.548  10.901 -0.5200 -0.9822 -0.1548
12477TIP3    H258847   2.663   4.531  11.034 -0.1113  1.9134  0.5157
12478TIP3   OH258848   1.916   3.482  15.058 -0.7712  0.0499  0.1147
12478TIP3    H158849   1.994   3.442  15.018  0.0905 -1.8569  3.2904
12478TIP3    H258850   1.846   3.419  15.041 -0.9655  0.3994 -0.3854
12479TIP3   OH258851   5.889   0.582   0.712  0.3765  0.3803  0.0305
12479TIP3    H158852   5.955   0.604   0.647  0.2973  2.8464  0.6836
12479TIP3    H258853   5.809   0.566   0.661  0.7075  0.6534 -0.5764
12480TIP3   OH258854   5.071   1.889   0.440 -0.1241 -1.0616 -0.1336
12480TIP3    H158855   5.147   1.904   0.496 -0.5040  1.5656 -0.1750
12480TIP3    H258856   4.997   1.921   0.492 -0.8070 -0.8989 -1.1760
12481TIP3   OH258857   5.844   0.865   2.346 -0.0602  0.1115 -0.3345
12481TIP3    H158858   5.903   0.810   2.398  1.1760  0.3461 -1.4373
12481TIP3    H258859   5.806   0.805   2.282 -1.7403 -0.2204  0.9086
12482TIP3   OH258860   1.855   2.063  12.337  0.8185 -0.1392  0.4574
12482TIP3    H158861   1.877   2.079  12.245  0.9452  0.7478  0.6365
12482TIP3    H258862   1.853   2.150  12.377 -0.3865 -0.4157  1.0393
12483TIP3   OH258863   2.393   5.233  15.995  0.6815 -0.7358 -0.1827
12483TIP3    H158864   2.418   5.187  15.915  0.1794 -1.4389  0.0539
12483TIP3    H258865   2.342   5.308  15.965  2.2476  0.2063 -0.6231
12484TIP3   OH258866   0.633   2.721  15.327  0.3305  0.3659  0.2176
12484TIP3    H158867   0.578   2.785  15.282 -0.2838 -0.0536  0.3654
12484TIP3    H258868   0.714   2.769  15.345 -0.4940  1.4661  1.2842
12485TIP3   OH258869   4.963   6.697  14.852  0.3853  0.6645 -0.6777
12485TIP3    H158870   4.909   6.655  14.785  1.0053 -0.8427 -0.2688
12485TIP3    H258871   4.911   6.689  14.932  1.1908 -0.8095 -0.2784
12486TIP3   OH258872   1.784   6.709   2.282  0.1926  0.5799 -0.4184
12486TIP3    H158873   1.850   6.753   2.228  0.5328 -1.1047 -1.4390
12486TIP3    H258874   1.700   6.730   2.241  0.3826  0.0087 -1.1079
12487TIP3   OH258875   5.944   2.553   1.696 -0.3800  0.3911  0.2537
12487TIP3    H158876   5.911   2.552   1.785 -0.4848  2.6134  0.2933
12487TIP3    H258877   5.913   2.471   1.657 -1.3369 -0.0495  1.8802
12488TIP3   OH258878   4.101   3.851  17.058  0.8296 -0.4502 -0.2049
12488TIP3    H158879   4.024   3.814  17.103  0.7915 -1.3276 -0.9743
12488TIP3    H258880   4.076   3.941  17.039 -0.0883 -0.7823 -0.6156
12489TIP3   OH258881   0.273   4.179  16.757  0.0910  0.8258  0.4893
12489TIP3    H158882   0.212   4.119  16.799 -1.3610  1.6468 -0.3430
12489TIP3    H258883   0.266   4.159  16.664 -0.1162  1.9951  0.2362
12490TIP3   OH258884   4.415   4.744  12.398  0.1332 -0.0925 -0.0821
12490TIP3    H158885   4.391   4.654  12.421  0.6391 -0.2061  0.0295
12490TIP3    H258886   4.339   4.778  12.352 -0.0791 -0.5675 -0.0936
12491TIP3   OH258887   4.583   5.997  15.307 -0.0413 -0.1802  0.0313
12491TIP3    H158888   4.597   5.910  15.344  1.2746  0.0630  0.1573
12491TIP3    H258889   4.637   5.999  15.229  1.3656  1.1047  0.9811
12492TIP3   OH258890   3.685   2.351   0.732  0.0983  0.2192 -0.5441
12492TIP3    H158891   3.626   2.348   0.807  0.1451 -0.9847 -0.5372
12492TIP3    H258892   3.667   2.436   0.691  1.6118  1.9155  2.0126
12493TIP3   OH258893   4.252   5.711  10.904 -0.7235 -0.1080  0.5951
12493TIP3    H158894   4.317   5.642  10.888 -2.5197 -2.3339  2.2112
12493TIP3    H258895   4.255   5.765  10.825  2.6476 -0.3804  0.3576
12494TIP3   OH258896   3.261   3.901   1.849 -0.2424  0.4210  0.2037
12494TIP3    H158897   3.312   3.953   1.787 -0.7236  2.3862  1.3832
12494TIP3    H258898   3.171   3.906   1.817 -0.2976  0.3222  0.3415
12495TIP3   OH258899   1.841   0.141  11.433 -0.1962 -0.2697  0.4027
12495TIP3    H158900   1.785   0.069  11.402 -0.3938 -1.0352  2.3445
12495TIP3    H258901   1.896   0.100  11.500  0.6382  1.1267  0.5948
12496TIP3   OH258902   3.809   0.901  16.524  0.3274  0.0549 -0.0897
12496TIP3    H158903   3.862   0.853  16.460 -0.4414 -0.8257 -0.0898
12496TIP3    H258904   3.773   0.975  16.475 -1.1458 -1.2105 -1.0271
12497TIP3   OH258905   0.047   5.918  13.294  0.0857 -0.0132 -0.2169
12497TIP3    H158906   0.065   5.983  13.226 -0.4952  0.6934  0.2917
12497TIP3    H258907   0.025   5.969  13.372 -1.0341 -0.8002  0.0204
12498TIP3   OH258908   1.966   4.135   5.878  0.2125 -0.0725  0.1316
12498TIP3    H158909   2.046   4.137   5.826 -0.4546 -1.6496 -1.0472
12498TIP3    H258910   1.982   4.067   5.943 -0.1981 -0.4777 -0.1836
12499TIP3   OH258911   1.416   4.908  11.536 -0.0471 -0.2030 -0.0574
12499TIP3    H158912   1.457   4.861  11.463  1.1888 -0.0272  0.5005
12499TIP3    H258913   1.402   4.841  11.603  1.5153  0.1491  0.6541
12500TIP3   OH258914   6.477   4.754   3.331  0.2907 -0.2097 -0.8288
12500TIP3    H158915   6.509   4.843   3.317  1.1023 -0.4688 -0.6743
12500TIP3    H258916   6.556   4.701   3.334 -0.1930 -0.9460 -0.9796
12501TIP3   OH258917   1.642   3.826   1.430  0.5570  0.9111  0.2681
12501TIP3    H158918   1.649   3.897   1.366 -1.3957  1.5887  0.7315
12501TIP3    H258919   1.646   3.746   1.377  2.0266  1.3545 -0.3414
12502TIP3   OH258920   2.281   1.420   0.327  0.4104 -0.2161  0.4372
12502TIP3    H158921   2.197   1.462   0.343 -0.3255 -1.6015  0.3337
12502TIP3    H258922   2.345   1.492   0.328 -0.6674  0.7562  1.2461
12503TIP3   OH258923   1.199   0.339  11.827 -0.0644  0.4863 -0.3022
12503TIP3    H158924   1.195   0.375  11.738 -1.7626 -1.3110 -1.0492
12503TIP3    H258925   1.143   0.397  11.879 -0.0705  0.8459 -0.7072
12504TIP3   OH258926   4.270   3.399  13.499 -0.1278  0.1018 -0.1779
12504TIP3    H158927   4.255   3.305  13.511 -1.2264  0.4413  1.3421
12504TIP3    H258928   4.218   3.441  13.567  0.5512  1.8194 -0.6599
12505TIP3   OH258929   6.222   0.075   2.651  0.4528 -0.3749  0.1298
12505TIP3    H158930   6.201   0.099   2.561 -0.0669 -0.8103  0.1268
12505TIP3    H258931   6.266  -0.009   2.643 -0.3552 -0.8324  0.3278
12506TIP3   OH258932   6.288   5.819  11.096 -0.4898 -0.5918  0.7243
12506TIP3    H158933   6.260   5.831  11.005  0.5151 -1.9575  0.2042
12506TIP3    H258934   6.243   5.739  11.125  0.1765 -0.8811  0.9926
12507TIP3   OH258935   4.541   3.065  14.590 -0.1054  0.4020  0.2232
12507TIP3    H158936   4.571   3.156  14.589  0.5686  0.1751 -1.0592
12507TIP3    H258937   4.618   3.015  14.617 -0.5123  0.2082  1.0610
12508TIP3   OH258938   6.818   0.187  13.565 -0.1071 -0.1865 -0.3088
12508TIP3    H158939   6.898   0.239  13.570 -0.9731  1.1274  0.5130
12508TIP3    H258940   6.756   0.232  13.623 -1.1940 -1.6269 -0.2829
12509TIP3   OH258941   2.141   4.498   2.880 -0.1599  0.4017  0.0581
12509TIP3    H158942   2.080   4.483   2.953 -1.0609 -0.3626 -0.8250
12509TIP3    H258943   2.093   4.468   2.802  1.5003 -0.6223 -0.6186
12510TIP3   OH258944   2.044   0.994  12.079  0.2651  0.1317  0.0932
12510TIP3    H158945   2.059   0.900  12.089  0.9112  0.0949 -1.0325
12510TIP3    H258946   1.989   1.002  12.001  3.1315  0.8077 -2.0262
12511TIP3   OH258947   3.633   0.693  11.521  0.2637  0.0984  0.2709
12511TIP3    H158948   3.717   0.671  11.560  0.3155  1.2496  0.8714
12511TIP3    H258949   3.572   0.627  11.554  0.6240  0.1753  1.0985
12512TIP3   OH258950   5.858   2.754  16.830 -0.2397  1.0878 -0.1201
12512TIP3    H158951   5.899   2.776  16.747 -0.5124 -0.4742 -0.7129
12512TIP3    H258952   5.821   2.667  16.815 -2.7789  1.9250  0.7177
12513TIP3   OH258953   1.737   4.135  11.681  0.5836  0.0191  0.1478
12513TIP3    H158954   1.768   4.117  11.592  3.3350 -0.4296  1.0897
12513TIP3    H258955   1.800   4.090  11.738 -1.2770 -0.0132  2.3542
12514TIP3   OH258956   1.636   1.087  10.472  0.2260  0.2277  0.7474
12514TIP3    H158957   1.599   1.174  10.461  1.1983  0.4362 -1.4433
12514TIP3    H258958   1.716   1.088  10.419  0.2785 -1.9711  0.6920
12515TIP3   OH258959   2.091   2.098  15.638 -0.2575  0.5227  0.5101
12515TIP3    H158960   2.021   2.161  15.657  0.9644  1.2839  3.0513
12515TIP3    H258961   2.050   2.012  15.648 -1.2069  0.9394  0.2848
12516TIP3   OH258962   3.532   4.584  12.887 -0.2992 -0.0092 -0.3082
12516TIP3    H158963   3.445   4.596  12.924  0.1846  0.7678  0.6178
12516TIP3    H258964   3.562   4.500  12.923 -1.2441 -1.0554 -1.8539
12517TIP3   OH258965   2.488   4.328  16.098 -0.3213  0.3078 -0.5671
12517TIP3    H158966   2.404   4.348  16.056 -0.8344 -0.1332  0.2145
12517TIP3    H258967   2.553   4.373  16.044 -1.1639  1.6858 -0.4962
12518TIP3   OH258968   5.619   0.395   2.537 -0.4810 -0.6569  0.1776
12518TIP3    H158969   5.650   0.482   2.563  0.0396 -1.5162  2.6901
12518TIP3    H258970   5.546   0.377   2.596 -0.7320 -1.8255 -0.4650
12519TIP3   OH258971   5.926   1.639   1.948  0.7487 -0.5392  0.1228
12519TIP3    H158972   5.955   1.714   1.897 -1.8350  0.7818  0.4470
12519TIP3    H258973   5.873   1.587   1.887 -1.5110  0.5195  1.0687
12520TIP3   OH258974   2.567   1.055   3.078  0.5241 -0.2642  0.3463
12520TIP3    H158975   2.490   1.106   3.104  0.3104  0.5835 -1.7401
12520TIP3    H258976   2.562   0.975   3.130 -1.6700 -0.1492  0.3901
12521TIP3   OH258977   0.550   4.870  14.379  0.0093  0.0154 -0.6835
12521TIP3    H158978   0.486   4.913  14.435  0.3151 -3.3635  2.6730
12521TIP3    H258979   0.624   4.930  14.376 -1.3871  1.8195 -0.4809
12522TIP3   OH258980   1.010   5.376   1.205 -0.6872  0.1661 -0.5382
12522TIP3    H158981   1.047   5.377   1.117 -1.0233 -0.4949 -0.6932
12522TIP3    H258982   1.039   5.293   1.243 -0.8429  0.2820 -0.1559
12523TIP3   OH258983   3.409   0.046   5.422  0.0190  0.0960 -0.5476
12523TIP3    H158984   3.355  -0.026   5.454  0.9286  0.0867  1.0472
12523TIP3    H258985   3.457   0.009   5.348  0.0098 -0.7584 -0.1367
12524TIP3   OH258986   5.549   1.858  11.891  0.3117  0.3897  0.3914
12524TIP3    H158987   5.487   1.874  11.821 -1.4030  0.0050  1.7606
12524TIP3    H258988   5.559   1.762  11.893  1.5358  0.4733 -0.2581
12525TIP3   OH258989   0.244   4.712  15.360 -0.0176 -0.0383 -0.0397
12525TIP3    H158990   0.279   4.663  15.286 -0.6960 -0.3302 -0.1732
12525TIP3    H258991   0.149   4.701  15.353 -0.1403  0.8147  0.2670
12526TIP3   OH258992   5.260   1.466  12.782 -0.6980 -0.6946  0.0887
12526TIP3    H158993   5.306   1.398  12.732 -0.5259 -1.8613  1.7296
12526TIP3    H258994   5.205   1.416  12.844 -0.2485  0.6451  1.6342
12527TIP3   OH258995   3.940   4.608   5.271  1.0227  0.3933  0.9405
12527TIP3    H158996   3.914   4.533   5.217 -0.0540  1.8948 -0.7610
12527TIP3    H258997   3.862   4.628   5.323  0.9299  0.9709  0.5884
12528TIP3   OH258998   5.638   6.715  16.476 -0.0729  0.0232  0.2303
12528TIP3    H158999   5.603   6.773  16.544 -1.0611  0.4055 -0.5832
12528TIP3    H259000   5.608   6.627  16.501 -0.3017  0.1407  0.3707
12529TIP3   OH259001   0.405   0.124  11.167  0.7149  0.1710 -0.0062
12529TIP3    H159002   0.421   0.216  11.190 -1.9612  0.3895  1.2578
12529TIP3    H259003   0.419   0.076  11.248  1.2133 -0.4477 -0.4449
12530TIP3   OH259004   1.710   5.381   0.697  0.1661 -0.3265  0.0390
12530TIP3    H159005   1.715   5.474   0.718 -1.3218 -0.7176  2.4926
12530TIP3    H259006   1.629   5.371   0.648 -1.0410 -0.6199  1.9984
12531TIP3   OH259007   5.887   5.679   4.676 -0.3481 -0.2044 -0.4039
12531TIP3    H159008   5.913   5.771   4.686  1.2326 -0.7393  0.9099
12531TIP3    H259009   5.953   5.630   4.727  0.5799 -2.3120 -3.3763
12532TIP3   OH259010   2.169   5.588   2.056  0.1640 -0.2390 -0.4839
12532TIP3    H159011   2.183   5.680   2.036  0.0707  0.2031  1.3488
12532TIP3    H259012   2.077   5.572   2.035 -0.0454  0.3067  0.0202
12533TIP3   OH259013   2.326   5.362   0.846 -0.2467 -0.0958 -0.5431
12533TIP3    H159014   2.340   5.433   0.909 -1.4405 -0.8283  0.6145
12533TIP3    H259015   2.351   5.283   0.894 -0.1931 -0.5846 -1.3536
12534TIP3   OH259016   2.604   0.440   3.386 -0.3064  0.4168  0.2386
12534TIP3    H159017   2.605   0.500   3.461 -1.2690 -0.1794  0.7582
12534TIP3    H259018   2.696   0.427   3.364 -0.0222  0.8468  1.1360
12535TIP3   OH259019   4.593   6.676  14.382  0.5052 -0.0477 -0.0013
12535TIP3    H159020   4.642   6.608  14.337  0.0775 -0.7432  0.5572
12535TIP3    H259021   4.642   6.692  14.462  0.8359  0.6141 -0.3338
12536TIP3   OH259022   5.314   1.876  13.074 -0.3969 -0.1028 -0.0437
12536TIP3    H159023   5.259   1.882  12.996  0.8048 -0.7695 -0.9888
12536TIP3    H259024   5.337   1.783  13.080  1.1415  0.2397 -0.0885
12537TIP3   OH259025   2.850   3.204   3.630 -0.2823  0.2072  0.4407
12537TIP3    H159026   2.925   3.149   3.652  0.2738  0.3181 -1.0801
12537TIP3    H259027   2.784   3.181   3.695  0.3983 -1.2858  0.6405
12538TIP3   OH259028   1.726   1.478  16.624 -0.2239  0.2976  0.3911
12538TIP3    H159029   1.761   1.456  16.710 -0.8600 -0.2086  0.5317
12538TIP3    H259030   1.711   1.573  16.627  0.3761  0.3896  0.5962
12539TIP3   OH259031   2.239   0.398   2.744  0.1912  0.3044 -0.3928
12539TIP3    H159032   2.265   0.477   2.792  1.0863  0.2835 -0.8192
12539TIP3    H259033   2.187   0.348   2.807  0.0080  1.0124  0.0340
12540TIP3   OH259034   3.299   6.014  13.151  0.1607  0.3153 -0.4672
12540TIP3    H159035   3.365   5.948  13.130  1.1455  0.7598  1.0211
12540TIP3    H259036   3.294   6.013  13.247 -1.3205  0.9585 -0.5096
12541TIP3   OH259037   3.731   4.089  11.785 -0.7970  0.0455  0.2490
12541TIP3    H159038   3.685   4.037  11.852 -0.6909  1.2535  1.2949
12541TIP3    H259039   3.816   4.046  11.776 -0.8064 -0.1331  0.9078
12542TIP3   OH259040   4.375   2.070  16.243  0.0835 -0.7450 -0.8289
12542TIP3    H159041   4.367   2.013  16.320 -2.3353 -1.3102 -1.4104
12542TIP3    H259042   4.373   2.159  16.278 -0.6504 -0.9995 -0.2071
12543TIP3   OH259043   5.639   4.869   1.506 -0.2391 -0.0131  0.8407
12543TIP3    H159044   5.723   4.915   1.513  0.4527 -1.0226 -0.4845
12543TIP3    H259045   5.659   4.779   1.532 -1.1728 -0.0362  1.5595
12544TIP3   OH259046   4.370   3.932   4.369 -0.5053  0.0140 -0.0370
12544TIP3    H159047   4.371   3.916   4.463 -1.2111 -0.2821 -0.0710
12544TIP3    H259048   4.308   4.004   4.357 -0.1652  0.2703 -0.2407
12545TIP3   OH259049   0.599   2.216  14.670  0.6789  0.1701  0.1723
12545TIP3    H159050   0.625   2.124  14.667  1.8863  0.5094 -0.3413
12545TIP3    H259051   0.645   2.251  14.747 -0.7044  0.1000  1.0766
12546TIP3   OH259052   6.011   0.870   3.175 -0.0663 -0.5947 -0.0274
12546TIP3    H159053   6.071   0.813   3.127 -1.3300 -2.6086  0.6592
12546TIP3    H259054   5.926   0.853   3.136 -0.6774 -0.1654  1.0924
12547TIP3   OH259055   6.429   5.219  14.200 -0.3477 -0.2010 -0.4709
12547TIP3    H159056   6.443   5.214  14.295 -0.7647 -0.9184 -0.4402
12547TIP3    H259057   6.509   5.260  14.166 -0.5789  0.9335  0.2802
12548TIP3   OH259058   5.121   3.601  16.125  0.5044  0.5282  0.6103
12548TIP3    H159059   5.070   3.527  16.161  0.7656 -0.2461 -0.5592
12548TIP3    H259060   5.075   3.679  16.157 -0.4027 -0.1470  1.0128
12549TIP3   OH259061   5.909   4.784  12.760  0.1909 -0.1288  0.0696
12549TIP3    H159062   5.948   4.707  12.802 -1.1198 -2.2925 -2.4107
12549TIP3    H259063   5.983   4.827  12.716  0.8735 -0.1586  1.1469
12550TIP3   OH259064   3.144   1.441  13.670 -0.1998 -1.0539  0.5761
12550TIP3    H159065   3.204   1.401  13.606 -1.1429  0.3812 -1.2994
12550TIP3    H259066   3.194   1.512  13.709 -1.0264  1.2387 -2.1961
12551TIP3   OH259067   5.780   4.762   3.785 -0.2196 -0.3733 -0.4993
12551TIP3    H159068   5.754   4.821   3.714  0.6269  0.8233  0.1509
12551TIP3    H259069   5.860   4.721   3.754  0.1122  0.0977 -0.2797
12552TIP3   OH259070   3.447   3.723  11.758  0.0112  0.2827 -0.3392
12552TIP3    H159071   3.499   3.685  11.828 -0.1332 -0.9519 -0.8745
12552TIP3    H259072   3.496   3.801  11.731  0.2502  0.5579  0.8651
12553TIP3   OH259073   1.757   5.715  14.432  0.1250 -0.0958 -0.7644
12553TIP3    H159074   1.700   5.643  14.405  0.5540 -0.3312 -1.0666
12553TIP3    H259075   1.823   5.720  14.362  0.0205  0.6764 -0.8077
12554TIP3   OH259076   2.156   3.847   2.853 -1.0492 -0.1441  0.2378
12554TIP3    H159077   2.121   3.774   2.904  1.3793 -1.2881  0.3979
12554TIP3    H259078   2.250   3.830   2.848 -0.4426  2.7998 -0.0453
12555TIP3   OH259079   2.276   2.755  10.499  0.1648 -0.6349  0.4200
12555TIP3    H159080   2.253   2.819  10.431 -1.2957 -1.1975  0.3456
12555TIP3    H259081   2.259   2.670  10.457  1.2777 -1.0590  0.7982
12556TIP3   OH259082   3.578   3.653  12.603 -0.0603 -0.2871  0.4942
12556TIP3    H159083   3.671   3.639  12.617  0.6185  1.6842 -1.5007
12556TIP3    H259084   3.549   3.703  12.680  0.5460 -0.7427  1.0262
12557TIP3   OH259085   0.652   2.010   0.048 -0.2116 -0.3021  0.5481
12557TIP3    H159086   0.716   2.074   0.080 -0.4774 -0.4594  1.4424
12557TIP3    H259087   0.699   1.959  -0.018  0.2677  0.2491  0.4513
12558TIP3   OH259088   3.922   5.716   0.647  0.1599  0.0468  0.6715
12558TIP3    H159089   3.883   5.660   0.714  2.6983 -0.9321  1.4651
12558TIP3    H259090   3.911   5.668   0.566 -1.7157  0.6004  0.5508
12559TIP3   OH259091   1.068   3.730   5.407  0.5292 -1.1067  0.7479
12559TIP3    H159092   1.159   3.740   5.436  0.7135 -0.2033 -0.0585
12559TIP3    H259093   1.066   3.647   5.360  0.4576 -2.0965  2.4309
12560TIP3   OH259094   3.888   6.774  12.729  0.0845 -0.5919  0.2325
12560TIP3    H159095   3.901   6.832  12.654  0.0412 -0.7296  0.1177
12560TIP3    H259096   3.795   6.749  12.725 -0.5315  1.2170  1.6486
12561TIP3   OH259097   4.986   5.665   5.078  0.1470  0.2125  0.1778
12561TIP3    H159098   4.914   5.728   5.074 -2.0292 -1.9863  1.5230
12561TIP3    H259099   4.974   5.610   5.001  1.7038  1.0196 -0.6970
12562TIP3   OH259100   6.727   1.285   3.369 -0.1042 -0.0276  0.1260
12562TIP3    H159101   6.765   1.356   3.419 -0.8329 -0.4063  1.2450
12562TIP3    H259102   6.633   1.288   3.389 -0.2087 -1.0382 -0.1273
12563TIP3   OH259103   5.461   5.072  16.108  0.8729  0.0755  0.5676
12563TIP3    H159104   5.455   5.099  16.016 -0.1334  1.3004  0.9642
12563TIP3    H259105   5.445   5.152  16.158 -2.0618 -1.1357  1.8263
12564TIP3   OH259106   2.047   5.156   4.685 -0.4998  0.2708  0.0655
12564TIP3    H159107   2.101   5.236   4.690 -0.6211  0.3957 -0.4593
12564TIP3    H259108   1.957   5.188   4.690 -0.5299 -0.0332  2.0326
12565TIP3   OH259109   3.833   2.691   4.852 -0.1174  0.1213 -0.1287
12565TIP3    H159110   3.768   2.621   4.848 -0.1903  0.2112 -2.6928
12565TIP3    H259111   3.830   2.731   4.765 -0.3730  3.6187  1.3127
12566TIP3   OH259112   4.482   0.825  16.165 -0.7036 -0.3363 -0.4423
12566TIP3    H159113   4.573   0.851  16.154 -1.0206  1.5870  0.8927
12566TIP3    H259114   4.484   0.729  16.167  1.2475 -0.3320 -0.6422
12567TIP3   OH259115   2.898   2.792   5.014  0.0099  0.3575  0.4186
12567TIP3    H159116   2.808   2.822   5.001 -0.5175 -1.1831  0.2574
12567TIP3    H259117   2.909   2.720   4.952  1.0968  0.0074  0.9796
12568TIP3   OH259118   1.135   2.345   2.500  0.0511  0.3133  0.3062
12568TIP3    H159119   1.112   2.431   2.466 -1.2873 -0.4260 -0.8115
12568TIP3    H259120   1.099   2.343   2.589 -0.2856  0.7699  0.1824
12569TIP3   OH259121   6.094   6.783   3.337 -0.4768  0.2381  0.6071
12569TIP3    H159122   6.013   6.829   3.318  0.0977  0.3676 -1.8464
12569TIP3    H259123   6.160   6.828   3.285  1.0328 -0.4055  1.8761
12570TIP3   OH259124   4.138   3.151  14.690 -0.5606 -0.2591 -0.4700
12570TIP3    H159125   4.137   3.084  14.758  2.2043 -0.6827 -0.7015
12570TIP3    H259126   4.175   3.107  14.613 -1.9632  0.6609 -1.7223
12571TIP3   OH259127   5.333   1.460  13.223  0.3865  0.7274 -0.4595
12571TIP3    H159128   5.348   1.516  13.146 -2.5756  1.4567 -0.6160
12571TIP3    H259129   5.285   1.516  13.284  0.4176 -0.6339  0.8652
12572TIP3   OH259130   3.455   3.228   2.419  0.8063 -0.0583 -0.1815
12572TIP3    H159131   3.514   3.179   2.476  0.1945 -0.1484  0.3866
12572TIP3    H259132   3.468   3.320   2.444  1.9683  0.1040 -1.2608
12573TIP3   OH259133   3.499   3.801   5.339 -0.6325 -0.1864  0.0036
12573TIP3    H159134   3.485   3.814   5.433 -0.6614  0.1321 -0.0425
12573TIP3    H259135   3.435   3.858   5.297 -0.3029  0.0353 -0.2060
12574TIP3   OH259136   1.860   5.102   6.126 -0.3063  0.1775 -0.4837
12574TIP3    H159137   1.877   5.172   6.063  1.5137 -1.2608 -1.7069
12574TIP3    H259138   1.828   5.029   6.073 -0.9735 -0.3428  0.5980
12575TIP3   OH259139   0.666   5.419  14.290 -0.3056  0.1103 -0.0260
12575TIP3    H159140   0.698   5.505  14.316  0.1106  0.2111 -0.8485
12575TIP3    H259141   0.739   5.378  14.243 -1.5871  0.7072 -2.7417
12576TIP3   OH259142   0.755   3.794  11.936  0.3799  0.0449 -0.7448
12576TIP3    H159143   0.702   3.839  12.002 -0.2932  0.6528 -1.6633
12576TIP3    H259144   0.709   3.713  11.919  1.5320 -1.0068  0.8265
12577TIP3   OH259145   4.546   4.851  15.721  0.4247  0.5585 -0.4503
12577TIP3    H159146   4.591   4.834  15.639  1.2328 -1.8088  0.3856
12577TIP3    H259147   4.491   4.773  15.735 -1.8016  2.1117 -0.0443
12578TIP3   OH259148   2.288   1.116  12.695  0.0616 -0.3669 -0.3282
12578TIP3    H159149   2.209   1.095  12.745  0.4033 -2.3238 -0.5490
12578TIP3    H259150   2.345   1.161  12.758 -0.6321 -0.2538  0.2343
12579TIP3   OH259151   6.158   3.754  10.631 -0.5377 -0.4532 -0.0840
12579TIP3    H159152   6.234   3.699  10.650  0.5372  1.2007  0.5972
12579TIP3    H259153   6.176   3.837  10.675 -1.9745  0.5732 -1.3051
12580TIP3   OH259154   1.596   3.155   1.795 -0.2634 -0.2223  0.1160
12580TIP3    H159155   1.633   3.101   1.865 -0.6929 -2.1173 -1.0436
12580TIP3    H259156   1.503   3.133   1.794 -0.4303  0.4763 -0.4402
12581TIP3   OH259157   0.989   1.436  15.015 -0.3838  0.1689  0.5176
12581TIP3    H159158   1.010   1.377  14.943  0.9232  1.0273  0.1600
12581TIP3    H259159   1.068   1.438  15.069 -0.5967  1.1375  0.8229
12582TIP3   OH259160   1.703   0.668   0.163  0.2441 -0.1120 -0.0756
12582TIP3    H159161   1.610   0.665   0.144  0.2744 -0.6241 -0.1611
12582TIP3    H259162   1.708   0.709   0.249 -0.1495 -1.0991  0.4409
12583TIP3   OH259163   4.335   3.948  14.198  0.7700  0.1679 -0.1439
12583TIP3    H159164   4.293   4.033  14.210 -0.6324 -0.4274 -0.5358
12583TIP3    H259165   4.336   3.909  14.286 -1.0582 -0.4678 -0.3582
12584TIP3   OH259166   2.114   1.992  12.453  0.0762  0.1031  0.0975
12584TIP3    H159167   2.140   2.022  12.540 -2.0626 -1.6459  1.4395
12584TIP3    H259168   2.024   2.021  12.443  0.1583 -0.0849 -1.3718
12585TIP3   OH259169   1.428   0.920  10.485 -0.1341 -0.4161  0.5113
12585TIP3    H159170   1.506   0.973  10.470  0.4915 -1.1379  1.0997
12585TIP3    H259171   1.407   0.933  10.578  0.7973 -2.1434  1.0117
12586TIP3   OH259172   3.372   5.401  15.915 -0.0670 -0.4818 -0.2645
12586TIP3    H159173   3.395   5.363  16.000  1.5925  1.2021  0.1249
12586TIP3    H259174   3.453   5.396  15.864  0.2857  2.3335 -0.1798
12587TIP3   OH259175   0.433   2.254  16.690  0.0159  0.0285  0.9812
12587TIP3    H159176   0.492   2.229  16.619  0.7503  2.4199  0.6507
12587TIP3    H259177   0.488   2.254  16.769  0.0436  0.5777  0.9671
12588TIP3   OH259178   6.614   5.926   3.194  0.4051 -0.1168 -0.0920
12588TIP3    H159179   6.620   5.999   3.134  0.3913 -0.5119 -0.5785
12588TIP3    H259180   6.537   5.945   3.248  0.4995  0.3049 -0.1023
12589TIP3   OH259181   5.329   0.644  15.379  0.3337  0.2626 -0.6461
12589TIP3    H159182   5.256   0.628  15.438 -0.1010 -2.1397 -1.7103
12589TIP3    H259183   5.406   0.640  15.436 -0.1926 -0.0874  0.0670
12590TIP3   OH259184   2.793   0.152   5.745  0.3262 -0.5519 -0.3418
12590TIP3    H159185   2.768   0.095   5.817 -1.7059 -0.8333 -1.1958
12590TIP3    H259186   2.872   0.111   5.708 -0.2674 -2.0316 -0.0459
12591TIP3   OH259187   1.503   2.716  14.212  0.5891 -0.3937 -0.0665
12591TIP3    H159188   1.587   2.762  14.215  0.3394  0.0865 -0.3022
12591TIP3    H259189   1.449   2.760  14.278  0.0461  0.2732 -0.9325
12592TIP3   OH259190   5.092   2.972  17.087  0.2837 -0.7091 -0.5823
12592TIP3    H159191   5.078   2.920  17.008 -0.8883 -0.8138 -0.3208
12592TIP3    H259192   5.161   3.033  17.064 -0.1311 -0.6639 -1.7234
12593TIP3   OH259193   6.247   6.641  12.391  0.2844  0.2067  0.3226
12593TIP3    H159194   6.196   6.701  12.444 -0.5961  1.6381 -2.0260
12593TIP3    H259195   6.191   6.564  12.380 -0.2095  0.5969  0.0958
12594TIP3   OH259196   2.128   1.473   1.050 -0.1647 -0.0289  1.1796
12594TIP3    H159197   2.119   1.422   1.131  2.5985  0.6465  2.0321
12594TIP3    H259198   2.182   1.418   0.993 -1.3822 -0.1346  0.1043
12595TIP3   OH259199   1.956   4.446  12.127  0.1771 -0.0348  0.0963
12595TIP3    H159200   1.910   4.441  12.043  0.3154  0.5630 -0.0167
12595TIP3    H259201   2.047   4.463  12.104  0.4281 -1.0070  0.3316
12596TIP3   OH259202   3.568   6.777   5.794 -0.4988 -0.1838 -0.7267
12596TIP3    H159203   3.659   6.758   5.771  0.1754  1.4926  0.3201
12596TIP3    H259204   3.572   6.861   5.840 -2.6668  0.2657 -1.2272
12597TIP3   OH259205   4.663   2.969   1.641 -0.0989 -0.0651  0.5571
12597TIP3    H159206   4.751   2.932   1.635 -0.5101 -0.9374 -0.3625
12597TIP3    H259207   4.642   2.966   1.735  0.2022 -1.4104  0.5947
12598TIP3   OH259208   0.068   2.337   1.377  0.1907  0.5291 -0.1508
12598TIP3    H159209   0.024   2.300   1.454  0.2196  0.3544 -0.2172
12598TIP3    H259210  -0.003   2.362   1.318  0.0116  3.1196  1.0021
12599TIP3   OH259211   0.014   1.581  14.240 -0.0986 -0.6316 -0.2452
12599TIP3    H159212   0.021   1.646  14.170  0.2008  0.5228  0.8168
12599TIP3    H259213   0.104   1.550  14.252  0.2159  0.5916  0.8828
12600TIP3   OH259214   5.341   6.294   1.236  0.2967 -0.7856  0.4057
12600TIP3    H159215   5.414   6.355   1.243  1.6283 -2.4524  1.6279
12600TIP3    H259216   5.354   6.230   1.306 -3.9826  0.4734  2.7357
12601TIP3   OH259217   4.937   2.355   2.914 -0.5007 -0.0970  0.1122
12601TIP3    H159218   4.993   2.356   2.992  0.8120 -1.9821 -0.7146
12601TIP3    H259219   4.858   2.308   2.942 -0.5827  0.3469  0.6341
12602TIP3   OH259220   2.350   1.485  11.678  0.2458  0.1373  0.2485
12602TIP3    H159221   2.299   1.528  11.747 -0.6923 -1.2021  0.4311
12602TIP3    H259222   2.285   1.447  11.619  1.0355  0.8521 -1.1422
12603TIP3   OH259223   2.203   6.211   5.211 -0.3144  0.0991 -0.0939
12603TIP3    H159224   2.183   6.184   5.301  1.3728  1.4518  0.7280
12603TIP3    H259225   2.235   6.131   5.170  1.0773 -0.0607  1.2056
12604TIP3   OH259226   1.774   3.028   1.430 -0.5606 -0.6744 -0.1348
12604TIP3    H159227   1.825   2.947   1.426  0.0846 -0.4598  2.3160
12604TIP3    H259228   1.785   3.060   1.519 -1.5836  1.6422 -0.7439
12605TIP3   OH259229   0.831   4.797  15.139  0.3143  0.4571  0.2345
12605TIP3    H159230   0.810   4.819  15.048  1.0064  2.1705  0.4530
12605TIP3    H259231   0.902   4.733  15.133  0.6663  0.9052 -0.4380
12606TIP3   OH259232   0.418   3.041  13.000 -0.2045 -0.3571  0.2881
12606TIP3    H159233   0.511   3.049  13.021 -0.5504  0.1613  1.7147
12606TIP3    H259234   0.413   3.063  12.906  1.1638 -0.9366  0.0594
12607TIP3   OH259235   2.195   2.739  11.377  0.3269 -0.4696 -0.1593
12607TIP3    H159236   2.110   2.784  11.375  0.0513 -0.9946 -1.2324
12607TIP3    H259237   2.260   2.808  11.367 -0.0792 -0.2467 -1.4596
12608TIP3   OH259238   5.036   5.526  16.066 -0.3875  0.5214  0.4524
12608TIP3    H159239   5.109   5.526  16.004 -0.5604 -0.8357  0.2129
12608TIP3    H259240   5.059   5.459  16.131 -1.1633  0.4634  0.6816
12609TIP3   OH259241   4.746   1.866  14.207  0.2794 -0.1225 -0.1906
12609TIP3    H159242   4.743   1.847  14.114 -1.3900 -2.3779  0.2254
12609TIP3    H259243   4.662   1.908  14.226 -1.1979 -3.2019  0.8177
12610TIP3   OH259244   3.442   6.568  16.748 -0.4043 -0.0475  0.2843
12610TIP3    H159245   3.433   6.654  16.708  0.2608 -0.0002  0.2227
12610TIP3    H259246   3.353   6.535  16.755 -0.5930  0.2805 -0.4927
12611TIP3   OH259247   1.082   3.709   3.872 -0.3864 -0.1761 -0.2243
12611TIP3    H159248   0.991   3.685   3.854 -1.1290 -0.0212  2.7787
12611TIP3    H259249   1.079   3.804   3.886  0.0938 -0.2648  0.5381
12612TIP3   OH259250   5.651   1.322   5.142  0.4220  0.1403 -0.0794
12612TIP3    H159251   5.640   1.325   5.047 -1.0379  4.4022  0.0096
12612TIP3    H259252   5.728   1.377   5.158  2.1794 -2.5035  1.1952
12613TIP3   OH259253   1.028   5.992   1.935  0.5885 -0.4346  0.1373
12613TIP3    H159254   1.020   5.938   1.857  1.3096 -0.6529  0.2090
12613TIP3    H259255   0.956   6.055   1.928 -0.4428 -1.5666  0.1958
12614TIP3   OH259256   4.630   4.401  12.263  0.1041  0.5250 -0.0716
12614TIP3    H159257   4.626   4.354  12.346 -1.1048  0.3750 -0.1972
12614TIP3    H259258   4.723   4.398  12.238  0.2376 -0.7569  0.5082
12615TIP3   OH259259   2.772   4.124   3.836 -0.0779  0.4837 -0.1158
12615TIP3    H159260   2.785   4.151   3.926  2.1611  0.3234 -0.3330
12615TIP3    H259261   2.703   4.057   3.840 -0.2211  0.7022  1.4103
12616TIP3   OH259262   4.346   2.086   4.905  0.5404 -0.2848  0.4834
12616TIP3    H159263   4.433   2.049   4.894  1.0331 -0.2625  3.4333
12616TIP3    H259264   4.296   2.018   4.950 -0.7679 -0.0131 -0.4823
12617TIP3   OH259265   6.198   2.381  13.649  0.1911  0.2191  0.2708
12617TIP3    H159266   6.286   2.419  13.653 -0.2623  1.3119  0.3136
12617TIP3    H259267   6.173   2.369  13.741 -0.1309  0.9765  0.2931
12618TIP3   OH259268   3.891   4.370   1.200  0.1508  0.2654 -0.1712
12618TIP3    H159269   3.863   4.294   1.150 -0.3211 -0.2659  0.8575
12618TIP3    H259270   3.818   4.389   1.259 -0.2510  2.2777 -1.2192
12619TIP3   OH259271   2.049   1.416  11.309 -0.0658  0.7962 -0.0477
12619TIP3    H159272   2.131   1.370  11.326  1.0019  1.7559 -2.1782
12619TIP3    H259273   1.985   1.371  11.363  1.3506 -1.6952 -0.2966
12620TIP3   OH259274   6.260   0.058  13.637 -0.3600 -0.4109  0.5854
12620TIP3    H159275   6.334   0.079  13.693 -1.6148  0.0656  2.1430
12620TIP3    H259276   6.274   0.111  13.558  0.8591 -0.2221  0.9084
12621TIP3   OH259277   4.616   2.452   5.670  0.1908 -0.0090  0.1635
12621TIP3    H159278   4.522   2.457   5.688 -0.4815 -0.3475 -2.7916
12621TIP3    H259279   4.644   2.372   5.715 -1.5094 -1.2629 -0.8695
12622TIP3   OH259280   0.192   6.182  16.678 -0.0935 -0.5613  0.1543
12622TIP3    H159281   0.163   6.248  16.740 -1.1819 -0.8855  0.0010
12622TIP3    H259282   0.224   6.110  16.733  0.7592 -0.0765  0.3182
12623TIP3   OH259283   0.442   0.795  12.027  0.3934 -0.4443 -0.0014
12623TIP3    H159284   0.434   0.870  11.968  1.4273 -1.5915 -1.6711
12623TIP3    H259285   0.535   0.793  12.051  0.4435 -1.3410 -0.2213
12624TIP3   OH259286   6.811   5.495   4.063  0.0646 -0.5898 -0.1346
12624TIP3    H159287   6.812   5.458   3.975 -0.9132  1.8600 -1.2683
12624TIP3    H259288   6.900   5.525   4.077 -0.1555  0.6069 -1.0839
12625TIP3   OH259289   4.361   2.758   4.292 -0.1982 -0.3259 -0.7397
12625TIP3    H159290   4.305   2.713   4.228 -0.4875 -0.0412 -0.6879
12625TIP3    H259291   4.422   2.690   4.322 -2.1775 -1.3633  1.1724
12626TIP3   OH259292   5.230   6.611   2.034  0.7543 -0.2488 -0.2270
12626TIP3    H159293   5.307   6.608   2.092 -0.3152  0.8698  1.3391
12626TIP3    H259294   5.217   6.704   2.017 -0.4217 -0.4069 -0.2394
12627TIP3   OH259295   4.843   2.872   1.275  0.1863 -0.2632 -0.3949
12627TIP3    H159296   4.804   2.784   1.275  0.0173 -0.2143 -2.1246
12627TIP3    H259297   4.913   2.866   1.340 -0.9073 -1.1602  0.7736
12628TIP3   OH259298   5.682   5.599   5.062  0.4014 -0.1536  0.0204
12628TIP3    H159299   5.659   5.590   5.154  0.1420 -1.6681 -0.1641
12628TIP3    H259300   5.685   5.693   5.047  1.1946  0.1369  1.7586
12629TIP3   OH259301   0.448   6.460  15.935  0.0895  0.0784 -0.2504
12629TIP3    H159302   0.415   6.543  15.970 -0.0497  0.0018 -0.1999
12629TIP3    H259303   0.373   6.402  15.937  0.1637 -0.0210 -0.3764
12630TIP3   OH259304   5.099   1.082   4.398 -0.5567  0.0390  0.3131
12630TIP3    H159305   5.112   1.043   4.484 -0.2985  0.4624  0.4716
12630TIP3    H259306   5.149   1.164   4.401  1.9461 -1.3178 -1.2571
12631TIP3   OH259307   5.635   1.907  10.885 -0.1723 -0.4531  0.6007
12631TIP3    H159308   5.648   1.824  10.839  1.3477  0.3209 -0.4434
12631TIP3    H259309   5.570   1.953  10.833 -0.0395 -0.4559  0.4309
12632TIP3   OH259310   4.594   4.145  14.824  0.0855  0.1289  0.2630
12632TIP3    H159311   4.576   4.239  14.818 -0.4087 -0.0415 -1.7162
12632TIP3    H259312   4.509   4.105  14.841  0.3331  0.0347  1.3449
12633TIP3   OH259313   0.841   0.834  13.138  0.4960 -0.6776  0.5720
12633TIP3    H159314   0.778   0.864  13.204 -1.0939 -3.0290  0.2551
12633TIP3    H259315   0.922   0.820  13.187 -0.0288 -0.2857  1.5944
12634TIP3   OH259316   6.130   2.519   0.326 -0.2737  0.3268  0.1165
12634TIP3    H159317   6.204   2.579   0.328  0.9605 -1.0523 -1.4462
12634TIP3    H259318   6.156   2.450   0.265 -3.4196  0.5031 -1.6580
12635TIP3   OH259319   4.608   0.118   3.693  0.1066  1.1085  0.5990
12635TIP3    H159320   4.520   0.154   3.701 -0.1234  0.9460 -0.8958
12635TIP3    H259321   4.644   0.122   3.781 -1.9583 -0.2888  1.5827
12636TIP3   OH259322   5.121   5.521  13.388 -0.3642  0.0855 -0.0395
12636TIP3    H159323   5.039   5.533  13.436 -0.0326  0.6827  0.3978
12636TIP3    H259324   5.156   5.437  13.419  0.3016  0.8778  1.4891
12637TIP3   OH259325   2.354   5.302   1.483  0.1553  0.0408  0.5638
12637TIP3    H159326   2.425   5.345   1.531 -0.0963  0.6262  0.4191
12637TIP3    H259327   2.293   5.373   1.463 -0.2536 -0.3860  0.3026
12638TIP3   OH259328   1.538   0.881   5.640 -0.2773  0.6982 -0.4200
12638TIP3    H159329   1.543   0.924   5.555  1.5736 -0.6672 -1.0651
12638TIP3    H259330   1.493   0.798   5.622  1.8210 -0.4881 -0.5365
12639TIP3   OH259331   6.479   4.303   4.199 -0.3775  0.2961  0.0947
12639TIP3    H159332   6.515   4.217   4.220 -1.0391 -0.0907 -0.2996
12639TIP3    H259333   6.395   4.283   4.157  0.1311  1.0820 -1.3528
12640TIP3   OH259334   4.184   5.585   4.113  0.3292 -0.1746  0.6085
12640TIP3    H159335   4.105   5.588   4.167 -0.2004 -0.3770 -0.1329
12640TIP3    H259336   4.189   5.494   4.084 -1.6213  0.5840 -2.8121
12641TIP3   OH259337   4.873   6.517   2.922  0.3763  0.2067 -0.3424
12641TIP3    H159338   4.828   6.546   3.002  0.2100  0.6738 -0.6011
12641TIP3    H259339   4.822   6.441   2.893  1.2582 -0.8269  0.7501
12642TIP3   OH259340   1.115   1.995  16.362  0.6022  0.0960 -0.1208
12642TIP3    H159341   1.163   1.913  16.348 -0.0516 -0.5872  1.3998
12642TIP3    H259342   1.109   2.003  16.457 -0.6443  1.1439 -0.2607
12643TIP3   OH259343   6.620   1.940   1.857  0.0095 -0.1722  0.5317
12643TIP3    H159344   6.699   1.926   1.909 -0.5011  1.0765  1.7188
12643TIP3    H259345   6.621   2.033   1.836 -0.9260 -0.2215  0.2018
12644TIP3   OH259346   0.335   3.865  16.014 -0.8421 -0.6754 -0.9059
12644TIP3    H159347   0.359   3.868  15.922  1.2416  1.0785 -0.3881
12644TIP3    H259348   0.394   3.927  16.057 -3.2535  0.3336  1.2911
12645TIP3   OH259349   2.751   3.535  16.403 -0.1780  0.0626 -0.3257
12645TIP3    H159350   2.796   3.515  16.484  0.2655 -1.0943 -0.8438
12645TIP3    H259351   2.716   3.451  16.372  1.2414  0.1193 -2.2627
12646TIP3   OH259352   1.493   2.482  13.997  0.1934 -0.5796  0.1181
12646TIP3    H159353   1.491   2.492  14.092 -1.2284  0.2733  0.0263
12646TIP3    H259354   1.452   2.562  13.964  0.9726 -0.7089 -1.2286
12647TIP3   OH259355   2.223   2.185  12.650  0.2823  0.2634 -0.4078
12647TIP3    H159356   2.310   2.162  12.617 -0.1306  0.5589 -1.7663
12647TIP3    H259357   2.220   2.281  12.644 -0.5577  0.1931 -1.5589
12648TIP3   OH259358   3.404   2.919  12.579  0.4353  0.2317  0.1371
12648TIP3    H159359   3.335   2.874  12.628  0.4965  0.3920  0.3723
12648TIP3    H259360   3.419   3.000  12.628  0.1875  0.6078 -0.3886
12649TIP3   OH259361   4.234   1.022   4.982 -0.6815  0.0438  0.1635
12649TIP3    H159362   4.274   0.937   4.999  0.2519  0.6401  1.0511
12649TIP3    H259363   4.178   1.038   5.058 -1.2143  0.0266 -0.2207
12650TIP3   OH259364   1.375   0.186  11.117 -0.0269 -0.3594  0.5134
12650TIP3    H159365   1.304   0.143  11.069 -1.4446  0.7705  1.4898
12650TIP3    H259366   1.454   0.141  11.089 -0.9899 -0.9019 -1.5156
12651TIP3   OH259367   1.871   3.943  11.874  0.1960 -0.6156 -0.3619
12651TIP3    H159368   1.943   3.959  11.812  1.1438  0.4474  0.9406
12651TIP3    H259369   1.915   3.911  11.953 -0.6723  0.6731  0.6852
12652TIP3   OH259370   4.325   5.226  14.353 -0.2142  0.3627  0.3741
12652TIP3    H159371   4.419   5.219  14.339 -0.4867 -1.3490 -0.8718
12652TIP3    H259372   4.300   5.307  14.308  0.5811  0.6039  0.3589
12653TIP3   OH259373   0.732   5.828  13.114 -0.1395 -1.2570 -0.2983
12653TIP3    H159374   0.675   5.882  13.169 -0.2189 -0.8506 -0.7721
12653TIP3    H259375   0.673   5.763  13.075 -0.4185 -0.4222 -1.3154
12654TIP3   OH259376   4.948   0.580   1.200  0.0893  0.5850  0.3684
12654TIP3    H159377   5.013   0.618   1.142  0.7451  3.4552  2.7757
12654TIP3    H259378   4.998   0.545   1.273 -0.7703 -2.3204 -0.2843
12655TIP3   OH259379   2.557   6.693   0.530 -0.2992  0.1564  0.1454
12655TIP3    H159380   2.573   6.598   0.534  1.2549  0.2589 -2.1364
12655TIP3    H259381   2.610   6.729   0.601 -0.4976 -0.6346  0.7080
12656TIP3   OH259382   3.399   3.602  12.426 -0.0651 -0.1138  0.5465
12656TIP3    H159383   3.458   3.648  12.487  1.7063 -1.4095 -0.1155
12656TIP3    H259384   3.375   3.669  12.362  0.2252  0.5769  1.1295
12657TIP3   OH259385   1.463   0.841  11.535  0.3705 -0.0297  0.0414
12657TIP3    H159386   1.401   0.906  11.501  0.5173 -0.0056 -0.1858
12657TIP3    H259387   1.408   0.768  11.564  0.3280 -1.0202 -2.3121
12658TIP3   OH259388   1.632   0.019  11.234  0.2799 -0.0164 -0.2052
12658TIP3    H159389   1.544  -0.009  11.260  0.7964  0.1909  2.0028
12658TIP3    H259390   1.626   0.037  11.140 -1.3630 -2.5117 -0.6600
12659TIP3   OH259391   5.208   5.454  16.306 -0.5333 -0.0702 -0.4929
12659TIP3    H159392   5.141   5.436  16.372  0.3573  1.3351  0.8822
12659TIP3    H259393   5.216   5.549  16.305  2.8055 -0.1954  0.9116
12660TIP3   OH259394   2.345   4.977  11.458 -0.2363 -0.1776  0.0363
12660TIP3    H159395   2.387   5.050  11.413  0.2727 -1.2152 -1.2226
12660TIP3    H259396   2.252   4.983  11.433 -0.2416  0.1853  0.1470
12661TIP3   OH259397   2.532   1.523  10.144  0.0218 -0.5357 -0.5398
12661TIP3    H159398   2.502   1.511  10.235  0.0158 -2.3825 -0.7499
12661TIP3    H259399   2.471   1.586  10.107  0.2380  0.5302  0.8321
12662TIP3   OH259400   3.474   4.387  11.208 -0.0465 -0.2013 -0.2125
12662TIP3    H159401   3.474   4.475  11.172 -2.0953  0.2432  0.7211
12662TIP3    H259402   3.401   4.343  11.164  0.0528 -0.9694  0.3588
12663TIP3   OH259403   0.500   6.105  11.498  0.4295 -0.7616  0.2522
12663TIP3    H159404   0.495   6.178  11.559  0.1558 -0.8017  0.2797
12663TIP3    H259405   0.499   6.027  11.554  1.5945 -0.7827  0.2786
12664TIP3   OH259406   4.451   5.041  13.763  0.0876  0.5384  0.3316
12664TIP3    H159407   4.496   5.119  13.731  0.5296 -0.2236 -0.9646
12664TIP3    H259408   4.406   5.070  13.843  0.9392  1.8967  0.3448
12665TIP3   OH259409   0.954   6.528  11.920 -0.8139 -0.5600  0.1980
12665TIP3    H159410   0.939   6.570  12.005 -1.9016 -0.2993 -0.1056
12665TIP3    H259411   0.906   6.445  11.926  1.1382 -1.7335  0.7167
12666TIP3   OH259412   2.521   0.500   2.353 -0.1681  0.2740  0.5562
12666TIP3    H159413   2.546   0.490   2.261 -0.7431 -0.5365  0.4718
12666TIP3    H259414   2.601   0.480   2.402  0.2100  0.9593  0.2341
12667TIP3   OH259415   0.640   4.071   1.758  0.5047 -0.3138  0.0703
12667TIP3    H159416   0.562   4.121   1.782 -0.6447 -1.4214 -1.1732
12667TIP3    H259417   0.714   4.124   1.789 -0.7331  0.3695  2.0556
12668TIP3   OH259418   0.041   4.295  13.787  0.2349  0.4966  0.5844
12668TIP3    H159419  -0.042   4.262  13.822 -0.1338 -1.0948 -1.5945
12668TIP3    H259420   0.016   4.359  13.721  0.8095  0.9532  0.7973
12669TIP3   OH259421   1.315   3.118   5.032  0.3087 -0.1066 -0.1674
12669TIP3    H159422   1.352   3.082   5.113 -1.3649 -1.3045  0.1254
12669TIP3    H259423   1.390   3.124   4.973  1.3219 -0.5298  1.0154
12670TIP3   OH259424   2.157   4.778  15.876 -0.2447 -0.0258  0.3500
12670TIP3    H159425   2.118   4.690  15.881 -0.7220  0.2579  2.9181
12670TIP3    H259426   2.136   4.819  15.959  0.9564  2.1531 -0.3241
12671TIP3   OH259427   5.338   0.969   3.181  0.1708  0.0973  0.4879
12671TIP3    H159428   5.422   0.966   3.135  0.0329  0.8081  0.1768
12671TIP3    H259429   5.358   1.008   3.266  0.4149 -1.1611  1.0338
12672TIP3   OH259430   3.888   4.863   5.088  0.1713  0.5584  0.5245
12672TIP3    H159431   3.945   4.803   5.137  0.7945 -0.3398 -1.2205
12672TIP3    H259432   3.839   4.806   5.029 -0.8135  1.5713  0.3418
12673TIP3   OH259433   5.544   6.323  13.772 -0.4848  0.0232 -0.0653
12673TIP3    H159434   5.463   6.373  13.784 -1.3174 -0.7329 -2.1188
12673TIP3    H259435   5.515   6.231  13.775 -0.2727 -0.2943 -3.5719
12674TIP3   OH259436   2.146   3.644   6.176 -0.0347 -0.4276  0.1996
12674TIP3    H159437   2.187   3.608   6.255  0.2485 -1.6663 -0.4837
12674TIP3    H259438   2.053   3.626   6.188  0.0694 -1.1269  0.0096
12675TIP3   OH259439   2.050   0.882  12.428  0.2346  0.2041 -0.6482
12675TIP3    H159440   2.035   0.803  12.376 -0.1407 -0.9894  1.1983
12675TIP3    H259441   1.974   0.887  12.486  1.9618 -0.1877  1.8103
12676TIP3   OH259442   6.543   0.699   2.183 -0.3533 -0.0315  0.3833
12676TIP3    H159443   6.470   0.739   2.136 -0.0663 -0.0308 -0.0622
12676TIP3    H259444   6.590   0.774   2.221  0.8899  0.2016 -1.4537
12677TIP3   OH259445   0.597   3.661   5.998  0.2383  0.1016  0.1296
12677TIP3    H159446   0.585   3.756   6.002 -1.3851 -0.0524 -0.3436
12677TIP3    H259447   0.550   3.628   6.075  0.2175 -0.3692 -0.0824
12678TIP3   OH259448   5.732   2.105   4.156  0.5849 -0.2027 -0.1451
12678TIP3    H159449   5.739   2.166   4.230 -1.0091 -0.7503  0.5103
12678TIP3    H259450   5.822   2.078   4.138  1.0859  0.5732  1.0562
12679TIP3   OH259451   0.547   5.400   0.541 -0.7847  0.3120 -0.1709
12679TIP3    H159452   0.511   5.467   0.483 -1.1892 -0.5517 -0.9355
12679TIP3    H259453   0.512   5.422   0.627 -0.4661  1.4005 -0.3036
12680TIP3   OH259454   6.780   0.403   3.741  0.2983  0.1401 -0.0664
12680TIP3    H159455   6.728   0.445   3.672 -1.3533  1.8865  2.1159
12680TIP3    H259456   6.727   0.328   3.768  0.1688  0.4030  0.4059
12681TIP3   OH259457   5.787   0.485   3.714  0.2370 -0.0150 -0.2165
12681TIP3    H159458   5.840   0.512   3.639 -0.8077  0.7981 -0.6859
12681TIP3    H259459   5.723   0.424   3.677 -1.6422  1.9990 -0.4390
12682TIP3   OH259460   0.891   5.393   2.173  0.1795  0.3776 -0.6143
12682TIP3    H159461   0.884   5.464   2.236 -0.0226 -0.2024  0.0333
12682TIP3    H259462   0.813   5.339   2.189  1.0694 -0.7999 -0.0733
12683TIP3   OH259463   3.541   0.741  15.946  0.2286 -0.4202  0.0821
12683TIP3    H159464   3.630   0.749  15.980 -0.0486 -0.8317  0.9155
12683TIP3    H259465   3.526   0.647  15.939 -0.6461 -0.4049  1.3453
12684TIP3   OH259466   5.265   6.775   4.960 -0.2559  0.6508 -0.3974
12684TIP3    H159467   5.258   6.864   4.996  0.6870  0.5055  0.1962
12684TIP3    H259468   5.175   6.743   4.957 -0.7153  1.9510 -1.4741
12685TIP3   OH259469   3.007   1.094  11.937 -0.3060 -0.2051  0.2234
12685TIP3    H159470   3.007   1.169  11.996 -1.0198  1.1316 -1.4120
12685TIP3    H259471   2.950   1.030  11.979 -1.1876  0.9011  0.7460
12686TIP3   OH259472   2.916   4.622  12.298 -0.0935  0.3890  0.0591
12686TIP3    H159473   2.992   4.575  12.332  0.5751  0.3353 -1.4224
12686TIP3    H259474   2.889   4.571  12.221 -1.7167  0.3421  0.6156
12687TIP3   OH259475   0.763   2.663   1.124 -0.3526  0.1529  0.3791
12687TIP3    H159476   0.769   2.735   1.188 -1.8992  1.7493 -1.1343
12687TIP3    H259477   0.848   2.663   1.080 -0.3871  1.2284  0.2751
12688TIP3   OH259478   1.222   0.230  13.819  0.2953  1.0691  0.3516
12688TIP3    H159479   1.314   0.237  13.844  0.6258 -1.6976  0.2231
12688TIP3    H259480   1.188   0.319  13.827  2.2048  1.6713  3.3337
12689TIP3   OH259481   1.360   4.180   0.533  0.4016  0.5074  0.2401
12689TIP3    H159482   1.406   4.264   0.530 -0.2309  0.8455 -0.2790
12689TIP3    H259483   1.379   4.139   0.448 -0.1961  0.6164  0.0552
12690TIP3   OH259484   0.125   1.279   5.137 -0.2661  0.0539 -0.1001
12690TIP3    H159485   0.212   1.273   5.099 -0.9348 -0.2627 -1.6437
12690TIP3    H259486   0.123   1.364   5.180  0.3797  0.6088 -1.1388
12691TIP3   OH259487   4.033   1.024  14.422  0.2464  0.6489  0.0950
12691TIP3    H159488   4.092   0.950  14.407  0.6293  0.6270  1.5143
12691TIP3    H259489   3.988   1.002  14.504  0.7647  2.2173  0.8410
12692TIP3   OH259490   0.129   6.533   5.420 -0.6715 -0.3967 -0.3097
12692TIP3    H159491   0.171   6.546   5.334 -1.4356 -2.1480 -0.9961
12692TIP3    H259492   0.137   6.618   5.463  1.8205 -0.0977 -1.1731
12693TIP3   OH259493   0.165   0.432  11.664 -0.5547 -0.4527  0.1906
12693TIP3    H159494   0.243   0.473  11.627 -0.7414  0.5700  0.8910
12693TIP3    H259495   0.189   0.340  11.675  0.1873 -0.3580 -0.5607
12694TIP3   OH259496   1.897   2.482  14.551 -0.3753 -0.4285  0.0317
12694TIP3    H159497   1.934   2.506  14.467  1.7550  1.8074  1.4610
12694TIP3    H259498   1.803   2.496  14.541 -0.0970  0.3760 -1.7849
12695TIP3   OH259499   4.550   6.317  14.668 -0.2031 -0.4773 -0.2393
12695TIP3    H159500   4.625   6.361  14.707 -1.4796  0.7851  0.8838
12695TIP3    H259501   4.510   6.383  14.611 -0.2563 -1.2712 -1.1583
12696TIP3   OH259502   5.506   2.431   5.056 -0.1225 -0.1301 -0.5692
12696TIP3    H159503   5.421   2.398   5.082 -0.3108  0.2995 -0.6324
12696TIP3    H259504   5.534   2.372   4.985 -0.3598 -0.2741 -0.5436
12697TIP3   OH259505   2.055   0.112  12.005 -0.2652  0.3622 -0.6376
12697TIP3    H159506   1.977   0.160  11.977 -1.5226 -0.8043  0.7104
12697TIP3    H259507   2.024   0.055  12.076  1.7946 -0.2277 -0.1529
12698TIP3   OH259508   5.223   3.192   5.510  0.0480 -0.0556  0.2380
12698TIP3    H159509   5.227   3.098   5.525 -0.2939  0.0490  1.0253
12698TIP3    H259510   5.145   3.221   5.558 -2.3512  0.0352 -3.2823
12699TIP3   OH259511   4.642   5.453   1.275 -0.0037 -0.5342 -0.0360
12699TIP3    H159512   4.551   5.472   1.296  0.2376  0.8854 -0.1697
12699TIP3    H259513   4.642   5.438   1.181 -0.1742 -1.0419  0.0431
12700TIP3   OH259514   6.529   4.603   6.201  0.1491 -0.4734 -0.1716
12700TIP3    H159515   6.585   4.633   6.129  0.4242 -1.3512 -0.3314
12700TIP3    H259516   6.443   4.640   6.181  0.3514 -0.2570 -0.6615
12701TIP3   OH259517   5.912   5.904   2.271 -0.0237 -0.2510 -0.5287
12701TIP3    H159518   5.995   5.951   2.280  0.0985 -0.1791 -1.8828
12701TIP3    H259519   5.848   5.973   2.253  0.0872 -0.5420 -2.1243
12702TIP3   OH259520   2.746   1.669  15.335 -0.3476  0.0606  0.3019
12702TIP3    H159521   2.654   1.653  15.354 -0.4225  1.0591  0.8419
12702TIP3    H259522   2.779   1.717  15.411  0.9481 -1.3292  0.6950
12703TIP3   OH259523   0.340   6.070   1.224 -0.0457  0.0629  0.3584
12703TIP3    H159524   0.287   6.123   1.283 -0.3197  0.8722 -0.5841
12703TIP3    H259525   0.429   6.103   1.234  0.0880 -0.4742  1.0362
12704TIP3   OH259526   1.822   1.453   1.772 -0.2796 -0.1364  0.0088
12704TIP3    H159527   1.889   1.512   1.809 -0.6291  0.7608 -0.7559
12704TIP3    H259528   1.864   1.414   1.696 -0.8742  1.0706 -0.9736
12705TIP3   OH259529   2.957   0.013   3.980 -0.4160  0.2836 -0.2455
12705TIP3    H159530   2.916  -0.062   3.936  1.7298 -0.6706 -0.7664
12705TIP3    H259531   2.953   0.084   3.916 -0.3385 -0.1136 -0.6996
12706TIP3   OH259532   5.090   3.542   2.995 -0.1813 -0.0130 -0.4123
12706TIP3    H159533   5.018   3.604   3.009  1.9395  2.1744  1.8725
12706TIP3    H259534   5.160   3.594   2.956  0.5853 -1.8105 -1.5578
12707TIP3   OH259535   3.089   3.251  13.148 -0.1330  0.0665 -0.4700
12707TIP3    H159536   3.164   3.202  13.183 -1.2559 -1.5575 -0.2280
12707TIP3    H259537   3.089   3.333  13.198 -0.2838 -1.1862  1.7474
12708TIP3   OH259538   3.203   3.283  12.870 -0.0557 -0.1707  0.0394
12708TIP3    H159539   3.252   3.365  12.878  0.8271 -0.6479 -0.3663
12708TIP3    H259540   3.165   3.269  12.957  1.5601 -0.4235  0.7304
12709TIP3   OH259541   0.174   0.503   5.165  0.0144  0.3172 -0.9782
12709TIP3    H159542   0.083   0.531   5.168 -0.9133 -2.3258 -1.4985
12709TIP3    H259543   0.195   0.480   5.255  0.2913  1.1743 -0.8113
12710TIP3   OH259544   4.153   3.567  12.226 -0.1806 -0.1215 -0.1684
12710TIP3    H159545   4.108   3.500  12.174  0.0954  0.7807 -1.6317
12710TIP3    H259546   4.085   3.633  12.242  0.1152  0.3315 -0.7346
12711TIP3   OH259547   4.845   1.716   5.523  0.3737  0.2123 -0.2114
12711TIP3    H159548   4.842   1.717   5.427  0.8613 -1.2909 -0.2708
12711TIP3    H259549   4.889   1.634   5.544 -0.6551  0.0315  1.3260
12712TIP3   OH259550   2.725   6.530   6.244  0.2951 -0.1884  0.1684
12712TIP3    H159551   2.664   6.597   6.276 -1.0237  0.0517 -2.6233
12712TIP3    H259552   2.689   6.447   6.275  0.7869  0.1945  1.8722
12713TIP3   OH259553   3.281   0.982  12.915  0.3533 -0.5974 -0.0192
12713TIP3    H159554   3.298   0.888  12.914 -0.5924 -0.8449  2.1312
12713TIP3    H259555   3.188   0.990  12.896  0.2084 -0.1740  0.8529
12714TIP3   OH259556   3.650   4.107   1.707  0.0662  0.2261  0.0516
12714TIP3    H159557   3.739   4.087   1.676  0.3482  2.5013 -0.8598
12714TIP3    H259558   3.660   4.188   1.757 -1.2265 -0.6051  1.7519
12715TIP3   OH259559   4.001   4.269  12.680  0.0535 -0.2032 -0.2225
12715TIP3    H159560   4.091   4.237  12.671 -0.2074 -1.1780  0.4684
12715TIP3    H259561   4.007   4.341  12.742  0.3973 -0.0852 -0.3902
12716TIP3   OH259562   2.298   0.070  12.348  0.1807  0.3058 -1.0468
12716TIP3    H159563   2.340   0.116  12.421  1.5447 -0.9169 -1.0255
12716TIP3    H259564   2.242   0.137  12.307  1.5976  1.8120 -0.6347
12717TIP3   OH259565   1.643   4.653  15.943  0.3832 -0.7943 -0.4178
12717TIP3    H159566   1.548   4.655  15.931  0.5504  1.2283 -1.9421
12717TIP3    H259567   1.677   4.706  15.871  2.4111  1.8614  2.2715
12718TIP3   OH259568   3.700   0.576   1.152 -0.5080 -0.2755 -0.3317
12718TIP3    H159569   3.639   0.644   1.180  1.1197  0.3260  2.0245
12718TIP3    H259570   3.755   0.618   1.086 -1.3604 -0.2257 -1.0196
12719TIP3   OH259571   3.101   4.760  15.144 -0.2897  0.3071 -0.5581
12719TIP3    H159572   3.040   4.792  15.210 -1.6213 -0.8953 -1.1457
12719TIP3    H259573   3.136   4.679  15.181  0.3004  0.5431 -0.5941
12720TIP3   OH259574   2.265   0.188  13.361  0.1755 -0.2737 -0.0350
12720TIP3    H159575   2.296   0.255  13.299  1.6428 -1.1526 -0.2955
12720TIP3    H259576   2.345   0.143  13.388 -0.4277  0.0903  2.5236
12721TIP3   OH259577   4.498   6.704  15.961  0.3549 -0.5184 -0.2698
12721TIP3    H159578   4.541   6.630  16.003 -1.2157 -2.8013 -2.4134
12721TIP3    H259579   4.465   6.670  15.878 -0.8387  2.4857 -1.1975
12722TIP3   OH259580   1.686   5.959  11.975 -0.2839  0.1948 -0.2171
12722TIP3    H159581   1.711   5.892  12.039 -0.0970 -1.0417 -1.5281
12722TIP3    H259582   1.648   6.029  12.028  0.2643 -0.5832  1.2793
12723TIP3   OH259583   0.883   2.950  15.859 -0.0886 -0.1553 -0.4676
12723TIP3    H159584   0.958   2.978  15.910  0.3923 -0.7379 -0.8331
12723TIP3    H259585   0.813   2.937  15.923  0.0845  0.4989 -0.1386
12724TIP3   OH259586   5.962   6.551   0.455 -0.5704  0.1530 -0.4640
12724TIP3    H159587   6.011   6.510   0.527 -0.3004  1.1151 -0.0758
12724TIP3    H259588   5.870   6.542   0.481 -0.5016 -0.0012 -0.2671
12725TIP3   OH259589   3.538   5.588  14.820 -0.6958  0.0367 -0.3673
12725TIP3    H159590   3.547   5.615  14.729 -0.8301 -0.8124 -0.6432
12725TIP3    H259591   3.450   5.618  14.845 -1.7140 -1.9250 -1.3304
12726TIP3   OH259592   4.649   6.307   6.099 -0.5825  0.3208 -0.1095
12726TIP3    H159593   4.607   6.299   6.014 -1.3839 -1.1206  0.3851
12726TIP3    H259594   4.722   6.366   6.084 -1.0355  0.5340 -1.6676
12727TIP3   OH259595   5.106   0.356   0.684  0.4055  0.0475 -0.7930
12727TIP3    H159596   5.067   0.443   0.680  1.5096  0.5311 -3.7299
12727TIP3    H259597   5.168   0.361   0.757 -2.4003  0.3114  1.7615
12728TIP3   OH259598   2.430   1.202  11.578 -0.0720  0.1874 -0.2852
12728TIP3    H159599   2.487   1.245  11.515 -0.4518 -0.3544 -1.0118
12728TIP3    H259600   2.447   1.247  11.661 -1.0590  2.3083 -1.1578
12729TIP3   OH259601   1.162   5.030  15.246  0.2483 -0.9333 -0.1774
12729TIP3    H159602   1.099   5.089  15.204 -0.0356 -1.8867 -1.1207
12729TIP3    H259603   1.151   5.046  15.340 -0.4880 -0.1701 -0.3847
12730TIP3   OH259604   0.547   3.986  12.955 -0.4892 -0.2041 -0.6889
12730TIP3    H159605   0.496   3.986  13.036  0.7590 -0.8998  0.1434
12730TIP3    H259606   0.590   4.071  12.954 -1.1579  0.1351 -1.0661
12731TIP3   OH259607   3.150   5.444  10.524 -0.0521 -0.0977 -0.6507
12731TIP3    H159608   3.229   5.403  10.488  0.8570  0.8732  0.1825
12731TIP3    H259609   3.130   5.393  10.602  1.3986  1.2923  0.6956
12732TIP3   OH259610   0.906   0.315   1.445  0.0645  0.5863 -0.2792
12732TIP3    H159611   0.965   0.389   1.432  1.3587 -0.4887 -0.7307
12732TIP3    H259612   0.880   0.289   1.356 -1.5763  1.4019 -0.0671
12733TIP3   OH259613   0.466   6.615   2.121  0.1037  0.2427  0.8869
12733TIP3    H159614   0.442   6.610   2.213  0.7859  0.1462  1.0715
12733TIP3    H259615   0.533   6.547   2.110  0.1071  0.3249  0.3459
12734TIP3   OH259616   4.398   2.638   3.398  0.5498  0.8479 -0.0702
12734TIP3    H159617   4.394   2.716   3.454 -1.5182  1.0889 -0.4717
12734TIP3    H259618   4.310   2.631   3.360  0.8016 -1.4183 -0.4083
12735TIP3   OH259619   6.572   0.845  11.047  0.2113  0.3100  0.0016
12735TIP3    H159620   6.661   0.812  11.052  0.5216  1.3192  3.4891
12735TIP3    H259621   6.533   0.797  10.973  2.8656 -1.9426 -0.1065
12736TIP3   OH259622   2.702   4.468  15.987  0.3735 -0.3021  0.1366
12736TIP3    H159623   2.741   4.493  15.903 -1.8217 -0.3277 -0.9530
12736TIP3    H259624   2.747   4.523  16.052  1.1976  0.6611 -1.2151
12737TIP3   OH259625   6.799   6.767   2.137  0.2675 -0.2403 -0.3298
12737TIP3    H159626   6.773   6.802   2.052 -0.6800 -3.3049 -1.4387
12737TIP3    H259627   6.773   6.834   2.200 -0.4174  1.4560 -2.3180
12738TIP3   OH259628   5.496   5.994   0.704  0.2340 -0.2890 -0.1261
12738TIP3    H159629   5.556   6.033   0.768  0.4948 -0.1280 -0.4646
12738TIP3    H259630   5.550   5.980   0.626  0.3254 -1.9785  0.1957
12739TIP3   OH259631   0.764   5.661   0.901 -0.3263 -0.3557  0.3144
12739TIP3    H159632   0.767   5.704   0.987 -1.0827  0.2517  0.0448
12739TIP3    H259633   0.780   5.732   0.838 -0.6040 -0.6512 -0.0905
12740TIP3   OH259634   3.317   3.558  13.024  0.9201  0.5220  0.2749
12740TIP3    H159635   3.350   3.545  12.935  0.1961 -3.1262  0.3622
12740TIP3    H259636   3.221   3.559  13.014  0.8161 -0.4210  0.9919
12741TIP3   OH259637   2.844   3.111   1.061  0.2301 -0.1673  0.0058
12741TIP3    H159638   2.912   3.175   1.080 -0.3175  0.2920  0.4501
12741TIP3    H259639   2.873   3.030   1.104  0.7990 -0.1553 -0.3450
12742TIP3   OH259640   5.124   3.671  12.581 -0.5671  0.4504  0.6764
12742TIP3    H159641   5.200   3.708  12.538 -0.1393 -0.7894  0.3143
12742TIP3    H259642   5.159   3.634  12.662 -0.6710 -0.5938  0.2584
12743TIP3   OH259643   6.748   2.676   4.225 -0.0027  0.0062  0.3071
12743TIP3    H159644   6.748   2.605   4.290 -1.2206 -2.4614 -2.2030
12743TIP3    H259645   6.661   2.715   4.231  0.6419  1.3680  1.6339
12744TIP3   OH259646   3.330   2.997  16.479  0.0709 -0.2227  0.3158
12744TIP3    H159647   3.421   3.020  16.498  0.4893 -0.2401 -1.5364
12744TIP3    H259648   3.282   3.079  16.489  0.7349  0.3946 -1.2795
12745TIP3   OH259649   0.056   3.161  12.583 -0.3861  0.3653 -0.0799
12745TIP3    H159650   0.079   3.085  12.636 -1.2954  0.9923  1.2715
12745TIP3    H259651   0.014   3.125  12.505  0.0512 -0.5442  0.0945
12746TIP3   OH259652   5.480   0.816  13.196 -0.3900  0.2805  0.4913
12746TIP3    H159653   5.569   0.849  13.212  0.6254 -0.4136 -2.8538
12746TIP3    H259654   5.439   0.883  13.142 -1.0002 -0.4946 -0.0350
12747TIP3   OH259655   2.639   5.717   0.749  0.5259 -0.0014  0.3621
12747TIP3    H159656   2.704   5.724   0.679  0.3461 -1.7780 -0.0220
12747TIP3    H259657   2.555   5.708   0.703  0.3172 -0.4386  0.8219
12748TIP3   OH259658   0.832   6.389   6.460 -0.1933 -0.2720 -0.6922
12748TIP3    H159659   0.751   6.422   6.498  0.0213 -0.4973 -0.0359
12748TIP3    H259660   0.813   6.382   6.366 -0.9231 -0.3115 -0.5478
12749TIP3   OH259661   6.576   4.093   6.413  0.2308  0.0629 -0.2109
12749TIP3    H159662   6.624   4.175   6.427  0.9989 -0.1912 -1.1958
12749TIP3    H259663   6.529   4.078   6.494  1.2560  0.7081  0.5244
12750TIP3   OH259664   4.896   5.483  13.850 -0.3474  0.2126 -0.5423
12750TIP3    H159665   4.892   5.438  13.935 -1.5949 -0.4789 -0.9445
12750TIP3    H259666   4.808   5.475  13.815 -0.4293  2.3783 -0.9642
12751TIP3   OH259667   3.081   6.782  16.584  0.4462 -0.4598 -0.1609
12751TIP3    H159668   3.027   6.741  16.517  0.1319  1.0363 -0.8872
12751TIP3    H259669   3.114   6.862  16.541  1.3087 -0.1434  1.0457
12752TIP3   OH259670   6.226   1.563   3.130 -0.6498 -0.0172 -1.3614
12752TIP3    H159671   6.307   1.526   3.095  0.6833  0.9495  0.5266
12752TIP3    H259672   6.156   1.516   3.084  0.9197 -3.1433 -0.7862
12753TIP3   OH259673   3.508   2.781   5.567 -0.3279  0.8108  0.0557
12753TIP3    H159674   3.460   2.741   5.640  0.1847 -0.8341 -0.4715
12753TIP3    H259675   3.589   2.813   5.607  0.2106 -0.5980  0.1364
12754TIP3   OH259676   3.537   4.835   2.604  0.4328 -0.0590 -0.2440
12754TIP3    H159677   3.589   4.805   2.530  2.9474  0.3463  1.2250
12754TIP3    H259678   3.576   4.790   2.680 -2.0303 -0.4703  0.8798
12755TIP3   OH259679   5.038   1.330  15.208 -0.7552 -0.4202 -0.2542
12755TIP3    H159680   5.099   1.320  15.135 -2.7038 -0.3398 -1.9731
12755TIP3    H259681   5.080   1.395  15.265 -0.0367  1.0205 -2.2976
12756TIP3   OH259682   6.334   0.278  15.013 -0.3920 -0.3191  0.4860
12756TIP3    H159683   6.421   0.246  15.034  0.0615  0.0311 -0.7751
12756TIP3    H259684   6.308   0.227  14.936  0.1216  1.8918 -1.2469
12757TIP3   OH259685   0.229   5.773  16.997 -0.0277  0.1620 -0.6073
12757TIP3    H159686   0.163   5.752  17.063  1.3729 -0.9505  0.5079
12757TIP3    H259687   0.226   5.700  16.935 -0.8665  0.8675 -1.4250
12758TIP3   OH259688   5.591   5.935   1.927 -0.3288 -0.6883 -0.3989
12758TIP3    H159689   5.617   5.848   1.955 -1.1528 -0.5518  0.8802
12758TIP3    H259690   5.496   5.932   1.922 -0.5431  0.6122  1.5288
12759TIP3   OH259691   1.833   1.026  11.570  0.5892  0.1895  0.1465
12759TIP3    H159692   1.843   0.961  11.500  0.3937  0.3311 -0.0158
12759TIP3    H259693   1.739   1.048  11.568 -0.1171 -2.1335  2.5166
12760TIP3   OH259694   4.613   3.018  14.315  0.6451 -0.0964  0.1135
12760TIP3    H159695   4.680   2.951  14.331  1.1368  0.1528 -0.8121
12760TIP3    H259696   4.592   3.052  14.402  2.8143  0.8422  0.3478
12761TIP3   OH259697   3.887   2.077  14.235 -0.1641 -0.1399 -0.1687
12761TIP3    H159698   3.830   2.045  14.166 -2.0874 -0.6012  1.5154
12761TIP3    H259699   3.961   2.015  14.237  0.3970  0.3894 -2.3009
12762TIP3   OH259700   3.215   6.528   0.987 -0.1610 -0.3631  0.0134
12762TIP3    H159701   3.309   6.532   1.003 -0.1604  0.7651 -0.1869
12762TIP3    H259702   3.182   6.468   1.054  0.6738 -0.6943  0.1474
12763TIP3   OH259703   2.720   6.167   4.893  0.4202 -0.3385 -0.0734
12763TIP3    H159704   2.804   6.140   4.929  0.1290 -2.7879 -1.0390
12763TIP3    H259705   2.735   6.173   4.799 -0.8796 -2.7852 -0.5125
12764TIP3   OH259706   6.012   0.739   4.781  0.1343 -0.8546  0.5486
12764TIP3    H159707   5.949   0.806   4.807 -0.7280 -1.1825 -0.6091
12764TIP3    H259708   6.013   0.677   4.854  0.7553  0.2680  1.5142
12765TIP3   OH259709   3.685   1.632   1.827 -0.2138  0.1082  0.4404
12765TIP3    H159710   3.700   1.665   1.915 -0.2905  0.6361  0.2592
12765TIP3    H259711   3.639   1.549   1.839 -0.7555  0.4663  0.8818
12766TIP3   OH259712   6.447   6.087   1.912  0.2370 -0.5339 -0.7404
12766TIP3    H159713   6.513   6.095   1.980  0.0599  1.7100 -0.7649
12766TIP3    H259714   6.490   6.038   1.842  1.5138 -0.0264 -0.3317
12767TIP3   OH259715   0.475   0.803  17.030 -0.0442  0.3574 -0.5409
12767TIP3    H159716   0.438   0.790  17.118  0.5632  0.1174 -0.3171
12767TIP3    H259717   0.547   0.865  17.044  1.3091 -1.1657 -0.5438
12768TIP3   OH259718   6.526   5.764   4.524 -0.3416  0.2935 -0.3136
12768TIP3    H159719   6.457   5.699   4.535 -1.7409  1.3097 -2.2802
12768TIP3    H259720   6.605   5.722   4.557 -1.2960 -2.1516 -0.9263
12769TIP3   OH259721   2.863   2.646  14.308  0.2335  0.0057  0.0711
12769TIP3    H159722   2.805   2.577  14.275 -0.6929  0.8992 -0.2437
12769TIP3    H259723   2.927   2.658  14.239 -0.3357  0.2972 -0.4125
12770TIP3   OH259724   5.330   3.167  11.141  0.0786 -0.1184 -0.3875
12770TIP3    H159725   5.326   3.158  11.045  1.0575  1.0779 -0.5582
12770TIP3    H259726   5.397   3.104  11.168  0.5777  0.3040 -0.6192
12771TIP3   OH259727   0.001   1.118  14.600 -0.4350 -0.1101  0.4150
12771TIP3    H159728   0.043   1.115  14.514 -0.5902 -0.3889  0.3480
12771TIP3    H259729   0.010   1.029  14.635  0.3133  0.1869  1.0254
12772TIP3   OH259730   4.123   2.620  10.913 -0.0541  0.2604  0.2952
12772TIP3    H159731   4.087   2.706  10.935  1.5545  0.8689  0.7029
12772TIP3    H259732   4.066   2.558  10.959 -0.1410  1.2163  1.5310
12773TIP3   OH259733   2.376   5.407   5.581  0.5881  0.1538  0.2890
12773TIP3    H159734   2.387   5.502   5.587 -1.3520  0.4307  0.1340
12773TIP3    H259735   2.331   5.383   5.663  1.4424 -0.7188  0.5259
12774TIP3   OH259736   4.139   4.459  11.165  0.4018  0.1075  0.0628
12774TIP3    H159737   4.067   4.460  11.228  0.3016 -1.3598  0.0209
12774TIP3    H259738   4.098   4.481  11.081  0.2945  0.7646  0.2804
12775TIP3   OH259739   1.860   1.119   4.572  0.4724 -0.3454  0.0172
12775TIP3    H159740   1.827   1.103   4.660  0.2372  1.5768  0.3134
12775TIP3    H259741   1.784   1.147   4.522  1.1398  1.8420  0.1093
12776TIP3   OH259742   4.855   2.018   3.724 -0.8867 -0.3079  0.2795
12776TIP3    H159743   4.812   1.985   3.803 -1.0077 -2.9581 -0.8061
12776TIP3    H259744   4.787   2.021   3.658 -0.4192  0.1847 -0.1935
12777TIP3   OH259745   0.677   6.424  16.060 -0.6427  0.3370  0.0355
12777TIP3    H159746   0.690   6.518  16.075 -0.8047  0.2123  1.0188
12777TIP3    H259747   0.604   6.419  15.999 -1.2958  0.8283  0.7732
12778TIP3   OH259748   5.853   0.201   5.388  0.3162 -0.2747  0.2663
12778TIP3    H159749   5.873   0.159   5.305  1.4891  0.3310  0.2307
12778TIP3    H259750   5.844   0.294   5.366  2.6805  0.2179  1.0872
12779TIP3   OH259751   2.024   0.323  13.952  0.1507 -0.3853 -0.1057
12779TIP3    H159752   2.085   0.395  13.939  1.5645 -1.4094  0.5797
12779TIP3    H259753   2.012   0.318  14.047  1.3875 -2.0389  0.0152
12780TIP3   OH259754   5.108   0.950  14.225 -0.0990  0.3501 -0.2979
12780TIP3    H159755   5.081   0.859  14.235 -0.8936  0.4931 -1.0365
12780TIP3    H259756   5.066   0.995  14.299 -0.6343  0.2986 -0.5609
12781TIP3   OH259757   1.374   6.287   1.861 -0.2166 -0.2639  0.1572
12781TIP3    H159758   1.468   6.306   1.856 -0.3096  0.0513 -0.5540
12781TIP3    H259759   1.369   6.192   1.849  0.0982 -0.4736  1.5655
12782TIP3   OH259760   5.399   4.568   4.354 -0.4737 -0.8401  0.6736
12782TIP3    H159761   5.454   4.522   4.291 -1.1194  0.2254 -0.7211
12782TIP3    H259762   5.460   4.612   4.412  0.1797 -0.2317 -0.4395
12783TIP3   OH259763   0.435   1.370  14.653 -0.0815  0.1558  0.2950
12783TIP3    H159764   0.385   1.344  14.576 -0.6540  1.2251  0.2795
12783TIP3    H259765   0.522   1.332  14.640 -0.0967  0.5177 -0.9895
12784TIP3   OH259766   4.092   3.386   6.068  0.4314  0.4212 -0.5390
12784TIP3    H159767   4.023   3.386   6.134  1.8404 -0.4128  0.9834
12784TIP3    H259768   4.049   3.421   5.989 -1.2469  1.5900  0.8201
12785TIP3   OH259769   5.069   2.903   3.409 -0.0606 -0.1513  0.0853
12785TIP3    H159770   5.007   2.882   3.479 -0.5726  0.6087 -0.1228
12785TIP3    H259771   5.119   2.822   3.396  0.0900 -0.2839  1.3683
12786TIP3   OH259772   6.784   4.193  11.584 -0.5398  0.1011 -0.2405
12786TIP3    H159773   6.705   4.198  11.529 -1.0291  1.2025  0.5215
12786TIP3    H259774   6.788   4.278  11.628  0.2497 -0.4876  0.8793
12787TIP3   OH259775   0.287   0.456  15.454 -0.4655  0.2513 -0.1852
12787TIP3    H159776   0.326   0.370  15.461  0.5845  0.5277 -2.0560
12787TIP3    H259777   0.336   0.510  15.516  0.5507  0.0486 -0.7907
12788TIP3   OH259778   5.181   5.282   2.700 -0.2477 -0.2651  0.6735
12788TIP3    H159779   5.223   5.257   2.782 -0.0565  0.8668  0.9365
12788TIP3    H259780   5.171   5.377   2.706 -0.6426 -0.2214 -0.4228
12789TIP3   OH259781   0.955   0.994  12.954 -0.1886 -0.3181  0.4342
12789TIP3    H159782   0.871   0.962  12.986 -0.4887  0.1988  0.1887
12789TIP3    H259783   0.987   1.052  13.024 -0.7550  0.6630 -0.0963
12790TIP3   OH259784   5.468   0.612   5.655 -0.2907 -0.2312 -0.6812
12790TIP3    H159785   5.508   0.581   5.736  1.1442  2.1545 -0.3800
12790TIP3    H259786   5.376   0.627   5.677 -0.1036 -0.4213  0.2543
12791TIP3   OH259787   2.424   4.638  16.655 -0.9895  0.3042 -0.3530
12791TIP3    H159788   2.410   4.686  16.736  1.5266  1.1733 -0.3443
12791TIP3    H259789   2.375   4.557  16.666 -1.4500  0.8042  1.6325
12792TIP3   OH259790   1.507   0.082   3.884  0.1427 -0.1482 -0.5299
12792TIP3    H159791   1.517   0.101   3.791 -0.5764  0.1934 -0.5378
12792TIP3    H259792   1.579   0.129   3.926 -0.6676  1.2899 -0.7137
12793TIP3   OH259793   2.693   4.819   3.963 -0.0982  0.1478  0.2868
12793TIP3    H159794   2.727   4.908   3.956  1.7428 -0.5184  0.3349
12793TIP3    H259795   2.619   4.816   3.902 -0.0635  1.6341  0.1514
12794TIP3   OH259796   5.967   0.396  15.621  0.1298  0.4345 -0.1551
12794TIP3    H159797   6.060   0.386  15.602 -0.1898 -0.5073 -1.3171
12794TIP3    H259798   5.956   0.359  15.709  0.7182 -0.1289 -0.3160
12795TIP3   OH259799   5.092   3.289   5.259  0.2189  0.0364  0.2827
12795TIP3    H159800   5.136   3.263   5.340  0.5181  1.5107  0.6276
12795TIP3    H259801   5.156   3.275   5.190  0.9526  1.3306  0.6698
12796TIP3   OH259802   2.932   5.113   0.212 -0.5540  0.6713 -0.1598
12796TIP3    H159803   2.909   5.028   0.252 -0.3199  1.0221  0.7526
12796TIP3    H259804   2.997   5.092   0.146 -0.7637  0.0902 -0.1858
12797TIP3   OH259805   2.163   6.318  13.296 -0.1118 -0.3332 -0.4116
12797TIP3    H159806   2.123   6.241  13.256 -1.7432  2.0070 -3.7872
12797TIP3    H259807   2.221   6.353  13.229  0.9485  1.1406  1.1763
12798TIP3   OH259808   6.525   0.612   2.501 -0.0028  0.4124  0.4161
12798TIP3    H159809   6.499   0.701   2.481 -1.5538 -0.1918 -0.4072
12798TIP3    H259810   6.615   0.606   2.471 -0.2002  1.4199 -0.4317
12799TIP3   OH259811   6.316   1.957   3.338 -0.2842 -0.0798 -0.6863
12799TIP3    H159812   6.345   1.950   3.247  0.4047 -0.4764 -0.4392
12799TIP3    H259813   6.255   1.883   3.349  0.0683 -0.3710 -0.6672
12800TIP3   OH259814   4.837   3.465  11.946  0.4176  0.1714  0.3008
12800TIP3    H159815   4.845   3.403  12.018  2.5424  0.0609  0.0509
12800TIP3    H259816   4.927   3.477  11.915 -0.2099  1.6702 -1.1042
12801TIP3   OH259817   3.844   6.359   5.808 -0.6340  0.5888 -0.1472
12801TIP3    H159818   3.852   6.276   5.762  1.4286 -1.0766  2.8521
12801TIP3    H259819   3.887   6.423   5.751  0.1510 -0.9506 -1.3350
12802TIP3   OH259820   2.053   3.613   0.977 -0.0282 -0.6361  0.2836
12802TIP3    H159821   2.117   3.545   0.996  0.8376 -0.1651 -0.7986
12802TIP3    H259822   2.025   3.595   0.888  0.8287  0.8484 -0.3354
12803TIP3   OH259823   3.853   2.261  14.829  0.1168 -0.4360 -0.0988
12803TIP3    H159824   3.911   2.286  14.757  0.3885 -1.0405 -0.0998
12803TIP3    H259825   3.779   2.218  14.786 -1.1618  1.7429 -0.2308
12804TIP3   OH259826   1.413   6.048  16.891 -0.2576 -0.9887 -0.1516
12804TIP3    H159827   1.425   5.996  16.970 -1.7333 -3.9109 -1.6959
12804TIP3    H259828   1.502   6.074  16.866  0.2410  0.0956  2.4116
12805TIP3   OH259829   4.037   0.033  14.697 -0.5706  0.1019  0.3990
12805TIP3    H159830   4.031   0.127  14.682  1.9359  0.4022  0.8369
12805TIP3    H259831   4.059  -0.004  14.611 -1.2240 -0.0811  0.2988
12806TIP3   OH259832   5.604   4.542  10.968  0.4647 -0.4579  0.4370
12806TIP3    H159833   5.536   4.544  10.899  0.8568  0.4760  0.0582
12806TIP3    H259834   5.661   4.469  10.943  1.9251  1.2317 -1.5768
12807TIP3   OH259835   4.837   3.422   2.795 -0.5784 -0.0224  1.1789
12807TIP3    H159836   4.742   3.421   2.808 -0.6566  1.1899  0.8687
12807TIP3    H259837   4.862   3.513   2.811  0.0234  0.5219 -2.0500
12808TIP3   OH259838   4.683   1.209  14.701 -0.6815 -0.4859  0.0101
12808TIP3    H159839   4.754   1.150  14.677  0.3347  0.6265  0.1881
12808TIP3    H259840   4.718   1.260  14.774 -1.4424  0.4971 -0.2952
12809TIP3   OH259841   1.126   6.110  13.606 -0.0198  0.1821  0.0807
12809TIP3    H159842   1.210   6.140  13.571  0.7725 -1.2354  0.6814
12809TIP3    H259843   1.140   6.103  13.700 -1.4540  1.8244  0.4688
12810TIP3   OH259844   1.982   3.937   6.840  0.3463 -0.4133 -0.2520
12810TIP3    H159845   2.025   3.870   6.787 -0.3483 -2.7929  1.9778
12810TIP3    H259846   2.013   3.920   6.929 -2.5979 -0.1421  0.9440
12811TIP3   OH259847   2.945   2.758  13.423  0.1419  0.0784 -0.4669
12811TIP3    H159848   3.021   2.807  13.455  0.9181 -0.9503 -0.6907
12811TIP3    H259849   2.908   2.718  13.502 -1.6064  2.4553  0.0099
12812TIP3   OH259850   3.769   5.562   2.686  0.2937  0.0977 -0.7026
12812TIP3    H159851   3.674   5.546   2.685  0.4467 -0.8876 -1.9117
12812TIP3    H259852   3.805   5.483   2.728  0.6649 -0.1485 -1.4788
12813TIP3   OH259853   4.246   4.028   1.647 -0.5288  0.5727 -0.0025
12813TIP3    H159854   4.203   3.965   1.590 -0.1011  0.6408 -0.4015
12813TIP3    H259855   4.298   3.975   1.707 -0.1816  0.5446 -0.3277
12814TIP3   OH259856   3.767   2.631   3.872 -0.5194 -0.2470  0.0265
12814TIP3    H159857   3.772   2.631   3.777 -1.4371  0.2149 -0.0301
12814TIP3    H259858   3.786   2.541   3.898 -1.6719 -0.7122 -0.6805
12815TIP3   OH259859   4.473   5.272   3.321  0.6137  0.1707  0.1097
12815TIP3    H159860   4.548   5.316   3.361  0.5734 -0.4043  0.8302
12815TIP3    H259861   4.478   5.182   3.352 -0.1696  0.0375 -0.1195
12816TIP3   OH259862   0.371   1.933  12.961  0.0804 -0.1162 -0.1403
12816TIP3    H159863   0.365   1.869  13.032 -2.9148  1.9684  1.7125
12816TIP3    H259864   0.418   2.007  12.999 -2.0070  1.2385  0.0099
12817TIP3   OH259865   4.668   2.627  16.955 -0.1104 -0.2213 -0.1468
12817TIP3    H159866   4.635   2.644  16.866  2.5444  2.2419 -0.8060
12817TIP3    H259867   4.690   2.533  16.955 -1.4199 -0.5670 -1.6020
12818TIP3   OH259868   2.194   4.163  12.464 -0.2780 -0.2243 -0.2393
12818TIP3    H159869   2.160   4.184  12.377 -2.7416  0.3874  0.7895
12818TIP3    H259870   2.152   4.226  12.522 -1.2929 -2.6361  1.8346
12819TIP3   OH259871   3.536   6.811   1.529  0.3395 -0.7298 -0.2396
12819TIP3    H159872   3.553   6.830   1.437  1.3652  1.5725  0.3658
12819TIP3    H259873   3.466   6.872   1.553 -0.2905 -1.6758  0.4178
12820TIP3   OH259874   1.614   3.534   4.081  0.0671  0.0935  0.8814
12820TIP3    H159875   1.672   3.489   4.143  1.4519  0.3868 -0.1534
12820TIP3    H259876   1.671   3.595   4.034 -0.9233 -0.1321 -0.6942
12821TIP3   OH259877   0.228   3.839  12.121  0.0123  0.6970  0.0681
12821TIP3    H159878   0.151   3.821  12.066 -0.0908  2.6194 -0.4934
12821TIP3    H259879   0.290   3.882  12.062  0.5442  1.3671  1.0787
12822TIP3   OH259880   0.702   3.187   0.415 -0.6868  0.0828  0.0546
12822TIP3    H159881   0.647   3.259   0.445 -1.2438 -1.3666  2.8329
12822TIP3    H259882   0.645   3.136   0.357 -1.2663  0.3118  0.4137
12823TIP3   OH259883   2.023   0.794   3.190 -0.2126 -0.5594 -0.2195
12823TIP3    H159884   2.006   0.813   3.282 -1.7350 -1.9379 -0.1804
12823TIP3    H259885   2.018   0.699   3.183  0.5358 -0.5223 -1.6082
12824TIP3   OH259886   5.814   1.554  16.293 -0.2798  0.2342  0.0868
12824TIP3    H159887   5.765   1.563  16.211 -0.2579 -2.0912 -0.2552
12824TIP3    H259888   5.776   1.621  16.351 -2.7608 -0.3894 -0.6960
12825TIP3   OH259889   4.628   0.252  11.411  0.2733 -0.3404  0.5581
12825TIP3    H159890   4.680   0.183  11.452 -1.4576 -0.8369  2.0009
12825TIP3    H259891   4.575   0.288  11.482  0.6759  2.1082 -0.2757
12826TIP3   OH259892   3.334   1.881   4.244  0.2180 -0.3872 -0.2527
12826TIP3    H159893   3.332   1.844   4.156 -1.6670 -0.6372 -0.1314
12826TIP3    H259894   3.333   1.805   4.302  1.1079 -0.2138  0.0168
12827TIP3   OH259895   3.556   0.873  12.512 -0.1807 -0.0443 -0.4043
12827TIP3    H159896   3.597   0.926  12.445 -0.6861  0.5911 -0.2153
12827TIP3    H259897   3.552   0.785  12.474  0.2658  0.1395 -0.8838
12828TIP3   OH259898   5.270   4.163   1.912  0.1452  0.1324 -0.3879
12828TIP3    H159899   5.328   4.089   1.896 -0.0180 -0.0930  0.0433
12828TIP3    H259900   5.251   4.159   2.006 -2.1804 -1.0109 -0.8355
12829TIP3   OH259901   1.195   6.073   0.643 -0.2015  0.2138  0.5935
12829TIP3    H159902   1.251   6.106   0.573  0.7306  0.8277  1.5966
12829TIP3    H259903   1.184   5.980   0.623  0.8567  0.1665  0.1533
12830TIP3   OH259904   2.556   1.838  12.626  0.0411 -0.2166  0.1357
12830TIP3    H159905   2.534   1.851  12.534  0.1364 -0.0012  0.1440
12830TIP3    H259906   2.485   1.880  12.674  0.2107  0.0420  0.1606
12831TIP3   OH259907   4.955   0.762   3.128 -0.3623  0.4645 -0.5116
12831TIP3    H159908   4.877   0.814   3.143 -1.0282 -0.4304 -0.7934
12831TIP3    H259909   4.959   0.751   3.033 -0.0224  0.3129 -0.4814
12832TIP3   OH259910   6.392   2.650   4.629  0.0663 -0.1648 -0.1014
12832TIP3    H159911   6.310   2.698   4.642  0.2178  0.1772 -0.4143
12832TIP3    H259912   6.441   2.702   4.566  1.2785  0.5260  1.3779
12833TIP3   OH259913   1.664   4.487   4.569  0.1754 -0.0357  0.2101
12833TIP3    H159914   1.591   4.475   4.508  0.9549  1.7446 -1.1378
12833TIP3    H259915   1.673   4.582   4.578  1.9093 -0.2291  0.8614
12834TIP3   OH259916   2.703   3.703  16.755 -0.0408  0.9872  0.3558
12834TIP3    H159917   2.796   3.681  16.751 -0.0809  0.9029 -0.2466
12834TIP3    H259918   2.692   3.776  16.694 -0.3376  1.1089  0.5510
12835TIP3   OH259919   2.401   2.249  10.608 -0.2596  0.3092 -0.1634
12835TIP3    H159920   2.426   2.210  10.691  0.4876 -0.8808 -0.9090
12835TIP3    H259921   2.440   2.191  10.542  0.0705  1.8009 -1.3358
12836TIP3   OH259922   5.577   6.703  14.748  0.7257 -0.4743 -0.4252
12836TIP3    H159923   5.581   6.629  14.688 -1.3438 -2.4219  1.6196
12836TIP3    H259924   5.637   6.680  14.819 -1.8860 -1.6977  1.5745
12837TIP3   OH259925   3.037   0.781  11.737 -0.6624  0.6283 -0.3264
12837TIP3    H159926   3.072   0.712  11.680  0.5387 -0.8752  2.0888
12837TIP3    H259927   2.947   0.793  11.707 -0.7238 -1.5855 -1.2217
12838TIP3   OH259928   1.150   6.419  13.461 -0.2258  0.2206 -0.3340
12838TIP3    H159929   1.216   6.427  13.531 -0.9656  2.6568  0.1863
12838TIP3    H259930   1.088   6.353  13.494  1.1291 -1.0400 -0.1865
12839TIP3   OH259931   4.333   5.038  15.716 -0.2255 -0.3110 -0.0203
12839TIP3    H159932   4.282   5.014  15.793 -0.6608 -0.5205 -0.3717
12839TIP3    H259933   4.405   4.975  15.714 -0.5735 -0.7056 -0.1477
12840TIP3   OH259934   2.710   3.759  13.703 -0.2411 -0.3878 -0.4897
12840TIP3    H159935   2.661   3.686  13.665 -1.0691  0.6892 -1.5667
12840TIP3    H259936   2.783   3.718  13.749 -2.4594 -2.0902  1.7234
12841TIP3   OH259937   1.257   4.607   3.866  0.1367  0.0894 -0.0712
12841TIP3    H159938   1.317   4.533   3.857 -0.6398 -0.3930 -1.5951
12841TIP3    H259939   1.300   4.665   3.929  2.0660 -0.3474 -0.9271
12842TIP3   OH259940   1.441   4.975   2.474 -0.3734 -0.1170 -0.2105
12842TIP3    H159941   1.526   4.985   2.517 -0.0053 -0.3231 -0.8782
12842TIP3    H259942   1.410   5.064   2.461 -0.1581 -0.0325 -0.1584
12843TIP3   OH259943   2.923   0.234   0.870 -0.3280  0.3429  0.4456
12843TIP3    H159944   2.868   0.207   0.944 -0.1346  0.9013  0.7965
12843TIP3    H259945   3.010   0.243   0.907 -0.0529 -0.2238 -0.0432
12844TIP3   OH259946   2.827   0.927  15.331  0.2720 -0.7883 -0.0784
12844TIP3    H159947   2.919   0.915  15.357  0.8695  2.4324 -0.3637
12844TIP3    H259948   2.829   0.922  15.235  0.7974  2.3343 -0.3166
12845TIP3   OH259949   4.100   1.296  12.645 -0.6574  0.3334 -0.2350
12845TIP3    H159950   4.005   1.299  12.655 -0.4577  0.6140  2.6383
12845TIP3    H259951   4.128   1.385  12.667  0.3470 -0.2980  1.2398
12846TIP3   OH259952   2.206   1.730  12.609  0.2506  0.1754 -0.3287
12846TIP3    H159953   2.165   1.781  12.679  0.9523  0.2008  0.0660
12846TIP3    H259954   2.278   1.684  12.651  0.9581  0.5321 -1.1226
12847TIP3   OH259955   0.567   4.144  12.179 -0.0289  0.3131 -0.0889
12847TIP3    H159956   0.488   4.156  12.126  0.3233  0.2729 -0.6258
12847TIP3    H259957   0.592   4.232  12.206  0.1363  0.3946 -0.4987
12848TIP3   OH259958   2.254   1.125   4.982 -0.5919 -0.7865  0.1529
12848TIP3    H159959   2.188   1.170   4.930  1.1509  0.2554 -1.2483
12848TIP3    H259960   2.269   1.042   4.937 -3.1112 -2.5329  2.2128
12849TIP3   OH259961   3.525   2.866   0.709 -0.1067 -0.2798 -0.0619
12849TIP3    H159962   3.477   2.851   0.791  2.5383 -1.1063  1.4455
12849TIP3    H259963   3.516   2.960   0.693 -1.9104 -0.3423  0.2989
12850TIP3   OH259964   3.538   1.380  14.726 -0.0813 -0.7235 -0.3747
12850TIP3    H159965   3.463   1.324  14.745  0.6867 -1.9276 -0.7535
12850TIP3    H259966   3.566   1.354  14.638  2.5567 -2.4695  0.8349
12851TIP3   OH259967   0.136   2.083   0.325  0.1232 -0.2148 -0.5568
12851TIP3    H159968   0.080   2.144   0.278 -0.9085 -0.8303 -0.1741
12851TIP3    H259969   0.086   2.061   0.404  1.0667 -0.5094 -0.0232
12852TIP3   OH259970   2.503   6.280  14.102  0.0982 -0.4247  0.0673
12852TIP3    H159971   2.471   6.364  14.136  0.3301 -0.0182 -0.7149
12852TIP3    H259972   2.504   6.223  14.179 -0.6227  0.1173  0.4915
12853TIP3   OH259973   2.569   1.026  11.789 -0.0188  0.0123 -0.3141
12853TIP3    H159974   2.636   1.035  11.856 -0.0706 -0.3475 -0.2114
12853TIP3    H259975   2.530   1.113  11.782 -0.6776 -0.1747  0.8231
12854TIP3   OH259976   2.555   0.751  11.966 -0.1447  0.2770  0.0406
12854TIP3    H159977   2.556   0.656  11.977 -2.7553 -0.2268 -2.7118
12854TIP3    H259978   2.640   0.771  11.927  0.5793 -0.8638  0.9815
12855TIP3   OH259979   6.043   4.267  11.597 -0.6139 -0.0804  0.1654
12855TIP3    H159980   6.129   4.248  11.557 -1.1870 -0.8317 -0.7505
12855TIP3    H259981   6.064   4.312  11.679  0.6193  1.8638 -1.1280
12856TIP3   OH259982   3.630   3.663   2.150 -0.3395  0.4932 -0.1110
12856TIP3    H159983   3.640   3.599   2.080 -0.9720  0.1496  0.1015
12856TIP3    H259984   3.719   3.696   2.166  0.2040 -1.1742  0.5514
12857TIP3   OH259985   3.501   2.059   0.608 -0.2075  0.4989 -0.8017
12857TIP3    H159986   3.583   2.039   0.564  0.6348 -0.0601  0.9674
12857TIP3    H259987   3.455   2.117   0.547  1.2912  0.4739 -2.0061
12858TIP3   OH259988   1.746   0.250  14.204 -0.2924 -0.3790  0.3907
12858TIP3    H159989   1.752   0.183  14.136  0.1409 -0.6973  0.7374
12858TIP3    H259990   1.836   0.268  14.229 -0.4663 -0.6855  1.2866
12859TIP3   OH259991   5.410   1.388  16.168 -0.4035  0.4308 -0.5847
12859TIP3    H159992   5.352   1.440  16.113 -0.6135  0.5091 -0.2911
12859TIP3    H259993   5.378   1.298  16.159 -0.5676  0.4729 -0.4281
12860TIP3   OH259994   5.810   1.974   2.895 -0.0955 -0.1914  0.5772
12860TIP3    H159995   5.850   1.920   2.828 -0.2989  1.8735 -1.3142
12860TIP3    H259996   5.716   1.960   2.884 -0.1016 -0.7080  1.2182
12861TIP3   OH259997   1.024   0.435   2.917  0.4560 -0.4861  0.9794
12861TIP3    H159998   1.039   0.427   3.011  0.1505  1.1103  1.1964
12861TIP3    H259999   1.074   0.512   2.890 -1.2510  0.4749  0.3160
12862TIP3   OH260000   1.764   2.662   4.966  0.5368  0.7931 -0.5316
12862TIP3    H160001   1.809   2.583   4.996  0.1700  0.7312 -0.1520
12862TIP3    H260002   1.726   2.700   5.044 -1.5800 -0.0951 -1.0696
12863TIP3   OH260003   1.898   2.251   0.993 -0.2723  0.2089  0.2492
12863TIP3    H160004   1.853   2.273   0.911  0.8442  1.4322 -0.0787
12863TIP3    H260005   1.946   2.171   0.972 -0.2493  0.3342 -0.2044
12864TIP3   OH260006   5.937   1.569  13.110  0.9395  0.1814 -0.0849
12864TIP3    H160007   6.024   1.610  13.115  1.9011 -1.5443 -1.3804
12864TIP3    H260008   5.927   1.524  13.194  0.6016  1.6227  0.6727
12865TIP3   OH260009   5.095   5.786   2.407 -0.0849  0.6336  0.2914
12865TIP3    H160010   5.105   5.711   2.349  1.6534  0.9864  0.0998
12865TIP3    H260011   5.168   5.779   2.468 -0.5530  1.5586  0.9772
12866TIP3   OH260012   6.655   5.108   6.135  0.3419  0.6353  0.1633
12866TIP3    H160013   6.595   5.119   6.062  0.6666 -0.7067 -0.3424
12866TIP3    H260014   6.705   5.029   6.114  2.1440  1.5816  0.6757
12867TIP3   OH260015   4.306   6.699   5.064 -0.3575 -0.2318  0.5658
12867TIP3    H160016   4.293   6.625   5.124 -3.0698  0.4685  0.9335
12867TIP3    H260017   4.259   6.772   5.104  0.6174  1.1977 -0.7683
12868TIP3   OH260018   2.124   6.650   4.920 -0.4489 -0.0666  0.3846
12868TIP3    H160019   2.142   6.573   4.866 -2.0659 -1.1383  1.2923
12868TIP3    H260020   2.190   6.714   4.893  0.8566 -1.7060 -0.4972
12869TIP3   OH260021   6.699   3.170   4.471  0.2156 -0.3879 -0.0853
12869TIP3    H160022   6.661   3.240   4.419 -0.9040 -3.6034 -4.1606
12869TIP3    H260023   6.792   3.171   4.449  0.4985  0.6720  1.0800
12870TIP3   OH260024   5.889   6.655   4.853  0.3485 -0.2184  0.1786
12870TIP3    H160025   5.960   6.719   4.845  1.0228 -1.1761 -3.5447
12870TIP3    H260026   5.926   6.574   4.818 -1.9694 -1.2858  0.0132
12871TIP3   OH260027   0.741   3.682   3.134  0.1317 -0.0148 -0.2916
12871TIP3    H160028   0.777   3.623   3.200  1.7112 -0.4984 -1.5109
12871TIP3    H260029   0.687   3.626   3.078 -0.2500  0.1589 -0.0983
12872TIP3   OH260030   4.403   2.756   1.360  0.3681 -0.0356  0.0755
12872TIP3    H160031   4.389   2.790   1.448  0.7304  1.6039 -0.4638
12872TIP3    H260032   4.422   2.834   1.307 -0.2917 -0.9311 -1.5439
12873TIP3   OH260033   6.568   0.497   5.951 -0.4005 -0.2820 -0.0930
12873TIP3    H160034   6.647   0.518   5.902 -0.3228  0.1195  0.2088
12873TIP3    H260035   6.497   0.504   5.886 -0.3092  0.3301 -0.1269
12874TIP3   OH260036   5.448   0.810  11.537 -0.4910  0.6289 -0.5843
12874TIP3    H160037   5.492   0.731  11.571 -1.9107 -0.9099 -2.1430
12874TIP3    H260038   5.439   0.793  11.443  0.3446  3.2792 -1.2083
12875TIP3   OH260039   6.503   6.371   3.734 -0.2952 -0.0551  0.0633
12875TIP3    H160040   6.471   6.306   3.671 -1.7368  0.0587  0.6414
12875TIP3    H260041   6.485   6.455   3.692 -0.7100  0.0101  0.3705
12876TIP3   OH260042   5.186   6.331   2.789 -0.6747  0.1018  0.6626
12876TIP3    H160043   5.114   6.290   2.836 -1.5014  1.5448  0.7418
12876TIP3    H260044   5.146   6.364   2.709 -0.2054  1.2404  0.8756
12877TIP3   OH260045   4.099   6.318  10.219 -0.2600 -0.0064  0.0860
12877TIP3    H160046   4.111   6.316  10.314 -0.1495 -0.2495  0.0678
12877TIP3    H260047   4.005   6.312  10.206 -0.1775 -1.8859  0.1358
12878TIP3   OH260048   5.961   1.925   5.308  0.2688  0.3003 -0.1300
12878TIP3    H160049   5.959   1.866   5.233 -0.7382 -0.2876  0.3224
12878TIP3    H260050   5.968   1.866   5.384 -2.3552  0.5747  0.4439
12879TIP3   OH260051   1.337   6.394   4.264  0.8597 -0.3002 -0.9466
12879TIP3    H160052   1.253   6.413   4.306  1.3167 -0.5218  0.1020
12879TIP3    H260053   1.314   6.369   4.174 -0.0343  1.5164 -1.2772
12880TIP3   OH260054   0.596   0.127   3.926  0.1308 -0.6569  0.2193
12880TIP3    H160055   0.547   0.094   3.850 -1.8128  1.0244  0.6484
12880TIP3    H260056   0.552   0.090   4.002  1.2640 -1.3035  0.5800
12881TIP3   OH260057   6.703   3.679  13.104  0.2968 -0.9567 -0.1317
12881TIP3    H160058   6.649   3.609  13.066 -2.5700 -0.9611  3.4096
12881TIP3    H260059   6.763   3.633  13.162  1.2080 -0.6518 -0.8096
12882TIP3   OH260060   5.095   5.292   4.533  0.0782  0.5156  0.1936
12882TIP3    H160061   5.084   5.209   4.487 -0.2248  0.7484 -0.1644
12882TIP3    H260062   5.129   5.268   4.619  3.4353  0.1930 -1.0494
12883TIP3   OH260063   2.228   4.289   5.155  0.1150 -0.0475  0.2708
12883TIP3    H160064   2.247   4.302   5.063 -1.9012 -0.2537 -0.2235
12883TIP3    H260065   2.267   4.366   5.198 -0.2570  0.8598 -0.9525
12884TIP3   OH260066   1.535   0.665  16.218  0.5103 -0.0489 -0.3343
12884TIP3    H160067   1.534   0.617  16.136 -1.1264 -1.5090  0.4630
12884TIP3    H260068   1.550   0.756  16.193  0.5680 -0.5304 -2.1857
12885TIP3   OH260069   6.359   6.062   3.663 -0.9395  0.1179 -0.2195
12885TIP3    H160070   6.334   5.974   3.691 -1.0732  0.0033 -0.6973
12885TIP3    H260071   6.285   6.117   3.687 -0.7044  0.1648  0.4108
12886TIP3   OH260072   3.375   1.353  14.287  0.2844  0.2521 -0.5761
12886TIP3    H160073   3.377   1.306  14.204 -0.1003  1.6592 -1.4301
12886TIP3    H260074   3.296   1.407  14.281  1.1127  1.5830 -0.0137
12887TIP3   OH260075   6.391   0.842   5.085  0.3999 -0.0114 -0.2516
12887TIP3    H160076   6.342   0.923   5.099 -0.0574 -0.2407 -0.5344
12887TIP3    H260077   6.349   0.778   5.143 -0.0699 -0.3838 -0.9960
12888TIP3   OH260078   5.366   3.509   0.750  0.0549  0.1524 -0.3640
12888TIP3    H160079   5.313   3.430   0.747  0.1206  0.0283  1.1222
12888TIP3    H260080   5.456   3.479   0.739  0.2969 -0.2743  2.3051
12889TIP3   OH260081   0.531   4.637   1.713  0.2201  0.5747  0.8202
12889TIP3    H160082   0.473   4.692   1.662 -0.7588 -1.4351 -0.3658
12889TIP3    H260083   0.549   4.687   1.792 -1.6587  2.0233  0.3919
12890TIP3   OH260084   3.717   0.249   4.628  0.0828 -0.0896  0.4020
12890TIP3    H160085   3.770   0.304   4.569 -1.3417  0.2206 -0.6271
12890TIP3    H260086   3.735   0.284   4.715  0.0246  1.3390 -0.1339
12891TIP3   OH260087   6.074   0.047   6.550 -0.2260 -0.1272  0.2848
12891TIP3    H160088   6.109  -0.029   6.504 -1.0327  0.2866 -1.0808
12891TIP3    H260089   6.151   0.093   6.582  0.2932 -1.1875  0.6099
12892TIP3   OH260090   5.324   1.833  14.328 -0.7841  0.2659  0.2231
12892TIP3    H160091   5.321   1.927  14.308 -0.5815 -0.1232 -1.9249
12892TIP3    H260092   5.346   1.792  14.244  0.3946 -1.6228  1.3796
12893TIP3   OH260093   4.919   2.924  10.792  0.4415  0.5630  0.0173
12893TIP3    H160094   4.956   2.989  10.732 -1.1083  0.9978 -0.5195
12893TIP3    H260095   4.868   2.866  10.735  0.0534  0.1773  0.7509
12894TIP3   OH260096   3.398   5.412  13.550  0.5005 -0.4487 -0.0413
12894TIP3    H160097   3.431   5.398  13.461  1.3919 -0.7913  0.3303
12894TIP3    H260098   3.332   5.481  13.540 -0.4860 -1.4955 -1.1810
12895TIP3   OH260099   3.235   5.493  16.227 -0.3742  0.4828  0.1859
12895TIP3    H160100   3.306   5.536  16.274  0.4064  0.6210 -1.0846
12895TIP3    H260101   3.183   5.450  16.295  0.2844  1.3067  1.2314
12896TIP3   OH260102   4.418   3.362  14.382  0.4544  0.3607 -0.0686
12896TIP3    H160103   4.329   3.396  14.373  0.4448  0.2447 -0.4400
12896TIP3    H260104   4.427   3.300  14.309  0.2844 -0.8473  0.9147
12897TIP3   OH260105   1.047   6.539  14.823 -0.1096  0.5281  0.9924
12897TIP3    H160106   1.052   6.630  14.852  0.4124  0.0698  2.4263
12897TIP3    H260107   0.957   6.512  14.842 -1.6427  1.8720 -3.2163
12898TIP3   OH260108   1.292   4.805   2.677 -0.1339  0.4225 -0.3324
12898TIP3    H160109   1.364   4.785   2.736  0.6635  0.8227 -1.1470
12898TIP3    H260110   1.319   4.884   2.631 -1.3083  0.8593 -0.3130
12899TIP3   OH260111   6.650   4.280   0.748  0.1936  0.4926 -0.2596
12899TIP3    H160112   6.617   4.272   0.837  1.0491  0.3144  0.0511
12899TIP3    H260113   6.582   4.329   0.701 -0.2539  0.6002  0.4907
12900TIP3   OH260114   5.763   4.049   2.796  0.5187  0.3876  0.5229
12900TIP3    H160115   5.746   4.133   2.839  0.9835  0.7152  0.0704
12900TIP3    H260116   5.789   4.072   2.707 -0.4795 -0.2976  0.0407
12901TIP3   OH260117   2.066   5.978  11.648  0.0396 -0.4736 -0.2092
12901TIP3    H160118   2.155   6.006  11.671  0.4012 -0.8647 -1.0878
12901TIP3    H260119   2.077   5.889  11.613 -0.5113 -0.0000 -1.6348
12902TIP3   OH260120   2.271   4.512  14.960 -0.0755  0.5137 -0.1861
12902TIP3    H160121   2.200   4.572  14.940 -0.0953  0.4565 -0.2875
12902TIP3    H260122   2.232   4.425  14.954 -0.3118  0.5188  0.9775
12903TIP3   OH260123   0.630   3.241  15.196  0.4399 -0.3896  0.3069
12903TIP3    H160124   0.672   3.327  15.198  1.9416 -0.9779 -1.8092
12903TIP3    H260125   0.581   3.236  15.278 -1.2853  3.2186 -0.2711
12904TIP3   OH260126   2.384   5.966   2.316  0.3880  0.2352 -0.2185
12904TIP3    H160127   2.374   5.985   2.222 -0.1977  1.1569  0.0272
12904TIP3    H260128   2.339   6.037   2.360  0.6256 -0.2200  0.7764
12905TIP3   OH260129   1.416   4.232   1.611 -0.3387  1.4315 -0.0411
12905TIP3    H160130   1.359   4.193   1.677  2.2300  1.6771  2.4872
12905TIP3    H260131   1.449   4.312   1.652  2.1811  1.0551 -1.1523
12906TIP3   OH260132   0.674   4.218  13.033  0.0582 -0.7542 -0.0839
12906TIP3    H160133   0.763   4.181  13.029  0.8021  0.9660 -0.4237
12906TIP3    H260134   0.687   4.307  13.067 -1.7040 -0.9293  1.1628
12907TIP3   OH260135   3.398   0.922   4.619  0.7176  0.2613  0.3991
12907TIP3    H160136   3.406   0.981   4.545 -0.2054  0.1462  0.1958
12907TIP3    H260137   3.456   0.849   4.599  0.8762  0.4863  0.0408
12908TIP3   OH260138   0.051   4.573   1.645 -0.2495 -0.2460 -0.8108
12908TIP3    H160139   0.100   4.613   1.717  0.9570  0.2044 -1.8509
12908TIP3    H260140  -0.040   4.572   1.677  0.3056 -0.5004  0.8910
12909TIP3   OH260141   0.024   4.087   6.079  0.1244 -0.4287 -0.5038
12909TIP3    H160142  -0.025   4.027   6.024  0.6350 -1.5928  0.2797
12909TIP3    H260143   0.110   4.092   6.037 -0.0590  0.1321 -0.8246
12910TIP3   OH260144   1.925   6.016   5.294 -0.0092 -0.3012  0.4986
12910TIP3    H160145   1.927   5.933   5.342  1.8328 -0.7204 -0.2217
12910TIP3    H260146   1.925   6.083   5.363 -0.6313 -0.8787  1.0788
12911TIP3   OH260147   4.560   6.255   4.806 -0.4301 -0.3667  0.3210
12911TIP3    H160148   4.610   6.224   4.730  0.5131 -1.6407  1.3895
12911TIP3    H260149   4.482   6.200   4.808 -0.6095 -0.1173  0.0871
12912TIP3   OH260150   6.183   5.237   2.379  0.4531  0.3499  0.1256
12912TIP3    H160151   6.157   5.145   2.385 -0.4049  0.6054  0.5983
12912TIP3    H260152   6.136   5.269   2.302  0.5016  0.4637  0.1442
12913TIP3   OH260153   2.369   3.023   5.598  0.3129  0.8570  0.0737
12913TIP3    H160154   2.297   2.969   5.566  1.2540 -0.3764 -0.0290
12913TIP3    H260155   2.329   3.108   5.618 -0.7542  0.9307 -2.1327
12914TIP3   OH260156   3.029   1.865  14.212  0.2799 -0.1760 -0.4642
12914TIP3    H160157   2.970   1.791  14.201  0.6692 -0.6752  0.6388
12914TIP3    H260158   3.044   1.870  14.307  1.0708  0.6688 -0.6192
12915TIP3   OH260159   4.712   4.631  12.060  0.1140 -0.1461 -0.1455
12915TIP3    H160160   4.709   4.543  12.098 -1.8763 -0.0522  0.0105
12915TIP3    H260161   4.688   4.689  12.132  0.4225  0.4406 -0.5071
12916TIP3   OH260162   3.283   5.117  16.104  0.4313  0.2480 -0.2412
12916TIP3    H160163   3.332   5.192  16.139 -1.0559 -0.5079  4.0101
12916TIP3    H260164   3.343   5.043  16.114  1.4681  0.5056 -3.3741
12917TIP3   OH260165   1.183   3.079  16.944 -1.0041  0.4724  0.0173
12917TIP3    H160166   1.127   3.063  17.020 -0.8180  0.4674  0.1566
12917TIP3    H260167   1.258   3.126  16.980 -1.0958  0.8065 -0.2307
12918TIP3   OH260168   4.504   4.867  12.665 -0.5531 -0.2375 -0.4186
12918TIP3    H160169   4.482   4.820  12.584  2.3430  1.4848 -2.4131
12918TIP3    H260170   4.451   4.947  12.662 -0.1170  0.0409 -0.8940
12919TIP3   OH260171   0.940   0.069  14.633  0.0980 -0.4317  0.0254
12919TIP3    H160172   0.863   0.076  14.690 -0.8935  2.3079 -1.4517
12919TIP3    H260173   1.012   0.050  14.693 -1.1349  0.7003  1.9979
12920TIP3   OH260174   2.316   6.791  15.409  0.2124 -0.1117  0.0486
12920TIP3    H160175   2.230   6.782  15.370 -0.7113  4.9016  0.2121
12920TIP3    H260176   2.299   6.819  15.499  2.1222 -1.5438  0.9332
12921TIP3   OH260177   4.091   2.407  15.673 -0.2036  0.2746  0.3932
12921TIP3    H160178   4.006   2.436  15.640  0.3052  2.9662  1.2369
12921TIP3    H260179   4.088   2.311  15.666 -3.6905  0.1874  1.3803
12922TIP3   OH260180   1.382   1.395   2.212  0.2872 -0.1727  0.3519
12922TIP3    H160181   1.346   1.336   2.146 -0.6036 -0.2570  0.8984
12922TIP3    H260182   1.321   1.469   2.215 -0.9072 -1.1439  2.5476
12923TIP3   OH260183   0.381   0.841   3.939 -0.4968  0.4298  0.1427
12923TIP3    H160184   0.445   0.820   4.007 -0.2476  1.8982  0.3892
12923TIP3    H260185   0.310   0.886   3.986 -1.2324 -0.2500 -0.2879
12924TIP3   OH260186   3.716   1.953  14.084  0.5091 -0.1830  0.2498
12924TIP3    H160187   3.758   1.878  14.042  0.3006  0.5411 -1.3235
12924TIP3    H260188   3.658   1.988  14.017  0.6579  1.4289  0.9259
12925TIP3   OH260189   4.837   2.080  11.482  0.1072  0.2434 -0.0272
12925TIP3    H160190   4.856   2.102  11.392  0.5543  0.4670  0.1210
12925TIP3    H260191   4.905   2.124  11.533 -0.4339  0.5328  0.4585
12926TIP3   OH260192   5.756   6.317   0.398  0.0157 -0.2171 -1.1161
12926TIP3    H160193   5.788   6.272   0.476  1.5799  0.3900 -1.3829
12926TIP3    H260194   5.737   6.246   0.336 -1.7419 -0.7396 -0.0571
12927TIP3   OH260195   2.543   2.481   2.846  0.0205  0.1392 -0.3511
12927TIP3    H160196   2.463   2.479   2.793 -0.3898 -0.2571  0.2716
12927TIP3    H260197   2.556   2.574   2.864 -0.9182  0.1361  0.4427
12928TIP3   OH260198   4.369   4.845   0.457  0.0842 -0.0009  0.1808
12928TIP3    H160199   4.435   4.915   0.465  0.8630 -0.6790 -0.1920
12928TIP3    H260200   4.328   4.860   0.372 -1.5322  1.4931  1.1516
12929TIP3   OH260201   2.160   1.865  12.214  0.3552 -0.0002  0.4985
12929TIP3    H160202   2.073   1.837  12.185  0.5667  0.4479 -0.6294
12929TIP3    H260203   2.146   1.905  12.300 -0.4585 -0.4653  0.5884
12930TIP3   OH260204   0.534   4.156  13.655  0.0517  0.1284 -0.5235
12930TIP3    H160205   0.616   4.142  13.703  0.7028  0.7965 -1.3939
12930TIP3    H260206   0.487   4.221  13.707  0.7132  0.7805 -0.7093
12931TIP3   OH260207   5.468   4.671  11.316  0.5881  0.1909  0.0869
12931TIP3    H160208   5.457   4.751  11.369  1.1644  0.1936  0.2132
12931TIP3    H260209   5.472   4.600  11.380 -0.3980  0.0018 -0.0517
12932TIP3   OH260210   4.213   4.121  13.890 -0.2871  0.0203 -0.3840
12932TIP3    H160211   4.184   4.154  13.805  0.4071  0.4795 -0.4496
12932TIP3    H260212   4.214   4.026  13.880  0.0895  0.0853 -0.9914
12933TIP3   OH260213   0.020   1.904   5.955 -0.1760  0.1179 -0.2050
12933TIP3    H160214  -0.033   1.902   6.035  2.0831  0.4928  1.3827
12933TIP3    H260215   0.057   1.992   5.952 -0.1574  0.0912 -1.6617
12934TIP3   OH260216   1.859   3.440  15.853  0.0696  0.3653 -0.0597
12934TIP3    H160217   1.845   3.523  15.897  1.2025 -0.7395  2.5757
12934TIP3    H260218   1.880   3.378  15.923 -2.0677 -2.5025 -1.7433
12935TIP3   OH260219   6.656   1.735  10.628 -0.4262 -0.1211  0.6260
12935TIP3    H160220   6.679   1.758  10.538  1.8217  1.8635  1.6073
12935TIP3    H260221   6.657   1.639  10.629 -1.3954 -0.2129 -1.6289
12936TIP3   OH260222   1.564   5.610   3.955 -0.8233 -0.1583  0.0718
12936TIP3    H160223   1.600   5.624   4.043  0.4727 -2.3241 -0.0348
12936TIP3    H260224   1.492   5.548   3.969  1.2830 -2.9850 -0.5583
12937TIP3   OH260225   0.284   4.350  12.984  0.2060 -0.5453 -0.2110
12937TIP3    H160226   0.291   4.362  13.079 -0.9961 -0.1276 -0.1603
12937TIP3    H260227   0.341   4.275  12.965 -0.8585 -1.7328  1.0964
12938TIP3   OH260228   4.662   6.667  11.147 -0.6586 -0.0119 -0.4477
12938TIP3    H160229   4.611   6.726  11.203  0.6475  0.6053  0.1233
12938TIP3    H260230   4.619   6.673  11.061 -2.6211 -0.8862  0.4154
12939TIP3   OH260231   3.572   5.750  13.681  0.4205 -0.2340 -0.2744
12939TIP3    H160232   3.654   5.761  13.634  0.4617  1.4239  0.1270
12939TIP3    H260233   3.551   5.837  13.715  0.2341 -1.2502  2.5167
12940TIP3   OH260234   0.436   0.406  14.207  0.0835  0.7846 -0.3379
12940TIP3    H160235   0.411   0.436  14.119  2.3786  0.9880 -0.9886
12940TIP3    H260236   0.495   0.332  14.190 -0.1762  0.2236  1.0894
12941TIP3   OH260237   3.132   0.430   5.987 -0.1025  0.4183 -0.4173
12941TIP3    H160238   3.043   0.430   5.952 -0.6838  1.5367  0.9676
12941TIP3    H260239   3.144   0.343   6.024 -0.4292  0.0998 -1.0522
12942TIP3   OH260240   2.654   2.459  14.901 -0.2669  0.1628  0.6603
12942TIP3    H160241   2.655   2.414  14.816 -1.2140 -2.5161  1.9310
12942TIP3    H260242   2.741   2.444  14.938 -0.2013  0.3795  0.5901
12943TIP3   OH260243   6.772   2.746  15.384 -0.2084  0.5295  0.1870
12943TIP3    H160244   6.801   2.814  15.445  0.7007  0.4899 -0.1865
12943TIP3    H260245   6.692   2.711  15.423  0.8111 -0.0995  1.8152
12944TIP3   OH260246   1.305   0.539  15.331 -0.3561 -0.2966  0.9304
12944TIP3    H160247   1.376   0.528  15.394  1.0767  0.3647 -0.5054
12944TIP3    H260248   1.336   0.607  15.272 -1.1852 -1.6178 -1.1131
12945TIP3   OH260249   4.797   6.575   5.195  0.0385 -0.2067  0.2041
12945TIP3    H160250   4.762   6.571   5.284  0.3842 -0.2373  0.3421
12945TIP3    H260251   4.749   6.508   5.147  0.7640 -1.1029  0.6957
12946TIP3   OH260252   2.900   1.628  15.966 -0.1993 -0.2522  0.6398
12946TIP3    H160253   2.910   1.580  15.883 -3.5196 -1.9346  1.0450
12946TIP3    H260254   2.872   1.562  16.029 -3.4579  1.8409  1.6496
12947TIP3   OH260255   2.517   0.234   0.170 -0.5165 -0.4087 -0.2497
12947TIP3    H160256   2.588   0.173   0.190 -0.5395  0.0804  1.4195
12947TIP3    H260257   2.464   0.188   0.104  0.7503 -1.2101 -0.7473
12948TIP3   OH260258   2.186   1.356   3.783  0.2438 -0.1513 -0.7741
12948TIP3    H160259   2.143   1.331   3.702  0.3523  0.0507 -0.8931
12948TIP3    H260260   2.273   1.385   3.757 -0.4258  1.9711 -0.8501
12949TIP3   OH260261   0.002   3.169   6.151  0.0983  0.7526  0.4263
12949TIP3    H160262   0.000   3.111   6.227  2.9258 -0.7288 -0.5162
12949TIP3    H260263  -0.069   3.137   6.095 -0.0028 -0.1384  1.0411
12950TIP3   OH260264   6.378   0.869   5.407 -0.1165 -0.1425 -0.3936
12950TIP3    H160265   6.383   0.879   5.312 -1.7061  1.6079 -0.3564
12950TIP3    H260266   6.409   0.779   5.424 -0.1996 -0.6345 -2.5849
12951TIP3   OH260267   4.105   5.525   2.307 -1.0806 -0.8011  0.0610
12951TIP3    H160268   4.010   5.516   2.319 -1.1750 -0.8101 -0.6533
12951TIP3    H260269   4.133   5.576   2.382 -1.6565 -0.7843  0.2743
12952TIP3   OH260270   2.104   6.528  16.571 -0.5568  0.1739 -0.4860
12952TIP3    H160271   2.069   6.599  16.518 -2.5603 -0.9871 -0.8167
12952TIP3    H260272   2.099   6.560  16.661 -2.2986  0.1550 -0.5487
12953TIP3   OH260273   5.327   2.986  16.266 -0.0375  0.3757  0.2160
12953TIP3    H160274   5.361   3.071  16.295  0.0985  0.4321 -0.1034
12953TIP3    H260275   5.400   2.926  16.278  0.4493  0.6457 -1.1923
12954TIP3   OH260276   0.263   2.911  11.844 -0.1755  0.3467 -0.3432
12954TIP3    H160277   0.274   3.005  11.837 -0.8050  0.4120 -0.4938
12954TIP3    H260278   0.168   2.897  11.844 -0.1198 -0.1903  0.9710
12955TIP3   OH260279   1.389   1.716   1.095 -0.5666 -0.3157  0.3580
12955TIP3    H160280   1.438   1.774   1.037 -0.2875 -1.0040 -0.0990
12955TIP3    H260281   1.322   1.773   1.134  1.3837  0.9774  2.0299
12956TIP3   OH260282   3.445   0.919  16.567 -0.0277  0.1835  0.0586
12956TIP3    H160283   3.421   0.968  16.646  2.8742  2.3392 -0.2394
12956TIP3    H260284   3.460   0.830  16.598  2.8930  1.3284  2.4648
12957TIP3   OH260285   5.602   4.674  13.487  0.3753  0.0147  0.6395
12957TIP3    H160286   5.599   4.651  13.394 -0.1054 -0.4751  0.7705
12957TIP3    H260287   5.513   4.659  13.518  0.0806  1.8617  0.7943
12958TIP3   OH260288   0.811   2.091   1.656 -0.0653 -0.4755 -0.0337
12958TIP3    H160289   0.760   2.119   1.732  0.1948  0.1244 -0.0776
12958TIP3    H260290   0.859   2.169   1.629  1.8020 -1.3152  0.7181
12959TIP3   OH260291   1.752   1.897  15.187  0.0490 -0.1042 -0.1932
12959TIP3    H160292   1.709   1.841  15.122 -0.3995  2.6529 -2.4375
12959TIP3    H260293   1.846   1.890  15.166  0.1710 -1.1131  0.5565
12960TIP3   OH260294   3.469   0.417   4.716  0.1124  0.2777 -0.8334
12960TIP3    H160295   3.521   0.477   4.769 -0.1391 -1.2970  1.2951
12960TIP3    H260296   3.514   0.414   4.632  1.1300  2.0344 -0.4017
12961TIP3   OH260297   3.509   2.614  16.386 -0.3039 -0.3450 -0.1762
12961TIP3    H160298   3.431   2.604  16.332 -0.4463  0.4213 -0.1175
12961TIP3    H260299   3.582   2.604  16.325 -0.4513 -0.6667 -0.2999
12962TIP3   OH260300   0.835   5.566   1.346 -0.4195 -0.3723  0.2970
12962TIP3    H160301   0.890   5.520   1.283 -1.6757 -0.8885 -0.4623
12962TIP3    H260302   0.809   5.647   1.301 -0.0542  0.0036  0.7575
12963TIP3   OH260303   6.734   4.701  11.505  0.3761 -0.0406 -0.7536
12963TIP3    H160304   6.820   4.738  11.523  1.7135 -2.8031 -0.9474
12963TIP3    H260305   6.747   4.648  11.426 -1.7960  0.3607 -1.4445
12964TIP3   OH260306   0.680   4.180   4.922  0.0183  0.4402  0.4309
12964TIP3    H160307   0.671   4.157   4.830  1.6939  2.7510 -0.3966
12964TIP3    H260308   0.730   4.108   4.960  1.4423  0.5925 -1.0551
12965TIP3   OH260309   3.436   5.751  12.120 -0.5852 -0.1870  0.0918
12965TIP3    H160310   3.354   5.799  12.113 -0.2887  0.4538  0.8714
12965TIP3    H260311   3.423   5.673  12.065 -1.5696  0.0920 -0.0878
12966TIP3   OH260312   1.372   2.028   1.326 -0.3554  0.0897 -0.1982
12966TIP3    H160313   1.447   1.969   1.324 -2.3902 -2.7044 -0.7026
12966TIP3    H260314   1.346   2.030   1.418  0.0620  0.7187 -0.0887
12967TIP3   OH260315   6.717   4.711   3.521  0.1975 -0.1325 -0.0597
12967TIP3    H160316   6.807   4.711   3.554  0.3653  0.3983 -0.4931
12967TIP3    H260317   6.680   4.793   3.553 -0.2115 -0.4690  0.3236
12968TIP3   OH260318   2.525   5.908  12.274 -0.1942  0.2866  0.9309
12968TIP3    H160319   2.577   5.962  12.334  0.1851  1.1035 -0.1169
12968TIP3    H260320   2.467   5.970  12.230  1.0296  0.0499 -1.1215
12969TIP3   OH260321   3.563   0.744  13.886  0.1017  0.3219 -0.3433
12969TIP3    H160322   3.612   0.770  13.808 -1.8172 -0.3343 -1.8426
12969TIP3    H260323   3.585   0.811  13.951  4.4319 -0.9329 -0.1966
12970TIP3   OH260324   6.625   0.452   2.257  0.0797  0.2698  0.4987
12970TIP3    H160325   6.609   0.540   2.222 -0.2994  0.3959  0.9855
12970TIP3    H260326   6.598   0.457   2.348 -0.6920 -0.5760  0.3229
12971TIP3   OH260327   4.445   0.016   0.609 -0.0865 -0.6416 -0.2183
12971TIP3    H160328   4.422  -0.075   0.594 -1.1416 -0.5108  0.4811
12971TIP3    H260329   4.510   0.013   0.679 -1.4798 -0.7903  1.1278
12972TIP3   OH260330   3.486   0.821   4.127  0.2589 -0.5786  0.4478
12972TIP3    H160331   3.507   0.913   4.139  0.5468 -0.5860  0.0473
12972TIP3    H260332   3.555   0.788   4.069 -0.8973 -0.5977 -0.9731
12973TIP3   OH260333   5.444   2.108  15.722  0.0980  0.1524  0.0508
12973TIP3    H160334   5.388   2.113  15.799 -1.7299 -1.0559 -1.1412
12973TIP3    H260335   5.449   2.198  15.690 -0.2570  0.4339  0.7629
12974TIP3   OH260336   5.409   6.555  13.858 -0.3051 -0.3810 -0.0201
12974TIP3    H160337   5.354   6.569  13.780  0.3592 -0.8338 -0.5828
12974TIP3    H260338   5.347   6.534  13.927 -1.1086  2.2201  0.1396
12975TIP3   OH260339   6.128   3.427  12.211 -0.8498 -0.2152  0.2214
12975TIP3    H160340   6.135   3.442  12.117 -1.8732 -0.9649  0.0102
12975TIP3    H260341   6.194   3.485  12.250 -0.5027  0.1892 -0.9408
12976TIP3   OH260342   5.804   4.184  13.939  0.3279  0.0646 -0.1354
12976TIP3    H160343   5.755   4.102  13.938  2.5223 -1.3138 -0.0895
12976TIP3    H260344   5.747   4.246  13.894 -1.0959 -1.6493 -0.8025
12977TIP3   OH260345   5.225   6.640   4.183  0.0095 -0.0501  0.4863
12977TIP3    H160346   5.268   6.710   4.134 -2.4160 -0.2161 -2.1115
12977TIP3    H260347   5.207   6.679   4.269  1.1932  1.5072  0.0820
12978TIP3   OH260348   0.511   6.640   3.685  0.4196 -0.3296  0.3151
12978TIP3    H160349   0.483   6.731   3.691  1.7053  0.0625  0.6243
12978TIP3    H260350   0.513   6.622   3.591  0.7925  0.1734  0.2220
12979TIP3   OH260351   0.073   1.074  11.051  0.1532 -0.3477  0.1460
12979TIP3    H160352   0.027   1.063  10.968  0.5917 -1.2276  0.0037
12979TIP3    H260353   0.098   0.985  11.076  1.5502  0.0778  0.3478
12980TIP3   OH260354   1.265   6.211  16.587  0.4770 -0.2905 -0.8322
12980TIP3    H160355   1.216   6.268  16.528 -0.3951  2.0887  1.9681
12980TIP3    H260356   1.293   6.268  16.658 -0.8032 -3.3980  2.4632
12981TIP3   OH260357   0.587   6.572  15.333  0.4390  0.7803 -0.5284
12981TIP3    H160358   0.657   6.635  15.352  1.4565  0.4390 -2.8313
12981TIP3    H260359   0.591   6.510  15.406  0.7945  2.1957  0.7143
12982TIP3   OH260360   3.563   4.837   3.769 -0.2069  0.6884  0.4944
12982TIP3    H160361   3.626   4.773   3.802 -0.1146  0.9152  0.7665
12982TIP3    H260362   3.539   4.888   3.846  1.2538  2.2973 -0.0416
12983TIP3   OH260363   6.298   5.422   3.188  0.2828 -0.4210 -0.2689
12983TIP3    H160364   6.249   5.503   3.204  1.9585  0.6713 -0.4827
12983TIP3    H260365   6.331   5.396   3.274 -0.1030 -0.7953 -0.2294
12984TIP3   OH260366   1.045   3.097   2.085 -0.3205 -0.8310 -0.6811
12984TIP3    H160367   1.041   3.161   2.156  1.1316  1.4107 -2.4639
12984TIP3    H260368   1.081   3.018   2.125  0.8205  0.4916  1.0207
12985TIP3   OH260369   3.495   4.879  12.919 -0.3592  0.1492 -0.3667
12985TIP3    H160370   3.574   4.898  12.868 -0.8117  0.4554 -0.9614
12985TIP3    H260371   3.487   4.784  12.917  0.8082 -0.0071  0.9410
12986TIP3   OH260372   5.059   5.029   0.104 -0.9505 -0.0087 -0.0660
12986TIP3    H160373   5.147   5.060   0.122 -1.1744  0.6120 -0.0041
12986TIP3    H260374   5.002   5.088   0.153 -1.4732  0.5031 -1.2342
12987TIP3   OH260375   5.700   3.666   2.741  0.0661 -0.6210  0.4044
12987TIP3    H160376   5.697   3.619   2.657  1.2815  0.9694 -0.5907
12987TIP3    H260377   5.618   3.715   2.744  0.7894  0.7527 -0.7948
12988TIP3   OH260378   2.123   0.852   4.977 -0.1218  0.1615  0.6039
12988TIP3    H160379   2.152   0.890   5.060 -0.9895 -0.8339  1.3973
12988TIP3    H260380   2.083   0.769   5.002 -1.0231  0.1626 -0.7464
12989TIP3   OH260381   0.366   4.483  12.013 -0.5415  0.0853 -0.3929
12989TIP3    H160382   0.453   4.449  11.992 -0.4519 -0.9382  1.4488
12989TIP3    H260383   0.344   4.540  11.939  1.7408  0.4726 -0.8436
12990TIP3   OH260384   3.013   5.777   1.033 -0.1201  0.8498 -0.1224
12990TIP3    H160385   2.945   5.714   1.010  1.0206 -1.4688  2.3277
12990TIP3    H260386   3.083   5.760   0.969 -0.8435  1.5690 -1.1393
12991TIP3   OH260387   2.682   6.683  11.998 -0.0630  0.4703 -0.4961
12991TIP3    H160388   2.684   6.721  11.910 -0.1473 -1.2137 -1.2708
12991TIP3    H260389   2.600   6.715  12.036 -0.5245  0.4327 -1.4232
12992TIP3   OH260390   1.074   1.794  15.886  0.0114 -0.1007  0.6021
12992TIP3    H160391   1.144   1.859  15.898 -0.1447  0.1643  0.0951
12992TIP3    H260392   1.007   1.819  15.949 -1.0874  1.6741 -1.1761
12993TIP3   OH260393   3.229   5.230  12.786 -0.3274  0.3469 -0.3490
12993TIP3    H160394   3.256   5.170  12.855 -0.7743 -0.3929 -0.8020
12993TIP3    H260395   3.287   5.209  12.712 -0.4765  0.4818 -0.5051
12994TIP3   OH260396   0.178   4.183   3.439  0.1168  0.0942  0.4084
12994TIP3    H160397   0.237   4.111   3.416 -1.0253 -1.0928  1.0072
12994TIP3    H260398   0.235   4.255   3.465  1.2965 -0.5969 -0.2161
12995TIP3   OH260399   4.195   1.715   3.405 -0.5457 -0.4615 -0.0374
12995TIP3    H160400   4.114   1.746   3.446 -0.6726 -1.3293  0.3908
12995TIP3    H260401   4.242   1.671   3.475 -0.8162 -2.0725 -0.8139
12996TIP3   OH260402   4.254   2.146  15.448 -0.3581  0.3235 -0.7878
12996TIP3    H160403   4.185   2.205  15.418 -0.1708  0.5923 -0.6874
12996TIP3    H260404   4.321   2.150  15.379 -0.9402 -0.8122 -1.4546
12997TIP3   OH260405   0.344   5.456   3.131  0.2464 -0.1702 -0.3068
12997TIP3    H160406   0.260   5.498   3.110  0.0516  0.5392  1.7262
12997TIP3    H260407   0.373   5.499   3.211  0.7966 -2.8467  1.0420
12998TIP3   OH260408   2.066   5.157   2.476  0.0934  0.7696  0.1147
12998TIP3    H160409   2.066   5.108   2.394 -0.0820  0.4472  0.3041
12998TIP3    H260410   2.047   5.091   2.543  0.4017  1.0009  0.4315
12999TIP3   OH260411   1.734   0.084  13.483 -0.0303  0.5856  0.1001
12999TIP3    H160412   1.754   0.177  13.482 -1.4513  0.9181  0.3282
12999TIP3    H260413   1.810   0.043  13.524  0.5174  1.6603  0.1868
13000TIP3   OH260414   5.398   2.949   4.394 -0.4212  0.5109 -0.6779
13000TIP3    H160415   5.338   3.022   4.411 -0.5745  0.1299  0.5355
13000TIP3    H260416   5.462   2.953   4.466 -1.3905 -1.4949  0.3791
13001TIP3   OH260417   4.949   3.940   4.470 -0.3371  0.0354  0.1247
13001TIP3    H160418   5.009   3.956   4.542 -0.5007  3.1515 -0.2770
13001TIP3    H260419   4.864   3.924   4.512 -0.3334  1.3345  0.6861
13002TIP3   OH260420   6.579   5.251  11.495  0.1537 -0.0536  0.0675
13002TIP3    H160421   6.581   5.156  11.486 -0.4743 -0.0192 -0.5010
13002TIP3    H260422   6.647   5.282  11.435 -0.6932 -0.0753 -0.9279
13003TIP3   OH260423   1.737   4.373  13.194 -0.0012  0.2110  0.4853
13003TIP3    H160424   1.810   4.315  13.170 -0.0233  0.0985  0.6865
13003TIP3    H260425   1.759   4.456  13.153  0.2875  0.2039  0.6170
13004TIP3   OH260426   2.204   3.167   5.297  0.3723  0.4508  0.3959
13004TIP3    H160427   2.163   3.149   5.382  1.8736  0.0152  1.0596
13004TIP3    H260428   2.131   3.187   5.239 -0.8528 -1.1460  1.3146
13005TIP3   OH260429   0.149   5.742   3.171  0.6307 -0.1125  0.3364
13005TIP3    H160430   0.216   5.808   3.157  0.6059  0.0403  0.9151
13005TIP3    H260431   0.101   5.738   3.088  0.0573  1.2418  0.5756
13006TIP3   OH260432   2.411   4.224  15.317 -0.3235  0.8709  0.0282
13006TIP3    H160433   2.491   4.275  15.327 -0.1550  0.3841  1.3556
13006TIP3    H260434   2.439   4.133  15.313 -0.6915  0.8036 -1.3830
13007TIP3   OH260435   0.496   0.126   0.075 -0.1734  0.7317  0.5746
13007TIP3    H160436   0.516   0.189   0.005 -0.4275 -0.0743 -0.2339
13007TIP3    H260437   0.403   0.139   0.092  0.1166  1.7083  1.5711
13008TIP3   OH260438   1.205   1.094  12.420  0.1000 -0.6258 -0.2662
13008TIP3    H160439   1.158   1.087  12.503  1.1129 -0.3109  0.3479
13008TIP3    H260440   1.145   1.140  12.362 -0.4484 -0.4665  0.4221
13009TIP3   OH260441   4.785   2.693   4.659 -0.3734 -0.0903 -0.3055
13009TIP3    H160442   4.820   2.616   4.616 -0.3201  0.0538 -0.5209
13009TIP3    H260443   4.799   2.677   4.753  0.1890 -0.0759 -0.3804
13010TIP3   OH260444   5.967   5.766  11.962  0.1488 -0.9483  0.0988
13010TIP3    H160445   5.951   5.727  12.048  1.2319 -1.5132  0.0626
13010TIP3    H260446   6.057   5.741  11.941  0.2706  0.1107 -0.7200
13011TIP3   OH260447   6.626   4.556   1.011  0.1373  0.2815  0.1318
13011TIP3    H160448   6.711   4.516   1.024  0.9940  1.7844 -0.6127
13011TIP3    H260449   6.621   4.572   0.917 -0.4161  1.3666  0.3330
13012TIP3   OH260450   2.888   2.115   0.693  0.1866  0.0808 -0.0582
13012TIP3    H160451   2.936   2.155   0.766 -1.2050  1.0422  0.3581
13012TIP3    H260452   2.800   2.101   0.726 -0.1716 -0.5091 -1.2066
13013TIP3   OH260453   4.790   6.166   4.530 -0.5761  0.0977  0.6316
13013TIP3    H160454   4.840   6.133   4.456  0.9230 -1.3787  2.1961
13013TIP3    H260455   4.820   6.256   4.541  0.4451 -0.2037  0.4346
13014TIP3   OH260456   4.403   4.804   2.510  0.3625  0.6080 -0.1508
13014TIP3    H160457   4.316   4.844   2.498 -0.4415 -1.0736 -0.2105
13014TIP3    H260458   4.430   4.831   2.598 -0.7000  0.3005  0.2823
13015TIP3   OH260459   3.976   0.931   1.244 -0.1008 -0.8149 -0.0252
13015TIP3    H160460   4.012   1.008   1.201 -1.0476 -0.2669  0.1535
13015TIP3    H260461   3.882   0.944   1.243 -0.6670 -3.6633 -3.2874
13016TIP3   OH260462   5.757   4.809   1.206  0.2527 -0.4049  0.4782
13016TIP3    H160463   5.674   4.779   1.244 -1.4283  1.3471 -1.5369
13016TIP3    H260464   5.731   4.871   1.138  3.1426 -1.7157 -2.0402
13017TIP3   OH260465   6.251   0.338  16.059 -0.4594  0.0252 -0.0255
13017TIP3    H160466   6.288   0.259  16.018 -0.7835  0.1468 -0.5642
13017TIP3    H260467   6.288   0.339  16.147 -1.1004 -1.1816  0.2692
13018TIP3   OH260468   5.472   3.199  11.809  0.0764  0.4397  0.0054
13018TIP3    H160469   5.468   3.273  11.749  0.6024 -0.4838 -1.2101
13018TIP3    H260470   5.540   3.224  11.872 -0.2793  1.2987  0.0622
13019TIP3   OH260471   2.064   6.245  12.513 -0.0241  0.4855 -0.2858
13019TIP3    H160472   2.006   6.290  12.452 -1.5442 -0.6255  0.2726
13019TIP3    H260473   2.027   6.264  12.600 -0.0326 -0.8470  0.0304
13020TIP3   OH260474   1.962   6.704  17.003 -0.2858 -0.1612  0.2198
13020TIP3    H160475   1.927   6.631  17.053 -0.9750 -0.5636 -0.8225
13020TIP3    H260476   2.051   6.677  16.979 -1.0646 -1.3746 -1.4925
13021TIP3   OH260477   3.517   6.185   1.790  0.1320  0.5021  0.3600
13021TIP3    H160478   3.478   6.177   1.878 -1.3456  2.0875 -0.0911
13021TIP3    H260479   3.586   6.118   1.788 -0.7507 -0.5431  2.2056
13022TIP3   OH260480   1.550   5.198   0.857  0.7966  0.9446  1.0313
13022TIP3    H160481   1.579   5.114   0.821  0.8281  1.6340 -0.6755
13022TIP3    H260482   1.612   5.261   0.822 -0.9470  2.0523 -0.2498
13023TIP3   OH260483   1.159   5.279   3.217 -0.4436  0.5772  0.4359
13023TIP3    H160484   1.144   5.373   3.228 -0.7254  0.4764  0.9625
13023TIP3    H260485   1.146   5.242   3.305 -0.8614 -0.0209  0.1324
13024TIP3   OH260486   5.316   3.810  15.109 -0.3569 -0.0478  0.0798
13024TIP3    H160487   5.358   3.766  15.035  0.8829 -2.7265  2.2208
13024TIP3    H260488   5.389   3.837  15.165 -1.2757  1.9498  0.4079
13025TIP3   OH260489   1.834   1.776   5.269 -0.0139 -0.0774 -0.1162
13025TIP3    H160490   1.843   1.685   5.296 -0.3270 -0.1471 -0.2402
13025TIP3    H260491   1.898   1.823   5.321  0.6199 -0.4657 -0.5384
13026TIP3   OH260492   3.916   6.365  16.094 -0.3671 -0.0140  0.7033
13026TIP3    H160493   3.910   6.273  16.121  1.1003 -0.2779  0.2123
13026TIP3    H260494   3.841   6.378  16.035  0.9586 -1.7283 -1.5057
13027TIP3   OH260495   4.618   0.884   5.381 -0.2498  1.0669  0.7815
13027TIP3    H160496   4.574   0.935   5.313  1.4500  0.6514 -0.7174
13027TIP3    H260497   4.599   0.793   5.358  0.0761  0.9325  1.0488
13028TIP3   OH260498   3.326   4.321   1.681  0.5105 -0.1840 -0.9493
13028TIP3    H160499   3.234   4.312   1.658  0.1951 -0.5456  0.3384
13028TIP3    H260500   3.358   4.231   1.692  0.3036 -0.0540  1.1161
13029TIP3   OH260501   2.100   2.033   3.017  0.1364  0.5279 -0.3667
13029TIP3    H160502   2.077   1.942   3.034  1.3346  0.3418  0.3703
13029TIP3    H260503   2.170   2.028   2.952  0.9496  0.8378  0.4510
13030TIP3   OH260504   6.168   3.790  13.984 -0.3829  0.0956 -0.1943
13030TIP3    H160505   6.151   3.711  13.934 -0.0948 -0.0514 -0.0661
13030TIP3    H260506   6.264   3.800  13.981 -0.3146 -0.1938  0.7453
13031TIP3   OH260507   3.430   4.436  16.155 -0.2066  0.3082 -0.7351
13031TIP3    H160508   3.351   4.488  16.144  0.1047  1.0435  0.3754
13031TIP3    H260509   3.416   4.389  16.238 -0.2439 -0.9794 -1.4361
13032TIP3   OH260510   1.260   3.355   4.259 -0.3936 -0.2925 -0.7285
13032TIP3    H160511   1.302   3.411   4.194  0.8621  0.2475  0.4896
13032TIP3    H260512   1.168   3.353   4.234 -0.1763  1.0357 -1.7059
13033TIP3   OH260513   6.674   5.530  15.313 -0.0595  0.1709  0.0652
13033TIP3    H160514   6.683   5.622  15.288 -0.8637  0.0313 -0.8283
13033TIP3    H260515   6.583   5.522  15.341 -0.2345 -0.5318 -0.6851
13034TIP3   OH260516   1.065   4.195   2.022 -0.1915 -0.1885  1.0546
13034TIP3    H160517   1.138   4.248   1.988 -0.8204  0.3508  0.5019
13034TIP3    H260518   1.075   4.198   2.117  1.1317 -1.0345  0.9687
13035TIP3   OH260519   0.474   3.487   4.221  0.0119 -0.2268 -0.9461
13035TIP3    H160520   0.380   3.470   4.225  0.0484 -0.4595 -1.0920
13035TIP3    H260521   0.502   3.490   4.313 -0.2118  0.2570 -0.8876
13036TIP3   OH260522   2.129   2.235   3.202  0.1787 -0.3261 -0.3301
13036TIP3    H160523   2.136   2.151   3.157 -0.6409 -0.4457 -0.2582
13036TIP3    H260524   2.135   2.301   3.132 -0.2917 -0.4855 -0.5248
13037TIP3   OH260525   4.690   5.933   1.637 -0.3624 -0.0069 -0.0305
13037TIP3    H160526   4.630   5.981   1.579 -0.1080  2.6792  1.7431
13037TIP3    H260527   4.777   5.951   1.601 -0.2640  0.9630  0.6576
13038TIP3   OH260528   5.758   1.717   6.044 -0.9885  0.4222 -0.0183
13038TIP3    H160529   5.848   1.746   6.057 -0.6095  0.2975 -1.9694
13038TIP3    H260530   5.744   1.649   6.109  0.3848  0.3406  0.2107
13039TIP3   OH260531   4.700   4.291   4.392  0.0266  0.2283 -0.2748
13039TIP3    H160532   4.701   4.263   4.483  0.3662 -1.0060 -0.6489
13039TIP3    H260533   4.665   4.217   4.344 -0.9722  1.1737 -1.0675
13040TIP3   OH260534   1.037   5.341   1.753 -0.0314 -1.1723 -0.3573
13040TIP3    H160535   0.987   5.351   1.671 -1.2761 -0.3323  0.4647
13040TIP3    H260536   1.039   5.429   1.790 -2.9369 -2.0882  2.4388
13041TIP3   OH260537   5.924   5.489   1.759  0.5669 -0.6703 -0.1119
13041TIP3    H160538   5.884   5.451   1.680  1.5064 -0.7138 -0.5829
13041TIP3    H260539   5.917   5.419   1.825  1.4611 -1.3598 -0.7108
13042TIP3   OH260540   1.482   0.165  16.615 -0.4091  0.1362 -0.0704
13042TIP3    H160541   1.504   0.255  16.593 -1.5450  0.2808 -0.6618
13042TIP3    H260542   1.397   0.170  16.658 -2.1074 -0.8960 -3.0130
13043TIP3   OH260543   6.561   0.631  11.844 -0.2840  0.5703  0.2179
13043TIP3    H160544   6.651   0.603  11.826 -0.6386 -1.9260  1.9805
13043TIP3    H260545   6.521   0.639  11.757  0.9512 -0.7537 -0.5098
13044TIP3   OH260546   3.828   3.825  13.470 -0.2707  0.1921 -0.3703
13044TIP3    H160547   3.870   3.747  13.506 -0.1540  0.1963 -0.4946
13044TIP3    H260548   3.735   3.803  13.465 -0.2360  0.0573 -0.4155
13045TIP3   OH260549   6.011   3.938  12.516  0.5378  1.2675  0.2223
13045TIP3    H160550   6.105   3.956  12.516  0.6685  0.6076 -0.0571
13045TIP3    H260551   5.975   3.997  12.450  0.8678  0.9523 -0.2375
13046TIP3   OH260552   2.024   5.503   4.284  0.0213 -0.4732  0.3916
13046TIP3    H160553   2.060   5.420   4.317  1.0681  0.3289  1.3455
13046TIP3    H260554   1.936   5.507   4.322 -0.3752 -1.5384 -0.3660
13047TIP3   OH260555   1.801   5.114   2.767  0.4086 -0.1816  1.1111
13047TIP3    H160556   1.790   5.098   2.860  0.0515 -0.9599  0.9397
13047TIP3    H260557   1.863   5.187   2.762 -0.7342  0.8919  1.9925
13048TIP3   OH260558   4.480   1.609   3.240 -0.3156  0.5763 -0.5256
13048TIP3    H160559   4.555   1.557   3.213 -0.7188  0.3423 -1.2335
13048TIP3    H260560   4.418   1.545   3.275 -0.7050  0.6070 -1.1499
13049TIP3   OH260561   0.514   3.660  11.014 -0.3805 -0.4074  0.4907
13049TIP3    H160562   0.593   3.608  11.030 -0.7133 -0.3113  2.6448
13049TIP3    H260563   0.466   3.610  10.947  1.2789 -0.6657 -0.5856
13050TIP3   OH260564   2.916   2.295  17.056 -0.7437  0.3634  0.2574
13050TIP3    H160565   3.000   2.268  17.019  0.3075  2.1839  1.1624
13050TIP3    H260566   2.938   2.327  17.143 -2.8936 -2.2580  1.9248
13051TIP3   OH260567   6.081   1.956   0.859  0.7392  0.5661 -0.3419
13051TIP3    H160568   6.168   1.990   0.883  0.2816  0.4414  1.6831
13051TIP3    H260569   6.021   2.026   0.884 -0.0177 -0.7405  1.7028
13052TIP3   OH260570   1.632   2.941   4.271  0.2491  0.6854 -0.7054
13052TIP3    H160571   1.692   2.986   4.211  3.1190 -0.5372  1.0388
13052TIP3    H260572   1.686   2.919   4.347 -2.2465 -1.2818  0.6615
13053TIP3   OH260573   3.078   3.928   3.133  0.7231  0.1750  0.2200
13053TIP3    H160574   3.113   3.998   3.078  2.2624 -1.3393 -0.8705
13053TIP3    H260575   3.155   3.894   3.179 -0.5863  1.8060  3.9999
13054TIP3   OH260576   2.734   2.663  16.999 -0.0985 -0.0490  0.8847
13054TIP3    H160577   2.701   2.671  17.088  0.4337 -0.1721  1.0965
13054TIP3    H260578   2.829   2.651  17.009 -0.0207  0.0342  0.3014
13055TIP3   OH260579   2.552   3.323   1.354 -0.0278  0.1107 -0.0214
13055TIP3    H160580   2.507   3.286   1.430  0.0774  0.4174  0.1916
13055TIP3    H260581   2.579   3.411   1.382  0.4096  0.0576 -0.2588
13056TIP3   OH260582   4.638   0.708   3.127 -0.6914 -0.3933 -0.2929
13056TIP3    H160583   4.620   0.735   3.218 -0.8783  0.3889 -0.5575
13056TIP3    H260584   4.688   0.627   3.136  2.0966  1.2737  0.5925
13057TIP3   OH260585   6.460   5.477   1.630  0.0819  0.5628 -0.2774
13057TIP3    H160586   6.396   5.413   1.663  1.2495 -0.1353  0.6969
13057TIP3    H260587   6.468   5.542   1.701  2.1711 -0.6279  0.6568
13058TIP3   OH260588   5.310   3.464  12.053 -0.1919 -0.1941 -0.0687
13058TIP3    H160589   5.388   3.507  12.018  0.2588  1.1285  2.2724
13058TIP3    H260590   5.341   3.420  12.133 -1.6918 -0.1934  0.5462
13059TIP3   OH260591   4.485   0.515  13.074  0.1006  0.4020 -0.1308
13059TIP3    H160592   4.456   0.521  12.983 -1.9676  2.3974  0.5571
13059TIP3    H260593   4.499   0.606  13.101 -0.9166  0.0094  1.9726
13060TIP3   OH260594   5.583   2.085   1.264  0.3729  0.1826 -0.5085
13060TIP3    H160595   5.600   2.030   1.188  1.1658 -0.6428  0.2319
13060TIP3    H260596   5.667   2.130   1.279 -0.2935  1.7224 -1.1741
13061TIP3   OH260597   6.769   0.550   3.479  0.1287  0.7294 -0.9402
13061TIP3    H160598   6.708   0.476   3.483  1.4961 -0.5974 -2.6845
13061TIP3    H260599   6.717   0.626   3.504 -1.9977 -0.4532 -1.5274
13062TIP3   OH260600   6.771   4.232  16.738  0.3988  0.3667  0.0671
13062TIP3    H160601   6.714   4.232  16.816  0.0294  0.9987 -0.1970
13062TIP3    H260602   6.749   4.150  16.694  0.7223 -0.0747  0.7019
13063TIP3   OH260603   5.687   4.156  13.339 -0.6089 -0.3890 -0.2112
13063TIP3    H160604   5.646   4.080  13.298 -0.6729 -0.3039 -0.3074
13063TIP3    H260605   5.767   4.170  13.289 -0.9162 -0.0026 -0.6098
13064TIP3   OH260606   3.116   0.195  14.121  0.1519  0.4646 -0.2640
13064TIP3    H160607   3.039   0.146  14.150 -0.2654  0.7767 -0.8236
13064TIP3    H260608   3.101   0.212  14.028  0.6643  0.9588 -0.2690
13065TIP3   OH260609   1.714   3.851   0.641 -0.1903 -0.2429  0.2209
13065TIP3    H160610   1.718   3.945   0.658 -0.6046 -0.1922  0.0566
13065TIP3    H260611   1.779   3.836   0.573 -0.8719  0.1131 -0.5333
13066TIP3   OH260612   0.249   5.377  13.947  0.1032 -0.2322 -0.1332
13066TIP3    H160613   0.207   5.432  13.881 -1.1892 -0.6149  0.3197
13066TIP3    H260614   0.310   5.435  13.992 -2.5623  1.4560  1.5947
13067TIP3   OH260615   0.565   5.355  13.911 -0.3036 -1.1373 -0.0159
13067TIP3    H160616   0.518   5.381  13.832  0.3207 -1.7843 -0.6106
13067TIP3    H260617   0.522   5.274  13.939 -0.5923 -0.8526  0.3746
13068TIP3   OH260618   1.694   5.134  14.724  0.2145  0.1467  0.3729
13068TIP3    H160619   1.689   5.054  14.672  0.8908 -0.4254  1.1548
13068TIP3    H260620   1.778   5.173  14.701  0.4447 -0.0246  0.8875
13069TIP3   OH260621   2.173   6.345   0.155 -0.7209  0.0882  0.5789
13069TIP3    H160622   2.205   6.325   0.243  0.2115  0.1629  0.2640
13069TIP3    H260623   2.169   6.260   0.112 -1.5511  0.0039  0.8053
13070TIP3   OH260624   3.736   5.769   3.841  0.2224  0.3461  0.2500
13070TIP3    H160625   3.811   5.774   3.782 -0.8819  0.7992 -1.1842
13070TIP3    H260626   3.768   5.803   3.924  1.7468 -0.0014 -0.1658
13071TIP3   OH260627   6.793   5.778   4.870  0.0394  0.4639  0.0079
13071TIP3    H160628   6.790   5.836   4.946  1.5248  2.0023 -1.0342
13071TIP3    H260629   6.867   5.721   4.886 -1.3685 -1.1809  0.9898
13072TIP3   OH260630   1.917   0.300  16.299  0.3940 -0.4249  0.4462
13072TIP3    H160631   1.935   0.211  16.268 -2.0635 -0.0055 -2.6607
13072TIP3    H260632   1.995   0.350  16.274 -0.0299 -0.8770 -2.0297
13073TIP3   OH260633   4.993   6.742   0.942 -1.0223  0.1706 -0.0791
13073TIP3    H160634   5.064   6.766   0.883  1.1483 -0.3827  2.1311
13073TIP3    H260635   4.970   6.823   0.987  1.3460 -0.2992  2.2654
13074TIP3   OH260636   2.768   1.679   3.081 -0.2522  0.1135 -0.2463
13074TIP3    H160637   2.862   1.669   3.063 -0.4682  0.7171 -1.8374
13074TIP3    H260638   2.747   1.768   3.054 -1.2900  0.0067  0.1449
13075TIP3   OH260639   1.230   3.928   6.255 -0.8056  0.0960  0.3037
13075TIP3    H160640   1.219   3.949   6.348  0.6769 -0.1109  0.5443
13075TIP3    H260641   1.294   3.857   6.254  1.6427  2.2090 -1.0328
13076TIP3   OH260642   0.183   1.171  14.795 -0.2281  0.8163  0.2915
13076TIP3    H160643   0.130   1.195  14.871 -0.8133 -2.9810  1.3114
13076TIP3    H260644   0.121   1.168  14.722 -0.4989  0.6325  0.5274
13077TIP3   OH260645   0.432   3.207  10.509 -0.0590 -0.3494 -0.5749
13077TIP3    H160646   0.363   3.257  10.553 -0.0197 -2.2452  1.8684
13077TIP3    H260647   0.511   3.258  10.522 -0.4613  0.2855 -0.5821
13078TIP3   OH260648   6.478   2.142  12.029 -0.1686  0.0377  0.7794
13078TIP3    H160649   6.444   2.225  12.064  0.9683  0.6120  0.5723
13078TIP3    H260650   6.561   2.128  12.075  0.6071  0.0241 -0.5500
13079TIP3   OH260651   0.861   0.704   4.601 -0.4288  0.1031  0.1980
13079TIP3    H160652   0.793   0.653   4.645 -1.0469  1.1579  0.4966
13079TIP3    H260653   0.822   0.790   4.587  0.8698  0.7633  0.4503
13080TIP3   OH260654   5.888   5.848   2.980  0.6658 -0.0544  0.3827
13080TIP3    H160655   5.973   5.889   2.998  0.3665  0.6620  0.1936
13080TIP3    H260656   5.879   5.855   2.885  0.0750  0.5152  0.4767
13081TIP3   OH260657   6.417   4.518  17.041 -0.1444 -1.0487 -1.2620
13081TIP3    H160658   6.332   4.541  17.004 -0.7166 -2.4668 -0.9171
13081TIP3    H260659   6.481   4.544  16.974 -0.5960  2.0959 -0.6252
13082TIP3   OH260660   6.569   5.875   6.362 -0.1315 -0.4522  0.1917
13082TIP3    H160661   6.575   5.806   6.296  0.1040 -0.6284  0.3921
13082TIP3    H260662   6.475   5.885   6.377 -0.1754 -0.5912  0.0156
13083TIP3   OH260663   2.401   1.943  12.410 -0.0747  0.0736  0.0480
13083TIP3    H160664   2.327   1.957  12.352  0.1113  2.5503  0.3105
13083TIP3    H260665   2.475   1.927  12.351 -0.8604 -3.2614 -0.2020
13084TIP3   OH260666   2.327   5.608  14.631 -0.1375  0.1075  0.1189
13084TIP3    H160667   2.291   5.577  14.548 -0.1279 -0.9810  0.5115
13084TIP3    H260668   2.357   5.529  14.676 -1.6631  0.4630  1.8908
13085TIP3   OH260669   6.553   2.505  16.217 -0.1844  0.1904  0.1090
13085TIP3    H160670   6.508   2.538  16.139 -0.6735 -2.5051 -0.8540
13085TIP3    H260671   6.487   2.509  16.286 -1.0966 -1.1992 -0.6382
13086TIP3   OH260672   5.716   3.242  12.264  1.1520  0.2628 -0.2614
13086TIP3    H160673   5.791   3.271  12.316  0.8631 -1.0167  0.9637
13086TIP3    H260674   5.641   3.288  12.302  0.6618 -1.9986  1.8234
13087TIP3   OH260675   6.595   5.968   0.141  0.0416  0.3649  0.4059
13087TIP3    H160676   6.504   5.983   0.164 -0.2168 -0.2818 -0.1533
13087TIP3    H260677   6.638   5.945   0.224 -0.5970 -0.6600  0.4708
13088TIP3   OH260678   0.911   5.002   3.556  0.1827 -0.7854 -0.9601
13088TIP3    H160679   0.930   4.912   3.579 -2.0805 -1.6824 -2.3018
13088TIP3    H260680   0.970   5.022   3.483  2.1811 -0.3951  0.6880
13089TIP3   OH260681   6.771   0.080  15.805  0.6322 -0.7069 -0.6289
13089TIP3    H160682   6.717   0.068  15.884 -1.2049 -0.5462 -1.8024
13089TIP3    H260683   6.770   0.174  15.790  2.5987 -0.5206  0.2022
13090TIP3   OH260684   4.592   5.431   0.688 -0.2109  0.2864  0.4232
13090TIP3    H160685   4.502   5.451   0.714 -1.3087 -0.9338 -2.0974
13090TIP3    H260686   4.638   5.514   0.699 -1.8173  1.1641  0.9926
13091TIP3   OH260687   4.114   2.660   5.200  0.6259  0.3532 -0.1650
13091TIP3    H160688   4.154   2.742   5.171  0.4805  0.5245  0.1202
13091TIP3    H260689   4.161   2.592   5.151  1.9977  0.4613  0.9542
13092TIP3   OH260690   4.534   2.489  14.157  0.1946 -0.3835  0.4085
13092TIP3    H160691   4.576   2.406  14.134  0.8661 -0.5062  1.9539
13092TIP3    H260692   4.513   2.530  14.073 -0.9690 -2.5034 -0.4045
13093TIP3   OH260693   4.614   3.231  14.136 -0.3725  0.2105 -0.3712
13093TIP3    H160694   4.629   3.199  14.225  0.7460 -1.0160 -0.9770
13093TIP3    H260695   4.625   3.326  14.143 -1.0490  0.2237  0.9284
13094TIP3   OH260696   6.512   6.229   3.494 -0.3201  0.7641  0.1073
13094TIP3    H160697   6.559   6.234   3.411 -0.5777  0.3244 -0.0660
13094TIP3    H260698   6.442   6.167   3.479  0.7417 -0.7829  1.1981
13095TIP3   OH260699   1.183   4.382  13.559  0.6548  0.2836  0.0375
13095TIP3    H160700   1.253   4.411  13.618  1.9694  0.0310 -1.3587
13095TIP3    H260701   1.103   4.416  13.599  1.5942  0.8843  1.4836
13096TIP3   OH260702   1.986   0.163  12.952  0.6658 -0.0414 -0.7299
13096TIP3    H160703   1.977   0.190  12.861 -0.1039 -4.5145 -2.2507
13096TIP3    H260704   2.031   0.079  12.948  0.0837 -0.7199  2.9945
13097TIP3   OH260705   0.801   2.162  13.806 -0.1099  0.1503 -0.0907
13097TIP3    H160706   0.853   2.194  13.731  1.0153 -1.0656  0.1345
13097TIP3    H260707   0.710   2.181  13.782  0.3399  1.2339 -1.0467
13098TIP3   OH260708   5.845   3.402   4.402  0.0367 -0.1235  0.5304
13098TIP3    H160709   5.851   3.450   4.485 -1.9244 -1.3709  1.4655
13098TIP3    H260710   5.936   3.389   4.376  0.6701  2.1355  1.3490
13099TIP3   OH260711   5.819   1.625   0.534  0.2214  0.3040  0.3412
13099TIP3    H160712   5.750   1.637   0.468  0.2053  1.0893  0.4893
13099TIP3    H260713   5.789   1.675   0.610  1.7014  2.0873 -0.1642
13100TIP3   OH260714   5.086   0.139   4.134  0.1414 -0.1322 -0.1071
13100TIP3    H160715   5.175   0.106   4.148 -0.1089 -0.5504  0.5929
13100TIP3    H260716   5.063   0.110   4.046  0.5010 -0.5060 -0.0826
13101TIP3   OH260717   1.745   4.159   6.076  0.2386 -0.4532 -0.1124
13101TIP3    H160718   1.797   4.088   6.038 -1.3807 -2.5596  1.3464
13101TIP3    H260719   1.806   4.207   6.132  1.4208 -0.5208 -1.3101
13102TIP3   OH260720   3.229   3.502   1.578 -0.2940 -0.5511  0.1813
13102TIP3    H160721   3.312   3.540   1.607 -0.5432 -0.0372  0.2401
13102TIP3    H260722   3.245   3.475   1.487  0.4551 -2.0652  0.7255
13103TIP3   OH260723   4.050   5.006   3.304  0.1635 -0.1544  0.0852
13103TIP3    H160724   4.022   4.988   3.394  1.1905  0.8579  0.6257
13103TIP3    H260725   4.108   5.082   3.311  0.4018 -0.1675 -1.4126
13104TIP3   OH260726   5.961   4.271   1.164 -0.5574 -0.3436 -0.8054
13104TIP3    H160727   5.906   4.235   1.234  2.0794  1.6221  2.5705
13104TIP3    H260728   5.923   4.356   1.144  0.2714  0.3256  0.3750
13105TIP3   OH260729   4.721   0.288   1.791 -0.3416  0.2300 -0.2013
13105TIP3    H160730   4.685   0.254   1.873 -0.5902 -1.5573 -1.0106
13105TIP3    H260731   4.665   0.250   1.723  0.7825  0.4709 -1.2887
13106TIP3   OH260732   4.002   0.922   0.324  0.3572  0.2756  0.0529
13106TIP3    H160733   4.032   0.940   0.235 -0.4374 -0.5245 -0.3885
13106TIP3    H260734   3.982   0.829   0.324  0.6597  0.1944  1.1732
13107TIP3   OH260735   0.992   3.589  11.963  0.2130  0.5226  0.3813
13107TIP3    H160736   0.955   3.675  11.986 -1.9000 -0.1300 -0.3414
13107TIP3    H260737   1.065   3.609  11.905 -0.3768  1.8307  0.0509
13108TIP3   OH260738   4.054   0.740  16.917 -0.1667 -0.4733 -0.0022
13108TIP3    H160739   4.006   0.804  16.864 -1.1858 -2.0652 -1.0936
13108TIP3    H260740   4.059   0.662  16.861 -0.9234 -2.1069  2.1023
13109TIP3   OH260741   0.620   5.867  15.508  0.0063 -0.4319 -0.2506
13109TIP3    H160742   0.569   5.944  15.533  0.2666 -0.6804  1.1323
13109TIP3    H260743   0.571   5.794  15.545  0.8655 -0.7433  0.3108
13110TIP3   OH260744   5.425   4.647   2.361  0.5921 -0.9225  0.0897
13110TIP3    H160745   5.442   4.609   2.275  1.2602 -0.3683 -0.0306
13110TIP3    H260746   5.341   4.610   2.387 -0.6288  0.4174 -1.6873
13111TIP3   OH260747   6.487   5.929  16.787 -0.8608  0.1846  0.2274
13111TIP3    H160748   6.521   5.842  16.766  1.7434  1.4407 -1.1967
13111TIP3    H260749   6.467   5.925  16.880  0.1083 -1.6483  0.4049
13112TIP3   OH260750   5.995   6.305  16.184  0.2551  0.1816 -0.5840
13112TIP3    H160751   5.927   6.263  16.132 -0.5653 -0.3063  0.8361
13112TIP3    H260752   5.947   6.352  16.252  1.2713  1.3805 -0.6643
13113TIP3   OH260753   5.087   3.398   4.258 -0.3019 -0.6800  0.5978
13113TIP3    H160754   5.086   3.335   4.186  3.2123  0.1521 -0.3668
13113TIP3    H260755   5.083   3.483   4.216  0.8097 -0.1994  1.4010
13114TIP3   OH260756   1.677   0.873   0.373 -0.0550  0.2025  0.1434
13114TIP3    H160757   1.648   0.961   0.347 -0.5988  0.5701  1.8777
13114TIP3    H260758   1.596   0.822   0.378  0.2589 -0.4158 -0.8405
13115TIP3   OH260759   5.925   4.409  11.223 -0.5511 -0.0283  0.2644
13115TIP3    H160760   5.943   4.496  11.186  0.2910  0.3418  1.4871
13115TIP3    H260761   5.867   4.367  11.159 -0.0334  0.9938 -0.9052
13116TIP3   OH260762   0.224   1.714  15.663  0.6565  0.2596  0.0710
13116TIP3    H160763   0.313   1.736  15.637  1.5175 -1.0833  1.6743
13116TIP3    H260764   0.193   1.654  15.594  1.5018 -0.3117  0.1687
13117TIP3   OH260765   1.374   1.314   5.159 -0.5022 -0.0168 -0.2999
13117TIP3    H160766   1.448   1.254   5.150 -0.0000  0.6641 -0.7862
13117TIP3    H260767   1.394   1.366   5.237 -0.8687 -0.3763  0.0395
13118TIP3   OH260768   5.246   1.301  15.514  0.1539  0.1660 -0.6600
13118TIP3    H160769   5.207   1.373  15.464  0.1265 -0.5904 -1.7556
13118TIP3    H260770   5.249   1.334  15.604 -2.0748  0.6213 -0.7039
13119TIP3   OH260771   2.045   1.966   0.686 -0.1514 -0.4616  0.1784
13119TIP3    H160772   2.138   1.946   0.673  0.0799  0.3388  0.5384
13119TIP3    H260773   2.012   1.986   0.598 -0.4966 -2.7655 -0.2593
13120TIP3   OH260774   6.738   0.597   5.751 -0.0164 -0.4530  0.1467
13120TIP3    H160775   6.756   0.669   5.690 -0.3837 -0.9081 -0.5217
13120TIP3    H260776   6.727   0.520   5.694 -1.3958 -0.6987  0.7010
13121TIP3   OH260777   2.916   6.216  16.115 -0.0281  0.6124 -0.0592
13121TIP3    H160778   2.989   6.243  16.059 -0.2956  0.8304 -0.3032
13121TIP3    H260779   2.839   6.220  16.059 -0.1967  0.1393  0.1269
13122TIP3   OH260780   1.552   0.623  11.862  0.3997  0.3947  0.7497
13122TIP3    H160781   1.471   0.668  11.882 -0.0603  0.9441 -2.0393
13122TIP3    H260782   1.592   0.674  11.792  0.8135 -2.3914 -1.2037
13123TIP3   OH260783   2.049   1.339   1.642  0.4580  0.1470  0.7021
13123TIP3    H160784   2.050   1.253   1.600 -1.2243 -0.0508  0.9725
13123TIP3    H260785   2.089   1.324   1.728  0.6054 -0.2736  0.5634
13124TIP3   OH260786   4.901   1.487   1.984  0.5842 -0.0250  0.3289
13124TIP3    H160787   4.990   1.521   1.992  1.0257 -1.3439  1.4638
13124TIP3    H260788   4.871   1.517   1.898  2.2963  0.0362 -0.2840
13125TIP3   OH260789   3.602   3.305   1.056 -0.2676 -0.3044 -0.2508
13125TIP3    H160790   3.550   3.326   0.979  1.8636 -0.9339 -1.9507
13125TIP3    H260791   3.569   3.220   1.085 -0.6998 -0.3281 -0.8093
13126TIP3   OH260792   4.812   1.727   5.246 -0.3454  0.2155 -0.3645
13126TIP3    H160793   4.872   1.696   5.178  0.5698  0.8826  0.1309
13126TIP3    H260794   4.762   1.797   5.205  1.2000  1.6063  0.0370
13127TIP3   OH260795   3.815   6.332   2.171 -1.0485  0.2368  0.2278
13127TIP3    H160796   3.820   6.299   2.261 -2.7807 -0.4321  0.1181
13127TIP3    H260797   3.760   6.410   2.177  0.4126  1.3440 -0.0107
13128TIP3   OH260798   5.457   3.747   5.431 -0.5701 -0.3469 -0.1323
13128TIP3    H160799   5.464   3.827   5.380 -1.1784  0.3480  0.8379
13128TIP3    H260800   5.400   3.690   5.379  0.0491 -0.2444 -0.9290
13129TIP3   OH260801   5.164   4.393   1.330 -0.0288 -0.0140  0.2086
13129TIP3    H160802   5.224   4.457   1.369 -1.5296  0.9736  1.0000
13129TIP3    H260803   5.143   4.333   1.402  0.1668 -0.4853 -0.1215
13130TIP3   OH260804   2.380   5.154   5.376 -0.3380 -0.0541  0.4674
13130TIP3    H160805   2.325   5.081   5.348 -1.4758  0.5527  1.0503
13130TIP3    H260806   2.372   5.154   5.472  1.1773 -0.3265  0.6172
13131TIP3   OH260807   4.902   2.055  12.218  0.6630 -0.2885 -0.2962
13131TIP3    H160808   4.900   2.117  12.290  1.2128  0.9052 -1.2843
13131TIP3    H260809   4.984   2.006  12.230  0.4705 -0.5051  0.1958
13132TIP3   OH260810   5.037   5.431  11.876 -0.5132  0.8680 -0.9480
13132TIP3    H160811   5.096   5.383  11.817 -0.1658 -0.2972  0.2830
13132TIP3    H260812   5.002   5.502  11.822  0.6032  0.4966 -2.2411
13133TIP3   OH260813   3.876   2.552  16.067 -0.2348 -0.2174  0.0448
13133TIP3    H160814   3.845   2.583  15.982 -0.9170 -0.1948  0.3015
13133TIP3    H260815   3.970   2.539  16.054  0.7423  4.4320  0.6231
13134TIP3   OH260816   1.672   4.293   0.191  0.1138 -0.3023 -0.6651
13134TIP3    H160817   1.709   4.273   0.277 -2.2635 -1.2813  0.1881
13134TIP3    H260818   1.715   4.375   0.166 -1.2298  1.6898  2.8438
13135TIP3   OH260819   0.612   3.696  14.724  0.3142  0.1374 -0.5581
13135TIP3    H160820   0.570   3.683  14.809 -0.6905  0.9161 -0.9232
13135TIP3    H260821   0.696   3.736  14.745  0.5892 -0.7458  0.1320
13136TIP3   OH260822   0.266   3.373   1.517 -0.0869  0.5158  0.4956
13136TIP3    H160823   0.262   3.312   1.591 -0.0276  0.6748  0.6301
13136TIP3    H260824   0.315   3.448   1.551 -0.5626  0.8421  0.4782
13137TIP3   OH260825   4.172   3.786   5.464  0.0554 -0.1353  0.0145
13137TIP3    H160826   4.150   3.873   5.497  0.3529  0.2131 -0.6911
13137TIP3    H260827   4.122   3.778   5.383  0.0640 -0.6101  0.0511
13138TIP3   OH260828   3.882   4.483   3.146  0.5600  0.2118 -0.1637
13138TIP3    H160829   3.969   4.455   3.173  0.4636 -0.1687 -0.2436
13138TIP3    H260830   3.830   4.403   3.146  0.6542  0.1198 -1.8744
13139TIP3   OH260831   5.011   3.453  15.662 -0.4115  0.4352 -0.1533
13139TIP3    H160832   5.006   3.431  15.755 -0.7370  0.7077 -0.1062
13139TIP3    H260833   4.968   3.380  15.618 -1.3667  0.8951 -0.0066
13140TIP3   OH260834   2.943   5.197  13.112 -0.0721 -0.2116  0.1548
13140TIP3    H160835   3.019   5.245  13.079 -0.1202 -0.1206  0.1770
13140TIP3    H260836   2.905   5.254  13.179 -0.7090  0.1748 -0.5065
13141TIP3   OH260837   1.305   4.201  14.392 -0.0369  0.1952  0.2200
13141TIP3    H160838   1.314   4.188  14.297 -1.4261 -1.4881  0.2741
13141TIP3    H260839   1.310   4.113  14.429 -0.7686  0.6998  1.5783
13142TIP3   OH260840   0.310   3.190   6.472 -0.4425 -0.4549  0.3212
13142TIP3    H160841   0.263   3.272   6.482  0.5768  0.8022 -3.4132
13142TIP3    H260842   0.402   3.214   6.480 -0.1137 -1.1085 -1.1243
13143TIP3   OH260843   2.163   0.284  11.657 -0.3445  0.2557  0.1809
13143TIP3    H160844   2.069   0.300  11.648  0.2270  4.1178 -0.9552
13143TIP3    H260845   2.198   0.299  11.569  1.3107 -2.0729  0.3519
13144TIP3   OH260846   4.307   6.195   2.144 -0.0507  0.3135 -0.1032
13144TIP3    H160847   4.384   6.193   2.087  0.8855 -1.1174  1.1386
13144TIP3    H260848   4.254   6.267   2.110  2.2889  1.9931 -0.4287
13145TIP3   OH260849   5.917   4.772   4.179  0.0963  0.2097  0.0434
13145TIP3    H160850   5.909   4.837   4.249 -0.8622  0.9301 -0.6889
13145TIP3    H260851   5.998   4.796   4.134  0.1793  0.3884  0.2843
13146TIP3   OH260852   0.713   5.660  14.399  0.4158 -0.1798 -0.1170
13146TIP3    H160853   0.711   5.643  14.493  1.5041 -0.0250 -0.0517
13146TIP3    H260854   0.626   5.695  14.379 -0.3713 -1.6265  0.5406
13147TIP3   OH260855   5.063   3.303   1.743 -0.3282  0.0250 -0.3953
13147TIP3    H160856   5.040   3.265   1.658  1.1596  2.2367 -1.9046
13147TIP3    H260857   5.002   3.376   1.754 -0.0431  0.1937  0.0626
13148TIP3   OH260858   5.135   3.420   1.977  0.1045 -0.2277  0.2118
13148TIP3    H160859   5.223   3.455   1.962 -0.5504  0.6897 -1.9558
13148TIP3    H260860   5.118   3.365   1.900 -1.4937  0.2359  0.2008
13149TIP3   OH260861   0.297   6.078   4.574  0.4426 -0.5693 -0.0652
13149TIP3    H160862   0.226   6.117   4.624  0.6632 -0.6051  0.2768
13149TIP3    H260863   0.255   6.047   4.493  0.1269 -0.3286  0.0047
13150TIP3   OH260864   5.892   4.996  14.324  0.0506 -0.5619 -0.0615
13150TIP3    H160865   5.956   4.931  14.352  0.7101  0.2837  0.4212
13150TIP3    H260866   5.936   5.044  14.254  0.3601  0.7055  0.9708
13151TIP3   OH260867   0.528   4.368   0.139 -0.1763 -0.1360 -0.3814
13151TIP3    H160868   0.525   4.284   0.185 -2.9456  0.2100  0.2480
13151TIP3    H260869   0.499   4.348   0.050  1.7193 -0.2211 -1.0177
13152TIP3   OH260870   4.258   5.972   3.228  0.6740 -0.1924 -0.5023
13152TIP3    H160871   4.218   5.897   3.273  1.3687 -0.7468 -0.7876
13152TIP3    H260872   4.329   6.000   3.285  0.1519  0.5346 -0.1931
13153TIP3   OH260873   5.842   3.818   2.368 -0.1033  0.1546  0.0631
13153TIP3    H160874   5.751   3.796   2.346  0.1223  1.2506 -2.1442
13153TIP3    H260875   5.891   3.739   2.347 -0.1845  0.4947 -1.5060
13154TIP3   OH260876   0.478   3.898  12.532  0.2960  0.9043  0.4382
13154TIP3    H160877   0.463   3.899  12.437  0.4956  1.3905  0.4105
13154TIP3    H260878   0.542   3.967  12.547  1.2572 -0.0367  0.7645
13155TIP3   OH260879   6.169   6.707   6.367 -0.0808 -0.0970  0.0803
13155TIP3    H160880   6.089   6.721   6.317 -1.3598 -3.1814  1.0470
13155TIP3    H260881   6.211   6.632   6.325 -0.2261 -1.5741  2.3689
13156TIP3   OH260882   1.480   1.590  10.732 -0.2275  0.1424 -0.6116
13156TIP3    H160883   1.562   1.577  10.780 -1.4726  1.9446  2.2971
13156TIP3    H260884   1.465   1.507  10.687  0.8714 -2.0005  2.5892
13157TIP3   OH260885   3.300   4.090   4.805  0.4960  0.1472 -0.2904
13157TIP3    H160886   3.311   4.090   4.710 -1.6229 -0.9395 -0.6032
13157TIP3    H260887   3.259   4.175   4.825 -0.1220 -0.0884 -0.5273
13158TIP3   OH260888   5.887   5.445  16.740 -0.0762  1.0357  0.1354
13158TIP3    H160889   5.912   5.422  16.830 -1.2063 -2.3593 -0.2795
13158TIP3    H260890   5.807   5.496  16.750 -1.8622 -1.7409  1.1348
13159TIP3   OH260891   3.756   1.407  13.927  0.3979  0.2749 -0.6255
13159TIP3    H160892   3.737   1.313  13.930  0.2347  0.3090 -0.5349
13159TIP3    H260893   3.842   1.414  13.887  0.7737  0.0377  0.1295
13160TIP3   OH260894   6.585   4.855  15.468 -0.2360 -0.7619 -0.2022
13160TIP3    H160895   6.593   4.818  15.380  0.4556 -0.0703 -0.4476
13160TIP3    H260896   6.645   4.929  15.468  0.7738 -1.5258  1.2725
13161TIP3   OH260897   3.866   2.191   3.152  0.0365  0.4310  0.1109
13161TIP3    H160898   3.817   2.113   3.125  0.6409  0.2182 -0.3866
13161TIP3    H260899   3.828   2.214   3.237 -1.1370  0.4551 -0.3943
13162TIP3   OH260900   5.234   0.596   5.389  0.0339 -0.1699 -0.0075
13162TIP3    H160901   5.325   0.613   5.365  0.2815 -2.6989 -1.2846
13162TIP3    H260902   5.223   0.502   5.374 -3.3033  0.3311 -1.7342
13163TIP3   OH260903   4.002   0.807  14.150 -0.2047 -0.4706  0.4949
13163TIP3    H160904   4.046   0.781  14.069 -0.5680 -0.2746  0.2303
13163TIP3    H260905   4.064   0.784  14.219 -0.1212 -1.1515  0.2057
13164TIP3   OH260906   5.578   4.348  16.339 -0.7771 -0.1626  0.5183
13164TIP3    H160907   5.487   4.328  16.318 -0.0748 -3.0980 -0.2075
13164TIP3    H260908   5.614   4.266  16.372  1.5966  0.9295  0.8842
13165TIP3   OH260909   5.096   4.035  14.684 -0.0048 -0.0820  0.1117
13165TIP3    H160910   5.192   4.034  14.683  0.0451  1.3569  0.7281
13165TIP3    H260911   5.071   3.952  14.724  0.9728 -0.5238 -0.1559
13166TIP3   OH260912   6.073   1.290  16.327 -0.2309 -0.6624  0.6459
13166TIP3    H160913   6.142   1.315  16.388  2.4442 -3.2866 -0.9959
13166TIP3    H260914   6.102   1.325  16.243 -0.5543 -2.2857 -0.1787
13167TIP3   OH260915   6.642   0.556   0.661  0.9633  0.0623 -0.3859
13167TIP3    H160916   6.632   0.562   0.756 -0.3174  1.9647 -0.5621
13167TIP3    H260917   6.715   0.615   0.640  1.9156 -1.1364 -0.5189
13168TIP3   OH260918   5.999   4.676  11.421 -0.5338  0.4184 -0.3395
13168TIP3    H160919   6.043   4.751  11.383  1.5154  0.0055  1.0603
13168TIP3    H260920   6.000   4.692  11.516  2.3025 -2.4087  0.3011
13169TIP3   OH260921   1.425   3.005   4.431  0.4323 -0.3919  0.3753
13169TIP3    H160922   1.422   2.948   4.508 -1.3793 -1.0011 -0.1140
13169TIP3    H260923   1.490   2.965   4.374  1.1018 -0.4617  1.1720
13170TIP3   OH260924   3.956   1.803   1.906 -0.4435  0.0261 -0.1262
13170TIP3    H160925   3.945   1.833   1.997  0.7692  1.8397 -0.5220
13170TIP3    H260926   3.984   1.712   1.914 -0.0836  0.2430  1.3320
13171TIP3   OH260927   5.000   4.748  14.810 -0.2362  0.0541  0.2504
13171TIP3    H160928   4.993   4.828  14.862 -0.0393 -0.3824  0.9691
13171TIP3    H260929   4.974   4.678  14.870 -1.1776 -0.3516 -0.5980
13172TIP3   OH260930   0.641   4.107  12.571 -0.0200  0.1504  0.0918
13172TIP3    H160931   0.721   4.074  12.610 -1.3912 -1.8631  1.3748
13172TIP3    H260932   0.657   4.201  12.558  2.4580 -0.1777  0.3972
13173TIP3   OH260933   2.618   4.506  11.609 -0.3397 -0.2029  0.0211
13173TIP3    H160934   2.640   4.450  11.535  0.8206  0.3884 -0.1121
13173TIP3    H260935   2.575   4.582  11.570  1.3425  0.6779 -0.2256
13174TIP3   OH260936   0.284   5.717  15.645  0.2370 -0.4605 -0.3807
13174TIP3    H160937   0.229   5.711  15.567 -2.3695 -1.2934  1.3992
13174TIP3    H260938   0.250   5.792  15.693 -1.4065 -2.6229  2.1151
13175TIP3   OH260939   1.647   1.199   3.688  0.2902  0.2289  0.5065
13175TIP3    H160940   1.623   1.150   3.610 -0.5734  1.5584 -0.1204
13175TIP3    H260941   1.742   1.193   3.693  0.6424  2.0557 -2.0470
13176TIP3   OH260942   3.394   2.139  15.885  0.3548  0.1994  0.3009
13176TIP3    H160943   3.415   2.088  15.807  3.9274  0.2769  1.0263
13176TIP3    H260944   3.365   2.075  15.949 -2.8115  0.1551 -1.0147
13177TIP3   OH260945   5.108   5.850   1.286 -0.1369 -0.9329  0.5284
13177TIP3    H160946   5.182   5.794   1.311  0.2765 -1.3237 -1.4005
13177TIP3    H260947   5.096   5.909   1.360  0.9730 -2.0171  1.6168
13178TIP3   OH260948   0.300   2.315   5.032 -0.2000  0.5251 -0.1956
13178TIP3    H160949   0.307   2.334   5.125 -1.6182  2.5131 -0.4349
13178TIP3    H260950   0.330   2.395   4.988 -1.4231  0.3775 -1.3827
13179TIP3   OH260951   2.917   2.172  11.247  0.1512 -0.0408 -0.3262
13179TIP3    H160952   2.925   2.079  11.227 -0.3143 -0.1129 -0.2007
13179TIP3    H260953   2.932   2.216  11.164 -1.2059 -0.3066 -0.7408
13180TIP3   OH260954   4.591   3.827  11.136  0.5269 -0.2510  0.2797
13180TIP3    H160955   4.613   3.917  11.110 -2.3390  1.2706  2.5248
13180TIP3    H260956   4.547   3.790  11.060  1.4563  0.3316 -0.5661
13181TIP3   OH260957   3.477   5.319  11.454 -0.2968 -0.4419  0.2730
13181TIP3    H160958   3.384   5.335  11.436 -1.0175 -2.0165  2.1904
13181TIP3    H260959   3.486   5.224  11.450  0.8163 -0.4354  1.7878
13182TIP3   OH260960   2.298   3.431   3.977  0.1542 -0.1040 -0.2028
13182TIP3    H160961   2.332   3.360   3.922  0.6160  1.7227 -2.4297
13182TIP3    H260962   2.355   3.430   4.054  2.7888  0.2611 -1.9803
13183TIP3   OH260963   6.607   3.226   5.035 -0.5924  0.1638  0.5329
13183TIP3    H160964   6.638   3.136   5.047 -1.1165 -0.2594 -1.0842
13183TIP3    H260965   6.615   3.265   5.122 -0.8301 -1.5926  1.3929
13184TIP3   OH260966   1.822   1.935  11.717 -0.4547  0.2109  0.2203
13184TIP3    H160967   1.803   1.872  11.787  1.0162 -0.4364  0.0614
13184TIP3    H260968   1.749   1.926  11.656 -1.0914 -0.1569  1.0169
13185TIP3   OH260969   4.403   0.138  12.176 -0.2491  0.0393  0.1569
13185TIP3    H160970   4.451   0.220  12.166  0.6700 -0.5202 -0.1254
13185TIP3    H260971   4.403   0.121  12.270 -1.7764  1.1193  0.3953
13186TIP3   OH260972   2.939   3.888   2.397 -0.1357 -0.0276 -0.1536
13186TIP3    H160973   2.971   3.801   2.422 -2.7609 -0.2718  3.2052
13186TIP3    H260974   3.007   3.948   2.427  1.2227 -0.8048 -1.5429
13187TIP3   OH260975   0.500   5.280   2.983  0.0720  0.1040  0.7691
13187TIP3    H160976   0.467   5.340   3.050 -1.7927  0.6759 -0.5647
13187TIP3    H260977   0.507   5.333   2.904 -1.0685 -1.2544 -0.2996
13188TIP3   OH260978   6.359   2.907  11.863  0.3699  0.0612 -0.6534
13188TIP3    H160979   6.358   2.887  11.769  0.7389  2.1067 -1.1530
13188TIP3    H260980   6.267   2.900  11.889 -0.2714  2.4618 -1.9500
13189TIP3   OH260981   0.831   6.467   5.236 -1.0325  0.5374 -0.1530
13189TIP3    H160982   0.914   6.512   5.218 -1.8249  1.7101 -1.0456
13189TIP3    H260983   0.856   6.379   5.264  0.4438 -0.1294 -3.2420
13190TIP3   OH260984   4.183   3.488  15.442 -0.2435 -0.8086  0.0360
13190TIP3    H160985   4.124   3.546  15.393 -0.1269 -0.4653  0.2928
13190TIP3    H260986   4.192   3.530  15.527  1.4112 -0.1396 -0.4265
13191TIP3   OH260987   5.655   4.547   2.621 -0.3553 -0.0225  0.3273
13191TIP3    H160988   5.653   4.472   2.562 -0.0113 -0.1768  0.5083
13191TIP3    H260989   5.742   4.586   2.607 -0.0162 -0.4399  1.2013
13192TIP3   OH260990   3.697   4.484  12.487  0.1524  0.1444  0.7502
13192TIP3    H160991   3.694   4.454  12.396  0.0147 -0.1130  0.8400
13192TIP3    H260992   3.682   4.405  12.539 -1.4603  0.5426  0.9622
13193TIP3   OH260993   3.973   4.720  11.521 -0.2026 -0.6442 -0.3043
13193TIP3    H160994   3.988   4.737  11.428 -2.7044 -2.0737 -1.0742
13193TIP3    H260995   3.879   4.702  11.527 -0.3725  0.6052  2.7310
13194TIP3   OH260996   0.524   0.236   1.414 -0.0299  0.3414  0.0829
13194TIP3    H160997   0.585   0.240   1.340  0.1601  1.6442  0.2881
13194TIP3    H260998   0.457   0.173   1.387  1.1528 -0.7921 -0.3315
13195TIP3   OH260999   1.553   4.870  14.326  0.1621  0.4002  0.2600
13195TIP3    H161000   1.467   4.911  14.338 -1.0897 -1.8373 -0.5069
13195TIP3    H261001   1.536   4.795  14.268  2.4393 -0.7750  1.0010
13196TIP3   OH261002   2.531   2.978   2.736 -0.6629  0.4245  0.6652
13196TIP3    H161003   2.529   2.996   2.642  1.2441  0.6694  0.6229
13196TIP3    H261004   2.608   3.025   2.767 -1.0540  0.0476  2.3001
13197TIP3   OH261005   3.258   4.937   3.582  0.7236 -0.8068  0.3814
13197TIP3    H161006   3.277   4.844   3.568  0.5921 -1.0042  1.3937
13197TIP3    H261007   3.169   4.948   3.548 -0.2422 -1.6558  2.4217
13198TIP3   OH261008   1.479   1.267   2.449  0.1885  0.3491 -0.3220
13198TIP3    H161009   1.431   1.186   2.429 -0.3927  0.1648  1.6110
13198TIP3    H261010   1.434   1.335   2.399 -1.9182  0.1093  1.1427
13199TIP3   OH261011   2.561   4.909  15.142  0.1230 -0.2363  0.1322
13199TIP3    H161012   2.529   4.991  15.179 -0.4917  0.3343 -1.5500
13199TIP3    H261013   2.579   4.853  15.218  0.2706  1.3380  1.3004
13200TIP3   OH261014   2.825   0.751  11.243 -0.2982 -0.1259  0.4654
13200TIP3    H161015   2.862   0.829  11.284 -0.1767  0.0398  0.0432
13200TIP3    H261016   2.900   0.706  11.206 -0.5235  0.2640 -0.4851
13201TIP3   OH261017   3.841   1.164  13.017 -0.1619  0.3550  0.0252
13201TIP3    H161018   3.810   1.204  13.098 -0.2945  2.8753 -1.1805
13201TIP3    H261019   3.765   1.166  12.958  0.5032  0.6414 -0.8550
13202TIP3   OH261020   3.902   0.841  11.282 -0.1934 -0.4559  0.2530
13202TIP3    H161021   3.834   0.908  11.284 -1.3413 -1.5898  1.7393
13202TIP3    H261022   3.890   0.798  11.198 -1.2508 -0.5400  0.4260
13203TIP3   OH261023   3.027   5.517  17.003 -0.4922  0.2171 -0.2671
13203TIP3    H161024   3.110   5.472  16.992 -0.5754  0.5013 -2.5269
13203TIP3    H261025   3.034   5.595  16.948 -1.9613  0.6706  0.1269
13204TIP3   OH261026   1.828   6.018  13.471 -0.2432 -0.3927  0.4342
13204TIP3    H161027   1.746   6.067  13.467 -0.1205 -0.2495 -1.5161
13204TIP3    H261028   1.891   6.078  13.511 -0.6797  0.1633  0.3024
13205TIP3   OH261029   0.151   5.910  15.775 -0.1675  0.2009 -0.1116
13205TIP3    H161030   0.171   5.973  15.844 -0.6342 -0.3077  0.5008
13205TIP3    H261031   0.071   5.867  15.804 -0.2595 -0.1655 -0.8746
13206TIP3   OH261032   0.562   6.722   1.439 -0.6481 -0.5199  0.5430
13206TIP3    H161033   0.474   6.760   1.441 -0.8192 -0.9143  0.6929
13206TIP3    H261034   0.609   6.773   1.374 -0.9732 -0.2662  0.5050
13207TIP3   OH261035   5.275   5.274  16.937  0.1557  0.0275  0.3115
13207TIP3    H161036   5.300   5.245  17.025  1.1957  2.6606  0.9827
13207TIP3    H261037   5.191   5.231  16.921  0.4156 -1.3077  2.1639
13208TIP3   OH261038   2.733   0.614   2.557  0.0240  0.1131 -0.2441
13208TIP3    H161039   2.748   0.701   2.593  1.3716 -0.5662  0.9512
13208TIP3    H261040   2.816   0.590   2.516 -0.1399 -0.8219 -0.0561
13209TIP3   OH261041   5.037   5.173  12.921  0.1042  0.1525  0.2683
13209TIP3    H161042   4.973   5.135  12.861 -0.8752  0.2599  1.2118
13209TIP3    H261043   5.047   5.107  12.990  1.2705 -0.0026 -0.0300
13210TIP3   OH261044   1.632   0.921  16.124  0.0564  0.9740  0.9480
13210TIP3    H161045   1.601   1.011  16.130 -0.8041  0.6539  1.4772
13210TIP3    H261046   1.708   0.919  16.182  3.0765  2.5139 -2.5778
13211TIP3   OH261047   6.189   4.047   3.397 -0.4216 -0.6134 -0.4507
13211TIP3    H161048   6.280   4.066   3.374  0.2066 -1.5856  1.0306
13211TIP3    H261049   6.152   4.130   3.425  0.5398 -0.5011  0.5289
13212TIP3   OH261050   3.803   5.595  12.022  0.2445 -0.1411  0.4676
13212TIP3    H161051   3.883   5.630  12.059  0.8856  0.0480 -1.0125
13212TIP3    H261052   3.748   5.573  12.098  1.7217 -0.3696  1.4960
13213TIP3   OH261053   0.578   1.623   4.323  0.1324  0.4606 -0.6036
13213TIP3    H161054   0.580   1.552   4.258  0.4760  0.3604 -0.4872
13213TIP3    H261055   0.600   1.580   4.406 -2.5943  0.1333  0.0385
13214TIP3   OH261056   4.903   0.616   4.511  0.6311 -0.2751 -0.1886
13214TIP3    H161057   4.992   0.612   4.544 -0.0918  2.0580  2.4007
13214TIP3    H261058   4.893   0.705   4.477 -0.7315 -0.4716 -0.3809
13215TIP3   OH261059   0.919   3.844  13.597  0.3158 -0.8361  0.4526
13215TIP3    H161060   0.828   3.872  13.592  0.2597 -1.0572  0.2156
13215TIP3    H261061   0.968   3.924  13.611  0.1186 -0.6688  0.1865
13216TIP3   OH261062   0.344   0.618   2.423  0.4243  0.2717  0.0349
13216TIP3    H161063   0.297   0.652   2.500  1.0179  0.8248  0.1684
13216TIP3    H261064   0.279   0.567   2.375 -0.4047  1.2827  0.0434
13217TIP3   OH261065   0.610   4.028   5.538 -0.1392 -0.2397 -0.1878
13217TIP3    H161066   0.686   4.083   5.524 -0.1731 -0.7388 -2.8052
13217TIP3    H261067   0.548   4.054   5.470 -0.7990 -2.3539 -0.4857
13218TIP3   OH261068   4.741   2.433   1.918 -0.2508 -0.3268 -0.5766
13218TIP3    H161069   4.811   2.453   1.980 -0.7486  2.4976 -0.7985
13218TIP3    H261070   4.786   2.389   1.845  0.8607 -0.7504  0.3242
13219TIP3   OH261071   4.559   4.220  12.781  0.4618  0.2984  0.4386
13219TIP3    H161072   4.498   4.146  12.780 -1.0716  1.3145 -3.6090
13219TIP3    H261073   4.645   4.180  12.787 -0.4236 -1.5053  2.0305
13220TIP3   OH261074   4.911   0.955   2.252 -0.2981 -0.2460 -0.1613
13220TIP3    H161075   4.962   0.878   2.227 -0.5057  0.0612 -1.5572
13220TIP3    H261076   4.945   1.026   2.199 -0.9702  0.3605  0.1984
13221TIP3   OH261077   0.818   3.868   4.057 -0.6335  0.2242 -0.1228
13221TIP3    H161078   0.905   3.905   4.042  0.3599 -2.1086 -0.6260
13221TIP3    H261079   0.828   3.811   4.133 -1.5706 -0.4397 -0.4616
13222TIP3   OH261080   3.811   1.633  12.060 -0.0432 -0.0831  0.3116
13222TIP3    H161081   3.872   1.705  12.041 -1.9535  0.8913 -2.6731
13222TIP3    H261082   3.738   1.675  12.104  0.0103 -0.7085  1.0156
13223TIP3   OH261083   2.938   2.188   4.770 -0.7008 -0.1512  0.0526
13223TIP3    H161084   3.026   2.214   4.744 -0.3714 -1.2184  0.0598
13223TIP3    H261085   2.949   2.147   4.856 -1.0109 -1.4057 -0.4834
13224TIP3   OH261086   5.877   1.095  15.808  0.5911 -0.0941  0.3208
13224TIP3    H161087   5.844   1.164  15.749 -0.3787  0.3161  1.3000
13224TIP3    H261088   5.887   1.018  15.752  3.7397  1.3179 -1.2917
13225TIP3   OH261089   3.616   2.687   4.382  0.5116  0.4262 -0.0498
13225TIP3    H161090   3.681   2.713   4.316  0.5232  1.3585  0.3044
13225TIP3    H261091   3.643   2.600   4.410 -0.3970 -0.6963 -2.3973
13226TIP3   OH261092   5.119   4.217  16.114  0.0866 -0.1146 -0.1561
13226TIP3    H161093   5.041   4.265  16.086 -0.7144 -0.8339  0.7638
13226TIP3    H261094   5.191   4.257  16.065 -0.7132  1.2377 -0.2731
13227TIP3   OH261095   1.662   4.067   2.712  0.4590  0.2207  0.4404
13227TIP3    H161096   1.604   4.028   2.647 -0.0636  1.3939  0.1852
13227TIP3    H261097   1.683   4.154   2.677  1.4333  0.2661  1.0951
13228TIP3   OH261098   3.921   4.348  16.921  0.0165 -0.0228 -0.2884
13228TIP3    H161099   3.863   4.422  16.938  1.2975  0.7043  1.1615
13228TIP3    H261100   3.969   4.372  16.842 -0.6412 -0.0059 -0.6904
13229TIP3   OH261101   5.615   1.796   4.789 -0.3018 -0.3725  0.1732
13229TIP3    H161102   5.584   1.859   4.724 -1.9918 -1.9171 -0.6047
13229TIP3    H261103   5.709   1.809   4.792 -0.0713 -0.5113 -2.9483
13230TIP3   OH261104   6.384   0.535   3.919 -0.1324 -0.5107  0.2175
13230TIP3    H161105   6.468   0.581   3.915 -0.9489  1.0636  0.2181
13230TIP3    H261106   6.382   0.497   4.006  0.8601 -1.1414 -0.0182
13231TIP3   OH261107   3.466   2.209   2.805 -0.0197  0.0936  0.1249
13231TIP3    H161108   3.536   2.171   2.859  0.3675  0.8338  0.1562
13231TIP3    H261109   3.387   2.202   2.859  0.1951  0.0370  0.4327
13232TIP3   OH261110   5.784   3.967   5.875  0.3036  0.2185  0.0335
13232TIP3    H161111   5.699   3.982   5.834  0.8057  1.2058 -0.6918
13232TIP3    H261112   5.768   3.896   5.937 -1.4901  1.6323  1.3147
13233TIP3   OH261113   1.970   2.709  12.711 -0.2827 -0.2289  0.8276
13233TIP3    H161114   1.980   2.624  12.668 -1.1604  0.1703 -0.2138
13233TIP3    H261115   2.025   2.768  12.660 -1.2832  0.2360  0.2531
13234TIP3   OH261116   6.805   5.541   4.333  0.5036 -0.2463 -0.0307
13234TIP3    H161117   6.885   5.544   4.281  0.7012 -1.9535  0.1054
13234TIP3    H261118   6.819   5.469   4.394 -0.6156  0.2852  0.9059
13235TIP3   OH261119   6.289   1.142   1.162  0.8185 -0.0029 -0.2420
13235TIP3    H161120   6.321   1.153   1.072 -2.6840  0.6085 -1.5771
13235TIP3    H261121   6.200   1.108   1.151 -0.1247  1.1230  2.9849
13236TIP3   OH261122   2.342   2.018   2.849  0.1478  0.8997 -0.5205
13236TIP3    H161123   2.392   2.099   2.857  0.0907  0.9603 -0.7407
13236TIP3    H261124   2.343   1.999   2.755 -1.8531  1.9451 -0.8280
13237TIP3   OH261125   5.221   5.936  13.882 -0.1434  0.5568 -0.1749
13237TIP3    H161126   5.234   5.952  13.788 -0.7438 -0.1828 -0.3915
13237TIP3    H261127   5.276   6.002  13.925  1.3108 -0.0286 -1.0455
13238TIP3   OH261128   1.690   5.149  15.233  0.0327  0.2691 -0.3665
13238TIP3    H161129   1.647   5.232  15.211 -0.9042 -0.0919  0.0567
13238TIP3    H261130   1.691   5.101  15.151  3.6922  1.9589 -1.5593
13239TIP3   OH261131   1.103   6.544  10.660  0.1139 -0.5054  0.5273
13239TIP3    H161132   1.019   6.566  10.699  0.1386  0.3096  0.1422
13239TIP3    H261133   1.093   6.453  10.630 -1.7781  0.5339 -2.4718
13240TIP3   OH261134   1.290   2.158  14.665 -0.1072 -0.0708 -0.0188
13240TIP3    H161135   1.195   2.171  14.658 -0.0324  0.0946 -0.8398
13240TIP3    H261136   1.308   2.083  14.609  0.0936 -0.8893  1.1006
13241TIP3   OH261137   0.175   3.134   4.389  0.2202  0.2596 -0.4375
13241TIP3    H161138   0.235   3.118   4.316  0.4901 -0.6041 -0.0435
13241TIP3    H261139   0.130   3.051   4.401 -1.0203  0.8754 -0.6759
13242TIP3   OH261140   5.464   5.434  15.704  0.0556  0.4887  0.0991
13242TIP3    H161141   5.541   5.407  15.655 -0.0235  0.8586 -0.2398
13242TIP3    H261142   5.400   5.458  15.636 -1.2157 -2.0247  0.2846
13243TIP3   OH261143   1.393   0.519  16.406  0.1520 -0.2195 -0.2221
13243TIP3    H161144   1.318   0.507  16.348 -0.3369  1.3653  0.0302
13243TIP3    H261145   1.458   0.564  16.352  0.3861 -0.3521 -0.0510
13244TIP3   OH261146   1.474   0.636   0.436  0.3805 -0.6443  0.2168
13244TIP3    H161147   1.553   0.639   0.490 -0.0939 -0.9931  0.9508
13244TIP3    H261148   1.422   0.565   0.474 -1.7246  1.5910  1.8351
13245TIP3   OH261149   4.928   1.631   3.550  0.4164  0.1198 -0.2502
13245TIP3    H161150   4.981   1.598   3.477  0.9075 -0.5046  0.3707
13245TIP3    H261151   4.989   1.682   3.603  0.1448  0.2778 -0.0887
13246TIP3   OH261152   0.382   5.243  16.639  0.0883 -0.0397 -0.1690
13246TIP3    H161153   0.419   5.255  16.552  0.0499  0.5354 -0.1098
13246TIP3    H261154   0.457   5.232  16.697  0.3789  3.4899  0.3303
13247TIP3   OH261155   3.620   6.399  14.237 -0.0573  0.6710 -0.2443
13247TIP3    H161156   3.673   6.321  14.218  0.1580  0.5339  0.8550
13247TIP3    H261157   3.683   6.462  14.273 -0.7814  0.0524  2.3385
13248TIP3   OH261158   0.564   3.718   6.318  0.4852  0.2959 -0.0047
13248TIP3    H161159   0.519   3.801   6.336  0.5035  0.7445 -1.8548
13248TIP3    H261160   0.501   3.666   6.269  1.1259 -0.0189 -0.5158
13249TIP3   OH261161   0.661   2.291  11.140 -0.5975  0.0377 -0.1794
13249TIP3    H161162   0.603   2.222  11.109 -3.1219  0.6861  2.5876
13249TIP3    H261163   0.748   2.251  11.143 -1.1970 -1.6190 -2.5989
13250TIP3   OH261164   3.290   0.628   6.491  0.4824 -0.4059 -0.3051
13250TIP3    H161165   3.270   0.615   6.399  1.1749  0.5040 -0.6003
13250TIP3    H261166   3.233   0.700   6.518 -1.0254 -1.8188  0.4776
13251TIP3   OH261167   2.556   2.891  16.902  0.1393  0.2498  0.3105
13251TIP3    H161168   2.590   2.947  16.971  0.2854  1.2790 -0.5626
13251TIP3    H261169   2.574   2.802  16.931  0.8103  0.6868  1.2686
13252TIP3   OH261170   6.210   6.596  15.166  0.2785  0.0205 -0.6108
13252TIP3    H161171   6.200   6.502  15.155 -1.4149  0.2059 -0.9113
13252TIP3    H261172   6.214   6.631  15.077 -0.0679  0.3257 -0.5087
13253TIP3   OH261173   5.328   2.720   2.894  0.4568  0.8815 -0.0225
13253TIP3    H161174   5.304   2.640   2.848 -0.6713 -0.1298  2.1693
13253TIP3    H261175   5.319   2.789   2.829  1.1904 -0.7060 -1.8939
13254TIP3   OH261176   1.930   5.827  10.326  0.4378 -0.0364  0.0953
13254TIP3    H161177   1.839   5.853  10.311  1.4011  3.9575  0.1118
13254TIP3    H261178   1.950   5.767  10.254 -2.2956 -1.5521  0.4712
13255TIP3   OH261179   3.640   1.783  12.809 -0.3725 -0.2764 -0.1054
13255TIP3    H161180   3.608   1.716  12.748  0.5375  0.1158 -1.0529
13255TIP3    H261181   3.697   1.838  12.755  0.4994  0.0584  1.1350
13256TIP3   OH261182   2.500   0.237  15.513  0.0597  0.0666  0.1630
13256TIP3    H161183   2.526   0.283  15.592 -1.6695  3.3781 -0.9863
13256TIP3    H261184   2.565   0.262  15.447 -1.5229  2.0223 -0.7678
13257TIP3   OH261185   6.115   4.519   5.373  0.1446 -0.3740 -1.1165
13257TIP3    H161186   6.169   4.557   5.442  0.0853 -0.3498 -1.0836
13257TIP3    H261187   6.177   4.471   5.317  0.0917 -1.0461 -0.6084
13258TIP3   OH261188   6.323   2.730  15.846  0.2921  0.0565  0.5501
13258TIP3    H161189   6.396   2.680  15.809  0.1509 -0.2231  0.6437
13258TIP3    H261190   6.358   2.764  15.929  1.2865  2.3682 -0.7141
13259TIP3   OH261191   6.504   5.119   4.470 -0.1675 -0.2101  0.4102
13259TIP3    H161192   6.507   5.215   4.476 -2.5857 -0.1502  2.5260
13259TIP3    H261193   6.435   5.101   4.405  0.7211 -0.5524 -0.4568
13260TIP3   OH261194   2.870   6.701   3.711 -0.3077 -0.0187 -0.0975
13260TIP3    H161195   2.888   6.620   3.664  0.7458  0.0002  0.2335
13260TIP3    H261196   2.812   6.675   3.782 -0.0504 -0.4726 -0.0488
13261TIP3   OH261197   3.393   0.517  16.233 -0.9008 -0.3733 -0.0888
13261TIP3    H161198   3.434   0.539  16.317 -1.0964 -2.2348  0.5367
13261TIP3    H261199   3.464   0.525  16.169 -0.6363  0.6019  0.2996
13262TIP3   OH261200   0.293   0.528  13.057  0.3561  0.2080  0.0622
13262TIP3    H161201   0.238   0.468  13.108 -0.2826  0.4163 -0.3656
13262TIP3    H261202   0.382   0.504  13.079  0.0970 -0.4624  0.4001
13263TIP3   OH261203   2.185   1.538  11.884 -0.6216  0.2697  0.1728
13263TIP3    H161204   2.243   1.587  11.943 -0.8059  0.2452  0.3740
13263TIP3    H261205   2.109   1.595  11.872 -0.4677  0.3886 -0.2523
13264TIP3   OH261206   4.508   0.185  10.422  0.0637 -0.3718  0.2785
13264TIP3    H161207   4.593   0.228  10.426 -0.0179 -0.0450 -0.9924
13264TIP3    H261208   4.529   0.091  10.428  0.3809 -0.2552  1.3011
13265TIP3   OH261209   0.138   5.814  13.786  0.4836  0.0654  0.0077
13265TIP3    H161210   0.049   5.849  13.775  0.2335 -0.2569  0.9224
13265TIP3    H261211   0.189   5.858  13.718 -0.5246 -0.2881 -1.0258
13266TIP3   OH261212   2.040   5.971  14.563 -0.5847 -0.2225  0.2036
13266TIP3    H161213   2.077   5.927  14.486  0.6755  0.0911  0.6065
13266TIP3    H261214   2.111   5.972  14.627 -1.2126  0.6574  0.9136
13267TIP3   OH261215   2.025   5.298   6.011  0.0364  0.0674 -0.2043
13267TIP3    H161216   1.970   5.329   6.083 -0.5055 -0.0223 -0.5691
13267TIP3    H261217   2.012   5.363   5.942 -1.2779 -1.0475 -1.0578
13268TIP3   OH261218   1.243   1.630   2.230  0.0965  0.2316  0.1915
13268TIP3    H161219   1.194   1.696   2.183  0.7864  0.9891  0.5016
13268TIP3    H261220   1.316   1.678   2.270  0.5136 -0.6812  0.5704
13269TIP3   OH261221   5.594   1.647   3.881 -0.0027  0.0701 -0.5686
13269TIP3    H161222   5.554   1.643   3.968  0.4640 -1.5121 -0.3943
13269TIP3    H261223   5.599   1.556   3.853  1.8439  0.3582 -1.3355
13270TIP3   OH261224   6.668   5.488  15.753 -0.0338  0.6362  0.1917
13270TIP3    H161225   6.713   5.478  15.670  0.2815 -0.0710  0.4429
13270TIP3    H261226   6.727   5.541  15.806  0.3600 -0.0160  0.4091
13271TIP3   OH261227   6.403   2.477  12.326 -0.5336  0.0752 -0.4919
13271TIP3    H161228   6.488   2.438  12.308 -0.7578 -0.0335 -1.3726
13271TIP3    H261229   6.356   2.410  12.376  0.6391  0.9739  1.9925
13272TIP3   OH261230   2.509   2.358  11.241 -0.1233  0.4055  0.3414
13272TIP3    H161231   2.465   2.310  11.171 -0.8278  1.2334  0.1881
13272TIP3    H261232   2.438   2.400  11.289  0.4340  0.9017  0.7506
13273TIP3   OH261233   0.561   1.611  13.847 -0.0193  0.0650 -0.0586
13273TIP3    H161234   0.507   1.687  13.871 -1.6086 -1.3202  0.9987
13273TIP3    H261235   0.508   1.535  13.871  1.6237 -1.4051 -0.8277
13274TIP3   OH261236   3.307   1.892  11.775 -0.7069 -0.1851 -0.0850
13274TIP3    H161237   3.310   1.959  11.706 -0.6671 -1.6975 -1.6241
13274TIP3    H261238   3.394   1.896  11.815 -0.3962  0.0665 -0.7684
13275TIP3   OH261239   4.104   2.481   1.519  0.0986 -0.3486  0.0474
13275TIP3    H161240   4.036   2.430   1.562  1.0934 -1.0943  0.7833
13275TIP3    H261241   4.077   2.572   1.531 -0.1773 -0.5798  1.3593
13276TIP3   OH261242   5.587   2.763   1.870  0.0786  0.1243 -0.2212
13276TIP3    H161243   5.517   2.697   1.864 -1.2010  0.9335  3.4344
13276TIP3    H261244   5.548   2.842   1.833 -0.4744  0.2233  0.5512
13277TIP3   OH261245   2.811   3.625   3.507  0.2079  0.4170  0.0943
13277TIP3    H161246   2.900   3.650   3.532 -0.4236  0.7750  2.2316
13277TIP3    H261247   2.767   3.708   3.488  0.2376  0.2732 -0.5943
13278TIP3   OH261248   1.508   4.341  12.037 -0.2670 -0.1817 -0.5200
13278TIP3    H161249   1.456   4.282  12.092 -0.2251  1.1049  0.9355
13278TIP3    H261250   1.504   4.301  11.950 -0.9822 -1.8483  0.2329
13279TIP3   OH261251   0.692   2.922  10.789  0.3322 -0.1891 -0.0769
13279TIP3    H161252   0.776   2.877  10.791  0.4876  0.1154  0.1716
13279TIP3    H261253   0.638   2.868  10.730  1.0516  0.2484 -1.1576
13280TIP3   OH261254   6.670   5.561   1.954 -0.1045 -0.2596 -0.0575
13280TIP3    H161255   6.631   5.473   1.954 -1.2172  0.2222  0.0254
13280TIP3    H261256   6.609   5.614   1.903  1.2532  0.1808 -1.3114
13281TIP3   OH261257   3.707   2.467  15.736  0.4720 -0.4875 -0.8931
13281TIP3    H161258   3.619   2.463  15.772  0.4327  0.7651 -0.7957
13281TIP3    H261259   3.705   2.410  15.660 -0.0368 -1.5265 -0.1310
13282TIP3   OH261260   4.738   6.782  12.364  0.4226 -0.8447  0.0458
13282TIP3    H161261   4.657   6.745  12.399 -0.0117  0.9282  0.9959
13282TIP3    H261262   4.807   6.744  12.420 -0.0166 -0.2131  1.0366
13283TIP3   OH261263   5.508   1.929   1.491 -0.4389 -0.4514  0.0767
13283TIP3    H161264   5.450   1.863   1.452 -2.3907  0.5433  1.1409
13283TIP3    H261265   5.546   1.974   1.416 -1.0206 -1.1598 -0.6655
13284TIP3   OH261266   4.809   0.240  16.934  0.2854  0.5435 -0.5076
13284TIP3    H161267   4.738   0.179  16.954  1.0754 -0.3596 -0.3426
13284TIP3    H261268   4.781   0.285  16.854 -0.5163  0.2959 -0.3769
13285TIP3   OH261269   1.030   2.318   6.041  0.3699 -0.2638  0.0190
13285TIP3    H161270   0.980   2.394   6.068 -1.5392 -1.6069  0.4610
13285TIP3    H261271   0.965   2.250   6.024  2.0274 -2.5826  2.1034
13286TIP3   OH261272   4.023   1.492  11.684 -0.2498  0.1520  0.4039
13286TIP3    H161273   4.020   1.555  11.611  1.1992  1.9794  1.8371
13286TIP3    H261274   3.942   1.442  11.674 -0.9946  1.5565 -1.4040
13287TIP3   OH261275   4.737   2.051  16.371  0.2222 -0.1156  0.0185
13287TIP3    H161276   4.780   2.116  16.315  0.0387  0.2424  0.2919
13287TIP3    H261277   4.676   2.007  16.313 -0.9560  1.1760  0.2335
13288TIP3   OH261278   3.549   5.320  12.044  0.4569  0.5710  0.1541
13288TIP3    H161279   3.564   5.272  12.125 -0.5576  0.4912  0.3070
13288TIP3    H261280   3.585   5.263  11.976 -0.3474 -0.2329  0.3732
13289TIP3   OH261281   4.805   1.154  14.115 -0.0468  0.2806  0.6329
13289TIP3    H161282   4.899   1.170  14.112 -0.2062  1.5838  1.8361
13289TIP3    H261283   4.794   1.069  14.071  1.4603  0.9391 -1.1214
13290TIP3   OH261284   5.752   0.491  16.038  0.4119  0.5772 -0.0796
13290TIP3    H161285   5.750   0.583  16.063 -0.5352  1.1963 -2.2154
13290TIP3    H261286   5.837   0.480  15.995  0.0532  0.7640 -0.8468
13291TIP3   OH261287   2.412   6.447   2.370 -0.6736 -0.5559  0.0465
13291TIP3    H161288   2.338   6.468   2.427 -0.2730  0.2762  0.2737
13291TIP3    H261289   2.479   6.512   2.392 -0.7621  0.2818 -1.8606
13292TIP3   OH261290   0.017   1.507  13.331  0.8530 -0.6964 -0.0124
13292TIP3    H161291  -0.048   1.442  13.357  1.2036 -0.7910  0.6498
13292TIP3    H261292   0.057   1.470  13.253 -0.3826 -0.2981 -0.8701
13293TIP3   OH261293   5.405   6.370   2.121  0.1317 -0.0665  0.6012
13293TIP3    H161294   5.324   6.386   2.071 -0.0562 -1.6456  0.3325
13293TIP3    H261295   5.375   6.327   2.201  0.3965  2.7814  2.3512
13294TIP3   OH261296   5.467   4.071  13.132  0.5540 -0.4528 -0.2808
13294TIP3    H161297   5.497   3.996  13.184 -0.7460 -0.2023  0.9066
13294TIP3    H261298   5.468   4.039  13.042 -0.0525 -1.9478  0.1975
13295TIP3   OH261299   2.833   0.740   0.695 -0.0699 -0.1842 -0.0956
13295TIP3    H161300   2.782   0.695   0.628  0.8594 -0.1964 -0.8140
13295TIP3    H261301   2.889   0.672   0.732  0.1356  0.0355 -0.0043
13296TIP3   OH261302   1.787   1.938  12.579  0.4594 -0.1298  0.2829
13296TIP3    H161303   1.866   1.941  12.633  0.2829  2.4608  0.5081
13296TIP3    H261304   1.819   1.949  12.490  0.4574 -0.4731  0.2400
13297TIP3   OH261305   2.505   3.964   1.452 -0.3722  0.4469 -0.0277
13297TIP3    H161306   2.585   3.912   1.444  0.0014  1.0816 -0.4793
13297TIP3    H261307   2.446   3.909   1.503  0.3552 -0.0275  0.3206
13298TIP3   OH261308   0.403   3.802  16.553  0.0275 -0.0608  0.2274
13298TIP3    H161309   0.463   3.766  16.619  0.3441  1.6215  0.8964
13298TIP3    H261310   0.432   3.762  16.471  3.0439  1.7417  0.2823
13299TIP3   OH261311   5.530   6.172  15.308 -0.1661 -0.0119 -0.5595
13299TIP3    H161312   5.516   6.102  15.371 -2.8536  0.5600 -0.4094
13299TIP3    H261313   5.592   6.231  15.351  0.0337 -0.9246  0.4380
13300TIP3   OH261314   4.968   3.080   2.102 -0.0487  0.1258  0.2203
13300TIP3    H161315   4.949   3.086   2.196  0.4784 -1.1060  0.4253
13300TIP3    H261316   5.039   3.142   2.088 -0.6746  0.9140  0.4678
13301TIP3   OH261317   4.333   3.139  15.735 -0.3386  0.2952  0.1290
13301TIP3    H161318   4.326   3.080  15.810 -1.4775 -1.0326 -0.9644
13301TIP3    H261319   4.345   3.226  15.774  0.4512 -0.5269  1.7999
13302TIP3   OH261320   2.944   5.900   1.261 -0.3124  0.0067 -0.0838
13302TIP3    H161321   2.899   5.980   1.236 -0.8236 -0.3790 -0.4165
13302TIP3    H261322   2.968   5.859   1.178 -0.9167 -0.6628  0.0561
13303TIP3   OH261323   4.275   5.605  14.685 -0.7024  0.3106  0.1750
13303TIP3    H161324   4.283   5.699  14.671  1.7594 -0.0109 -1.2039
13303TIP3    H261325   4.197   5.580  14.635 -1.5439  1.6212  0.7912
13304TIP3   OH261326   3.975   6.076  13.383  0.2035 -0.1562  0.0559
13304TIP3    H161327   3.932   6.079  13.298 -0.3048  1.8897  0.3142
13304TIP3    H261328   3.993   6.168  13.404  0.5047 -0.6098  2.0543
13305TIP3   OH261329   3.622   0.053   4.958  0.3196  0.2668  0.1363
13305TIP3    H161330   3.645   0.027   5.047 -1.1205 -0.8746  0.2176
13305TIP3    H261331   3.610   0.148   4.964  0.8425  0.2946  1.0045
13306TIP3   OH261332   1.537   6.042  10.582  0.5618  0.6429 -0.1795
13306TIP3    H161333   1.478   5.986  10.532 -1.1014  1.0455  1.2145
13306TIP3    H261334   1.553   6.118  10.525 -0.0275  0.3821 -0.7008
13307TIP3   OH261335   4.525   4.016  13.918  0.6839 -0.4571 -0.7089
13307TIP3    H161336   4.501   4.046  14.006  1.8921 -0.1265 -0.4752
13307TIP3    H261337   4.578   4.087  13.882 -1.1837  0.1702 -2.3932
13308TIP3   OH261338   1.615   1.017   2.064 -0.2843 -0.2137  0.7056
13308TIP3    H161339   1.579   1.065   1.989 -0.9787 -2.5126 -0.5228
13308TIP3    H261340   1.709   1.036   2.062 -0.2951 -0.2420 -0.7610
13309TIP3   OH261341   0.262   2.043  15.973 -0.5043  0.6166  0.6177
13309TIP3    H161342   0.197   2.009  16.035 -1.2644 -0.1242 -0.5491
13309TIP3    H261343   0.210   2.079  15.902  0.3631  0.3776 -0.1489
13310TIP3   OH261344   4.366   6.456   3.511  0.3003 -0.2744 -0.0198
13310TIP3    H161345   4.278   6.440   3.546  0.1984 -1.7735 -0.9081
13310TIP3    H261346   4.401   6.526   3.566 -1.2383 -0.0353  0.7016
13311TIP3   OH261347   3.576   1.048   0.248 -0.6812 -0.6797 -0.4338
13311TIP3    H161348   3.558   1.076   0.158  0.1073 -1.4704 -0.8433
13311TIP3    H261349   3.532   0.964   0.257  1.4056 -1.9006 -0.9606
13312TIP3   OH261350   1.859   1.459   4.281  0.4641 -0.5000  0.4796
13312TIP3    H161351   1.854   1.522   4.209 -0.0078  0.3730  1.2554
13312TIP3    H261352   1.925   1.396   4.253 -0.3470 -0.6999 -1.1194
13313TIP3   OH261353   4.803   2.699   0.641  0.4732  0.5487  0.1831
13313TIP3    H161354   4.720   2.731   0.604  1.7807 -0.1447 -3.8982
13313TIP3    H261355   4.791   2.604   0.646  0.8628  0.4943  0.0599
13314TIP3   OH261356   5.084   0.062   2.026  0.7256  0.0241  0.3628
13314TIP3    H161357   5.074   0.112   1.945  0.2151  0.7618  0.8707
13314TIP3    H261358   5.025   0.105   2.088 -1.1099 -2.2925  0.3328
13315TIP3   OH261359   1.859   1.564   3.479  0.2746 -0.2632  0.4931
13315TIP3    H161360   1.902   1.480   3.462 -0.3304 -0.7285  1.1775
13315TIP3    H261361   1.772   1.555   3.439  0.6004  0.4688 -0.4179
13316TIP3   OH261362   3.053   3.281  16.908  0.1701 -0.2150 -0.3228
13316TIP3    H161363   3.129   3.274  16.966  0.3293  3.6690  0.1875
13316TIP3    H261364   3.081   3.236  16.828  2.2240 -0.6613  0.5734
13317TIP3   OH261365   1.659   2.718   1.645  0.0464 -0.1503 -0.0434
13317TIP3    H161366   1.734   2.716   1.705  0.3650 -0.2238 -0.4460
13317TIP3    H261367   1.693   2.683   1.563 -0.9296 -2.1824  0.3549
13318TIP3   OH261368   1.090   2.742  11.777  0.0383 -0.3582  0.0783
13318TIP3    H161369   1.159   2.738  11.843 -0.1718  0.0882  0.3304
13318TIP3    H261370   1.088   2.655  11.739  0.3500 -0.5401  0.4740
13319TIP3   OH261371   5.348   6.181   4.901 -0.1603 -0.4319  0.0608
13319TIP3    H161372   5.433   6.205   4.865 -0.7124 -0.1480 -1.1281
13319TIP3    H261373   5.318   6.259   4.947  0.2451 -0.5576  0.5445
13320TIP3   OH261374   0.992   4.658  12.162 -0.4302  0.2542  0.8111
13320TIP3    H161375   0.966   4.747  12.188  1.3474  1.2089 -0.4436
13320TIP3    H261376   1.072   4.641  12.212 -1.0757 -0.9044  1.4827
13321TIP3   OH261377   2.694   0.238   6.159 -0.2304 -0.1650  0.4077
13321TIP3    H161378   2.778   0.273   6.189  0.2917  0.8736 -1.9956
13321TIP3    H261379   2.629   0.300   6.192  0.1855  0.2261  0.5022
13322TIP3   OH261380   6.248   3.985   1.261  0.4983  0.6691  0.1424
13322TIP3    H161381   6.186   3.911   1.262  2.9139 -1.5130  0.1267
13322TIP3    H261382   6.203   4.055   1.308 -1.5803 -1.1287  0.9995
13323TIP3   OH261383   0.299   0.878  12.240  0.9724  0.6577 -0.8851
13323TIP3    H161384   0.351   0.852  12.164  2.2841  2.1520 -0.5288
13323TIP3    H261385   0.238   0.944  12.206  2.4757  2.3526 -0.4450
13324TIP3   OH261386   2.219   5.779   3.729 -0.3103  0.4092  0.1955
13324TIP3    H161387   2.270   5.776   3.649  0.8164  2.9430  0.7467
13324TIP3    H261388   2.129   5.758   3.702  0.3318 -0.4136 -1.3894
13325TIP3   OH261389   4.072   0.013   2.900  0.4298 -0.1940 -0.4355
13325TIP3    H161390   4.155  -0.023   2.869  0.3826 -0.8570  0.1831
13325TIP3    H261391   4.096   0.093   2.947  0.7764 -0.6540  0.1855
13326TIP3   OH261392   5.693   0.281  15.677  0.2970  0.0182  0.0961
13326TIP3    H161393   5.763   0.215  15.671 -0.9484 -1.4154  0.5936
13326TIP3    H261394   5.671   0.283  15.770 -0.2838  0.4899 -0.0473
13327TIP3   OH261395   1.024   5.166   3.729 -0.2955  0.3983  0.0934
13327TIP3    H161396   1.079   5.210   3.665  2.5464 -1.8646  0.7548
13327TIP3    H261397   0.969   5.107   3.677 -0.2961  0.8667 -0.4408
13328TIP3   OH261398   6.023   1.947  16.135  0.6273  0.1476  0.0330
13328TIP3    H161399   5.943   1.971  16.089  0.7670 -0.0209 -0.2999
13328TIP3    H261400   6.034   1.854  16.119  1.1695  0.2714 -0.3649
13329TIP3   OH261401   6.381   3.712   1.442 -0.6678  0.5452  0.7805
13329TIP3    H161402   6.398   3.650   1.371  0.7192  1.0779  0.6332
13329TIP3    H261403   6.287   3.729   1.436 -1.2039 -1.9047  1.1355
13330TIP3   OH261404   1.047   2.964   3.828 -0.6098  0.2426  0.2156
13330TIP3    H161405   1.105   2.980   3.902 -1.4979 -0.8155  1.1753
13330TIP3    H261406   0.981   3.033   3.833 -0.2183  0.6452 -0.0795
13331TIP3   OH261407   1.667   6.365   3.117 -0.7058 -0.3704 -0.3480
13331TIP3    H161408   1.676   6.317   3.035 -1.5015 -2.7724  0.8804
13331TIP3    H261409   1.587   6.416   3.107 -0.8825 -0.7723 -1.0252
13332TIP3   OH261410   0.619   0.821   0.901  0.0135 -0.4127 -0.3878
13332TIP3    H161411   0.566   0.823   0.981  1.6085  1.1831  0.7234
13332TIP3    H261412   0.594   0.899   0.853 -1.2479 -1.5913 -1.7239
13333TIP3   OH261413   4.387   6.504  15.809  0.0947 -0.1625 -0.8718
13333TIP3    H161414   4.384   6.461  15.724  0.1275 -0.0894 -0.9107
13333TIP3    H261415   4.337   6.447  15.867  2.5046 -1.7872 -0.2303
13334TIP3   OH261416   1.173   0.914   3.761 -0.2423 -0.4345  0.0314
13334TIP3    H161417   1.136   0.860   3.692 -0.0257  0.6046 -0.9313
13334TIP3    H261418   1.181   1.001   3.722  2.6038 -0.4396  0.3800
13335TIP3   OH261419   0.451   0.415   3.658 -0.4884  0.2050 -0.1266
13335TIP3    H161420   0.451   0.433   3.752 -0.2177 -1.8519  0.3305
13335TIP3    H261421   0.359   0.400   3.636 -0.3793 -1.3300  0.3065
13336TIP3   OH261422   4.829   4.679  15.887  0.0821  0.3054  0.2763
13336TIP3    H161423   4.813   4.772  15.903 -1.8439 -0.0970  0.8374
13336TIP3    H261424   4.907   4.660  15.940  0.8521  1.7047 -0.2904
13337TIP3   OH261425   2.361   4.053   3.818 -0.2753 -0.1021  0.2022
13337TIP3    H161426   2.285   3.997   3.799  0.1552 -0.1994 -1.3816
13337TIP3    H261427   2.383   4.093   3.734  0.8645  0.6550  0.8318
13338TIP3   OH261428   3.297   4.684  13.455 -0.0729  0.7885 -0.1888
13338TIP3    H161429   3.291   4.770  13.497 -2.0113 -0.1922  1.7944
13338TIP3    H261430   3.208   4.648  13.462  0.6829 -1.3760 -0.9280
13339TIP3   OH261431   0.208   6.467  10.624 -0.3614 -0.1287 -0.1581
13339TIP3    H161432   0.171   6.447  10.710  2.1495 -0.5717  0.8969
13339TIP3    H261433   0.183   6.393  10.569  0.8015 -1.5309  1.1291
13340TIP3   OH261434   1.242   6.252   4.038 -0.2233 -0.2254 -0.2249
13340TIP3    H161435   1.276   6.205   3.962 -0.0397 -2.0163  0.9058
13340TIP3    H261436   1.160   6.206   4.059 -0.0120 -0.0899  0.9519
13341TIP3   OH261437   3.759   6.417   4.410  0.5729  0.1387 -0.0844
13341TIP3    H161438   3.797   6.483   4.469  0.6211 -1.5997  1.9735
13341TIP3    H261439   3.832   6.361   4.386  0.2965  0.0347 -0.6972
13342TIP3   OH261440   1.889   2.478   6.183  0.2472 -0.1081 -0.1152
13342TIP3    H161441   1.850   2.394   6.159  1.7784 -0.6055 -0.9708
13342TIP3    H261442   1.981   2.469   6.160  1.2780  0.4594  3.2369
13343TIP3   OH261443   1.712   6.317  15.519 -0.1055  0.5936  0.2279
13343TIP3    H161444   1.682   6.399  15.478  2.5686  1.2072 -0.7304
13343TIP3    H261445   1.734   6.342  15.609 -3.1802 -0.0866  1.2624
13344TIP3   OH261446   5.522   3.391   4.922  0.0265  0.8734 -0.2512
13344TIP3    H161447   5.556   3.344   4.846 -0.3685  1.5687 -0.8819
13344TIP3    H261448   5.427   3.392   4.909 -0.2427 -0.7197  1.2880
13345TIP3   OH261449   6.318   5.251   0.370 -0.2026  0.1529 -0.6160
13345TIP3    H161450   6.332   5.268   0.277 -0.8495 -1.3739 -1.0091
13345TIP3    H261451   6.394   5.199   0.397 -0.3866 -0.0465 -0.4762
13346TIP3   OH261452   6.676   5.665  14.232 -0.0015  0.1979  0.6143
13346TIP3    H161453   6.715   5.637  14.315 -0.8267 -0.9805  0.6424
13346TIP3    H261454   6.745   5.653  14.167  0.7613  1.4565  1.1595
13347TIP3   OH261455   5.029   6.163  12.884  0.4777  0.0105  0.3192
13347TIP3    H161456   5.006   6.076  12.851  0.7585 -0.3913  1.1367
13347TIP3    H261457   4.967   6.222  12.842 -1.5920 -0.9235  1.8555
13348TIP3   OH261458   2.099   5.229   3.767 -0.4773  0.5589  0.0740
13348TIP3    H161459   2.073   5.315   3.734  1.2860  1.8006  1.7089
13348TIP3    H261460   2.082   5.234   3.861  1.6941 -0.0161  0.5475
13349TIP3   OH261461   1.540   5.129   1.798  0.4120  0.0948 -0.3944
13349TIP3    H161462   1.526   5.174   1.881 -0.2156 -0.6126 -0.1090
13349TIP3    H261463   1.628   5.154   1.772  1.0159 -0.5004  0.9987
13350TIP3   OH261464   0.481   3.644   3.426  0.1787 -0.3984  0.2544
13350TIP3    H161465   0.544   3.703   3.468  0.1639 -1.3083  1.6587
13350TIP3    H261466   0.404   3.649   3.482 -0.7779  0.2083 -1.0893
13351TIP3   OH261467   3.903   5.475  11.764  0.0271  0.2737 -0.1626
13351TIP3    H161468   3.916   5.381  11.779  1.7256  0.3092 -1.1518
13351TIP3    H261469   3.878   5.510  11.850 -0.9808 -1.1145  0.1426
13352TIP3   OH261470   2.571   0.568  12.975 -0.9851  0.6228 -0.8550
13352TIP3    H161471   2.500   0.613  12.928 -0.3813  2.0430 -0.4720
13352TIP3    H261472   2.600   0.499  12.915 -2.0296  0.6509 -1.4170
13353TIP3   OH261473   3.564   2.246  11.696 -0.0655  0.0619  0.2683
13353TIP3    H161474   3.591   2.156  11.709  0.4011  0.3783  1.7105
13353TIP3    H261475   3.469   2.245  11.709 -0.1237 -0.2903 -0.1778
13354TIP3   OH261476   6.624   2.240   0.579  0.0937 -0.1265  0.2186
13354TIP3    H161477   6.616   2.276   0.491 -0.7499 -2.1145 -0.5918
13354TIP3    H261478   6.554   2.281   0.629  1.2687  1.8617  0.3299
13355TIP3   OH261479   2.369   6.171   2.509 -0.7255  0.1886 -0.1796
13355TIP3    H161480   2.295   6.178   2.570 -1.2436 -2.8192 -0.2932
13355TIP3    H261481   2.373   6.256   2.466 -2.5707  1.2482  1.5586
13356TIP3   OH261482   3.977   0.662  16.487 -0.1524  0.0408 -0.1017
13356TIP3    H161483   4.007   0.642  16.576 -1.5477 -0.5252  0.2796
13356TIP3    H261484   4.056   0.689  16.440  0.7131 -0.2221  1.1458
13357TIP3   OH261485   0.271   0.218   0.368  0.1547  0.6305  0.3530
13357TIP3    H161486   0.234   0.195   0.283  0.5993 -1.0612  0.5691
13357TIP3    H261487   0.352   0.265   0.347 -0.1885  1.0196 -0.1334
13358TIP3   OH261488   4.228   2.356  13.452  0.6567 -1.0164  0.7238
13358TIP3    H161489   4.272   2.279  13.488  1.8122 -0.2924  0.9260
13358TIP3    H261490   4.248   2.426  13.513 -2.0172 -0.9163  1.5979
13359TIP3   OH261491   0.681   4.462  15.725  0.4551 -0.2894  0.0537
13359TIP3    H161492   0.684   4.504  15.811  0.7039 -0.1886 -0.0022
13359TIP3    H261493   0.742   4.512  15.672 -0.6435  0.4519 -0.5487
13360TIP3   OH261494   1.345   2.101   2.229  0.8244  0.4942 -0.9856
13360TIP3    H161495   1.270   2.157   2.208  1.4450  1.6508 -0.2171
13360TIP3    H261496   1.320   2.058   2.311  0.5088 -0.0812 -1.3737
13361TIP3   OH261497   4.400   4.376   1.096 -0.0033 -0.7139  0.0803
13361TIP3    H161498   4.493   4.367   1.073  0.1757 -0.5216  0.7183
13361TIP3    H261499   4.396   4.355   1.189 -0.6852 -1.2474 -0.0639
13362TIP3   OH261500   5.121   4.987  15.206  0.4059  0.0492 -0.0830
13362TIP3    H161501   5.118   5.083  15.207 -0.9385  0.0245 -0.2021
13362TIP3    H261502   5.115   4.962  15.298 -0.3478  0.0634 -0.1256
13363TIP3   OH261503   4.447   2.331  14.392 -0.2497  0.0100 -0.3249
13363TIP3    H161504   4.461   2.384  14.314  1.0919 -0.8057 -0.6660
13363TIP3    H261505   4.535   2.306  14.421 -0.7896 -3.4031 -1.1819
13364TIP3   OH261506   1.473   1.219  15.946 -0.1536  0.2138 -0.2396
13364TIP3    H161507   1.538   1.168  15.897  0.2555 -0.3054  0.8136
13364TIP3    H261508   1.516   1.238  16.029 -1.1529  0.3341  0.2608
13365TIP3   OH261509   1.155   1.914   5.572  0.2212 -0.4842  0.1560
13365TIP3    H161510   1.144   2.004   5.603 -1.1040 -1.1462  1.7277
13365TIP3    H261511   1.249   1.907   5.551  0.2733  1.3500 -0.3781
13366TIP3   OH261512   3.412   4.529   4.831 -0.0359 -0.1210 -0.2289
13366TIP3    H161513   3.484   4.491   4.881 -0.2878 -0.2566  0.0281
13366TIP3    H261514   3.454   4.600   4.781  0.2588 -0.1311 -0.0042
13367TIP3   OH261515   0.063   6.687   0.962 -0.2283  0.2415  0.1310
13367TIP3    H161516   0.156   6.668   0.969 -0.5236 -1.0219  0.8338
13367TIP3    H261517   0.046   6.750   1.032  0.3647  1.6594 -0.9531
13368TIP3   OH261518   5.807   4.511  10.651  0.3711 -0.5067 -0.2236
13368TIP3    H161519   5.741   4.443  10.640  0.8592 -1.6869  2.8985
13368TIP3    H261520   5.891   4.464  10.642  0.7081 -0.3027  1.4387
13369TIP3   OH261521   2.270   3.652  14.490 -0.1736 -0.0351  0.1441
13369TIP3    H161522   2.311   3.718  14.434  1.2608  0.3988  1.6007
13369TIP3    H261523   2.188   3.691  14.518 -0.1341  0.4171 -0.3601
13370TIP3   OH261524   5.480   2.940   0.023 -0.1838 -0.3095  0.7450
13370TIP3    H161525   5.528   2.884   0.085  0.5922 -1.8253 -1.0981
13370TIP3    H261526   5.407   2.885  -0.007 -0.3669  0.2656  0.1174
13371TIP3   OH261527   4.885   1.065   5.142  0.0573 -0.4130  0.4435
13371TIP3    H161528   4.920   1.018   5.217 -0.2484 -2.7721 -0.7769
13371TIP3    H261529   4.822   1.004   5.103 -1.7400  1.7680 -0.2365
13372TIP3   OH261530   2.052   1.516   0.437  0.4095 -0.0397  0.2781
13372TIP3    H161531   2.040   1.559   0.521  1.4123  2.0260 -0.5569
13372TIP3    H261532   1.968   1.473   0.420  0.4404 -1.1579  2.6314
13373TIP3   OH261533   2.195   4.762   2.668 -0.0229 -0.2182  0.5748
13373TIP3    H161534   2.214   4.686   2.613 -0.3504 -0.3064  0.5822
13373TIP3    H261535   2.210   4.730   2.757 -0.5847 -0.4080  0.6079
13374TIP3   OH261536   1.316   0.855   5.039 -0.1214 -0.6373  0.1926
13374TIP3    H161537   1.392   0.838   4.983  0.2520 -1.6290  0.9665
13374TIP3    H261538   1.242   0.857   4.979  0.4149 -0.4947 -0.4743
13375TIP3   OH261539   1.720   4.614   5.521  0.6667  0.0443  0.1409
13375TIP3    H161540   1.714   4.707   5.499  0.0593  0.1570  0.7624
13375TIP3    H261541   1.707   4.570   5.437  1.0762  0.5179 -0.1788
13376TIP3   OH261542   5.099   0.031  11.451 -0.4673 -0.0016  0.1848
13376TIP3    H161543   5.140  -0.054  11.466 -0.1829  0.2793  1.0697
13376TIP3    H261544   5.044   0.018  11.374  0.8889 -0.5231 -0.7301
13377TIP3   OH261545   6.742   0.042  15.419 -0.0684  0.6110 -0.2133
13377TIP3    H161546   6.830   0.026  15.385  0.5834  0.2100  1.5324
13377TIP3    H261547   6.752   0.119  15.476 -0.5722 -0.1369  0.9204
13378TIP3   OH261548   3.922   3.383  16.069  0.4657  0.1477  0.0501
13378TIP3    H161549   3.859   3.453  16.087 -1.0424 -0.7149 -1.6670
13378TIP3    H261550   3.938   3.343  16.155  1.7274  2.7987  1.1747
13379TIP3   OH261551   5.765   0.663   2.582 -0.0351  0.5380 -0.0052
13379TIP3    H161552   5.710   0.739   2.561  0.7599  1.1738  0.1196
13379TIP3    H261553   5.799   0.683   2.670  1.8267  1.0774 -0.7758
13380TIP3   OH261554   2.172   0.744  15.835 -0.0378 -0.0108 -0.4459
13380TIP3    H161555   2.150   0.676  15.898 -1.7358 -0.6882 -1.6974
13380TIP3    H261556   2.129   0.823  15.868  1.3094  0.3357  0.6047
13381TIP3   OH261557   5.885   3.124   1.929 -0.2178 -0.8697 -0.2462
13381TIP3    H161558   5.978   3.103   1.934 -0.1357 -0.2188  1.6577
13381TIP3    H261559   5.845   3.070   1.998 -1.4101 -1.8337 -1.6410
13382TIP3   OH261560   6.489   4.057   3.401 -0.1259  0.0246  0.0257
13382TIP3    H161561   6.564   4.017   3.444  0.9725  1.1216 -0.7815
13382TIP3    H261562   6.480   4.143   3.442  0.7192  0.9458 -1.5773
13383TIP3   OH261563   5.615   0.224   4.813 -0.1471  0.5625 -0.3775
13383TIP3    H161564   5.671   0.156   4.775 -2.1753 -0.4515 -1.6748
13383TIP3    H261565   5.660   0.306   4.791 -0.5528 -0.0304 -4.0168
13384TIP3   OH261566   1.849   0.343  14.870 -0.1283  0.5765 -0.0383
13384TIP3    H161567   1.843   0.294  14.952  2.0637  0.5985  0.1706
13384TIP3    H261568   1.763   0.331  14.829 -0.9475 -0.2119  1.8008
13385TIP3   OH261569   6.087   6.198  10.810 -0.0354 -0.3459 -0.5358
13385TIP3    H161570   5.995   6.224  10.800  0.1490  1.3003  1.4184
13385TIP3    H261571   6.134   6.252  10.747  0.1738  3.5311  2.5010
13386TIP3   OH261572   6.728   4.171   6.759 -0.0353  0.2138  0.1813
13386TIP3    H161573   6.823   4.179   6.772  0.2272 -0.9789 -0.7798
13386TIP3    H261574   6.700   4.261   6.741  1.4845  0.2544 -2.7130
13387TIP3   OH261575   5.703   6.513   1.643  0.2536 -0.2951  0.3816
13387TIP3    H161576   5.732   6.577   1.709  0.4978 -1.2096  1.1888
13387TIP3    H261577   5.609   6.529   1.634  0.0170 -0.8087  1.7149
13388TIP3   OH261578   4.402   2.499   1.641 -0.2286 -0.1065  0.8107
13388TIP3    H161579   4.323   2.551   1.627 -0.2987 -0.7581 -1.7689
13388TIP3    H261580   4.458   2.553   1.695 -0.0743  2.9740 -2.1158
13389TIP3   OH261581   0.607   1.651   0.755 -0.3336 -0.0940 -0.2589
13389TIP3    H161582   0.535   1.681   0.699  0.4959  0.1344 -1.2275
13389TIP3    H261583   0.568   1.646   0.842 -1.2610  0.9901 -0.5815
13390TIP3   OH261584   4.203   1.533   3.182  0.2549 -0.1156  0.0284
13390TIP3    H161585   4.215   1.600   3.249 -3.0320  1.9795 -1.2148
13390TIP3    H261586   4.225   1.451   3.226  1.6170  1.4595  2.5349
13391TIP3   OH261587   1.959   1.415  15.371 -0.3191 -0.2787  0.0844
13391TIP3    H161588   1.877   1.461  15.387 -0.5764 -1.2569  1.8410
13391TIP3    H261589   2.025   1.465  15.419 -0.3405 -0.8190  0.7085
13392TIP3   OH261590   1.929   1.897  13.687  0.2737  0.3725  1.1660
13392TIP3    H161591   1.868   1.829  13.659 -0.5642  0.7114  2.0987
13392TIP3    H261592   1.959   1.867  13.774  2.6043 -0.5376  0.1375
13393TIP3   OH261593   3.901   6.398   4.910  0.0440 -0.4467 -0.4346
13393TIP3    H161594   3.895   6.302   4.910  1.5902 -0.5783 -1.1644
13393TIP3    H261595   3.949   6.419   4.990 -2.1396 -0.0867  0.8422
13394TIP3   OH261596   3.980   2.566  14.032  0.3325  0.1869 -0.4564
13394TIP3    H161597   3.887   2.584  14.019  0.3703  1.0676  0.4382
13394TIP3    H261598   4.002   2.610  14.113  1.1809 -1.3143  0.1657
13395TIP3   OH261599   5.432   6.353  15.993  0.2579  0.1329 -0.3982
13395TIP3    H161600   5.442   6.435  15.944 -0.3547  1.0277  0.9372
13395TIP3    H261601   5.358   6.368  16.051  0.4166 -1.2143  0.1929
13396TIP3   OH261602   3.166   5.172   6.008 -0.0308  0.5726  0.2502
13396TIP3    H161603   3.074   5.189   6.025  0.0857  1.5663 -0.0299
13396TIP3    H261604   3.180   5.082   6.037 -0.8493  0.7475  1.2506
13397TIP3   OH261605   5.536   4.852  10.473 -0.6344  0.1784  0.2588
13397TIP3    H161606   5.499   4.859  10.385  0.1577 -1.3402 -0.2315
13397TIP3    H261607   5.465   4.878  10.531 -1.5839 -0.0496 -0.7712
13398TIP3   OH261608   3.140   3.978  16.824  0.4625 -0.3520 -0.1734
13398TIP3    H161609   3.202   3.911  16.855  0.0380  0.5297  2.7829
13398TIP3    H261610   3.194   4.056  16.811  0.5994 -0.6545 -1.6086
13399TIP3   OH261611   2.633   4.358  15.322  0.4579 -0.3292 -0.2176
13399TIP3    H161612   2.727   4.349  15.340  0.3981  0.4156  0.5080
13399TIP3    H261613   2.609   4.442  15.361 -0.1652  0.2729 -1.8031
13400TIP3   OH261614   4.317   1.229   3.591  0.4139  0.1053  0.5170
13400TIP3    H161615   4.336   1.265   3.505  1.9367  0.0609  0.7929
13400TIP3    H261616   4.243   1.170   3.578 -0.9316  1.8905 -0.2854
13401TIP3   OH261617   1.247   3.266   4.699  0.2098 -0.0314 -0.3120
13401TIP3    H161618   1.205   3.191   4.657 -0.6643 -0.0655  0.5883
13401TIP3    H261619   1.325   3.283   4.646 -0.0359 -1.0425 -1.0196
13402TIP3   OH261620   2.359   0.737  13.816 -0.5256 -1.0991 -0.2987
13402TIP3    H161621   2.426   0.765  13.754 -1.2047  0.3139 -0.4321
13402TIP3    H261622   2.322   0.819  13.849 -1.9492 -1.8586  0.0289
13403TIP3   OH261623   3.930   0.417  11.825 -0.4087 -0.0959 -0.6438
13403TIP3    H161624   3.918   0.414  11.730  1.1173  1.2747 -0.9140
13403TIP3    H261625   3.933   0.510  11.847 -1.3038 -0.3753  0.8521
13404TIP3   OH261626   6.370   1.840   1.805  0.3016 -0.0367  0.4456
13404TIP3    H161627   6.463   1.863   1.811  0.1786  0.8084 -0.7432
13404TIP3    H261628   6.355   1.784   1.882  1.7887 -0.2043  0.6469
13405TIP3   OH261629   6.615   2.723   4.952  0.5444  0.1071  0.1492
13405TIP3    H161630   6.690   2.675   4.917  0.7370  0.5026  0.0147
13405TIP3    H261631   6.561   2.655   4.993  1.0941 -0.1464  0.4639
13406TIP3   OH261632   2.767   2.591   2.038  0.0376 -0.0631 -0.0304
13406TIP3    H161633   2.689   2.647   2.039  0.4604  0.5739  1.6478
13406TIP3    H261634   2.809   2.609   1.954 -0.5514  1.1247 -0.0905
13407TIP3   OH261635   3.116   2.913  11.298  0.1214 -0.2823 -0.2385
13407TIP3    H161636   3.127   3.005  11.320  0.6761 -0.2022 -0.8341
13407TIP3    H261637   3.077   2.874  11.376 -1.0877  0.6506 -0.3417
13408TIP3   OH261638   5.022   2.683   3.064  0.2797  0.4204  0.6002
13408TIP3    H161639   5.103   2.633   3.053  0.7906  0.9487  1.8462
13408TIP3    H261640   4.965   2.625   3.115 -0.6900 -0.5121 -1.4163
13409TIP3   OH261641   1.041   3.611  13.103 -0.2472  0.0209 -0.1972
13409TIP3    H161642   1.098   3.563  13.163 -2.1994 -1.1947  0.7924
13409TIP3    H261643   1.001   3.679  13.157 -0.3040  0.3864 -0.6911
13410TIP3   OH261644   3.569   6.757  13.907  0.1226  0.0857 -0.0188
13410TIP3    H161645   3.607   6.817  13.842 -0.9015  0.8185  0.0338
13410TIP3    H261646   3.513   6.813  13.961 -2.6143 -1.2045 -1.3165
13411TIP3   OH261647   1.092   4.037   5.420  0.0217 -0.3883  0.3618
13411TIP3    H161648   1.148   4.052   5.343  0.1455  1.0314  0.7031
13411TIP3    H261649   1.087   3.941   5.427 -0.9255 -0.6048 -2.0809
13412TIP3   OH261650   2.262   1.171  15.750  0.3053  0.3636 -0.3663
13412TIP3    H161651   2.271   1.168  15.654 -0.7885  0.0066 -0.4708
13412TIP3    H261652   2.196   1.239  15.765 -0.6508 -0.6240  0.0326
13413TIP3   OH261653   3.202   6.275  11.653  0.8019  0.0849 -0.1991
13413TIP3    H161654   3.260   6.289  11.578  0.5794 -2.0110 -0.8268
13413TIP3    H261655   3.127   6.331  11.636  1.6039  1.0763 -0.5542
13414TIP3   OH261656   0.898   3.728   2.823 -0.4155 -0.0356 -1.0544
13414TIP3    H161657   0.842   3.687   2.758 -0.2412 -1.8731 -0.1036
13414TIP3    H261658   0.977   3.673   2.825  0.0518  0.6376 -0.0898
13415TIP3   OH261659   0.918   4.550  14.074  0.1639  1.0588 -0.1789
13415TIP3    H161660   0.898   4.516  13.986  0.7262  0.2010  0.0130
13415TIP3    H261661   0.890   4.480  14.133  0.1562  1.4711  0.3096
13416TIP3   OH261662   6.702   2.714  16.741 -0.0926 -0.2605 -0.4035
13416TIP3    H161663   6.688   2.660  16.663  0.7056 -1.7565  0.4684
13416TIP3    H261664   6.777   2.769  16.718 -1.4328  1.1639 -1.6104
13417TIP3   OH261665   2.902   4.191  15.063  0.2419 -0.1811  0.2923
13417TIP3    H161666   2.907   4.127  14.992 -2.5434  1.0174 -1.1159
13417TIP3    H261667   2.844   4.151  15.128 -0.7811  0.4902 -0.1819
13418TIP3   OH261668   4.856   0.261   2.683  0.3800 -0.3539 -0.0720
13418TIP3    H161669   4.786   0.209   2.644 -0.5535  0.6934  0.1385
13418TIP3    H261670   4.925   0.262   2.617 -0.1612 -0.6922 -0.6552
13419TIP3   OH261671   4.803   1.247  10.405  0.3832  0.3951  0.1231
13419TIP3    H161672   4.755   1.201  10.474  1.0392 -0.9384 -0.2687
13419TIP3    H261673   4.737   1.297  10.357 -0.4694 -0.6720  0.1612
13420TIP3   OH261674   2.720   1.868   5.260 -0.1852 -1.0773 -0.0435
13420TIP3    H161675   2.686   1.935   5.319  1.5513  0.4512 -0.6772
13420TIP3    H261676   2.788   1.823   5.311 -1.1015 -2.1632  0.2610
13421TIP3   OH261677   4.935   5.758  16.836 -0.2630  0.0818 -0.6935
13421TIP3    H161678   5.025   5.745  16.807 -0.5381 -1.9701 -0.7663
13421TIP3    H261679   4.937   5.738  16.930 -0.4968  0.8721 -0.5122
13422TIP3   OH261680   2.432   4.566  12.596 -0.3014 -0.2336 -0.2827
13422TIP3    H161681   2.408   4.658  12.605 -0.4361 -0.1777 -1.1406
13422TIP3    H261682   2.417   4.546  12.504 -1.9239 -1.6012  0.2283
13423TIP3   OH261683   3.873   5.082  12.412 -0.0274  0.5821 -0.3604
13423TIP3    H161684   3.813   5.051  12.344  0.3189  0.6580 -0.7029
13423TIP3    H261685   3.915   5.002  12.445 -0.3901  0.5153 -0.0381
13424TIP3   OH261686   0.297   0.926  16.569  0.0347  0.2306  0.2901
13424TIP3    H161687   0.367   0.965  16.621  0.0122  0.7886 -0.0902
13424TIP3    H261688   0.297   0.834  16.594  1.7548 -0.0572 -0.6439
13425TIP3   OH261689   0.156   4.844  13.777 -0.6880  0.2652  0.1656
13425TIP3    H161690   0.151   4.792  13.857 -4.3865 -0.5033 -0.3979
13425TIP3    H261691   0.157   4.935  13.807  0.2203 -0.0125  1.0569
13426TIP3   OH261692   2.702   2.750  14.987  0.5812  0.4036  0.8394
13426TIP3    H161693   2.766   2.680  14.973  0.8799  0.5436  1.4555
13426TIP3    H261694   2.696   2.758  15.083  1.9557  2.4621  0.8335
13427TIP3   OH261695   1.467   3.687  11.742 -0.1285 -0.2995 -0.2248
13427TIP3    H161696   1.397   3.742  11.779  0.4711  0.4293 -0.1504
13427TIP3    H261697   1.490   3.730  11.660 -0.6394 -1.2558 -0.8883
13428TIP3   OH261698   3.477   4.323   3.353  0.4024 -0.2290  0.3926
13428TIP3    H161699   3.454   4.387   3.285 -1.0584  0.1317  1.1974
13428TIP3    H261700   3.415   4.340   3.424  1.4132 -1.1039  1.5194
13429TIP3   OH261701   2.312   6.073  15.053 -0.7666 -0.0967  0.0928
13429TIP3    H161702   2.323   6.025  15.135 -1.3001  0.1510  0.3174
13429TIP3    H261703   2.372   6.147  15.061  0.0071 -0.6780 -0.2264
13430TIP3   OH261704   5.749   0.292  11.982 -0.7228  0.0438 -0.2212
13430TIP3    H161705   5.717   0.254  12.064 -1.0455 -1.5566 -1.0517
13430TIP3    H261706   5.672   0.336  11.944 -1.2387 -1.3190 -0.8192
13431TIP3   OH261707   4.315   3.352   1.948 -0.4827  0.2617  0.2502
13431TIP3    H161708   4.402   3.313   1.943 -0.2558  0.9156 -1.4429
13431TIP3    H261709   4.256   3.277   1.958  0.1945 -0.2566  0.4726
13432TIP3   OH261710   5.316   3.127   5.109 -0.4535 -0.5608 -0.6183
13432TIP3    H161711   5.339   3.103   5.198  0.6332 -1.1066 -1.0276
13432TIP3    H261712   5.339   3.051   5.056  2.8536  1.1534 -1.9184
13433TIP3   OH261713   4.379   1.534   5.322 -0.1998  0.2267  0.1954
13433TIP3    H161714   4.445   1.582   5.272 -0.0660  0.2788  0.4216
13433TIP3    H261715   4.310   1.516   5.258  1.0413 -1.8816 -0.6797
13434TIP3   OH261716   4.844   1.618   2.599  0.3141  0.4027  0.5084
13434TIP3    H161717   4.919   1.676   2.610 -0.0029  1.1041 -0.8067
13434TIP3    H261718   4.822   1.590   2.688 -0.6644  3.7565  1.4769
13435TIP3   OH261719   3.683   0.085   0.166  0.1915 -0.1931 -0.2386
13435TIP3    H161720   3.733   0.113   0.089 -0.1870 -0.0233 -0.4263
13435TIP3    H261721   3.617   0.025   0.131 -2.6557  2.9396 -0.7242
13436TIP3   OH261722   3.745   6.250  15.766 -0.8594  0.5792 -0.3747
13436TIP3    H161723   3.662   6.283  15.733 -0.6310  1.4717 -0.0924
13436TIP3    H261724   3.721   6.186  15.833 -1.3131  0.5477 -0.5619
13437TIP3   OH261725   2.196   1.014  16.491  0.2251  0.3762 -0.8997
13437TIP3    H161726   2.114   1.020  16.541  1.6118  0.1273  1.5953
13437TIP3    H261727   2.227   0.925  16.506  1.8896  1.0368 -0.1236
13438TIP3   OH261728   3.756   5.831   2.659 -0.1214  0.0637  0.3390
13438TIP3    H161729   3.760   5.737   2.678  0.0959 -0.0003 -0.0105
13438TIP3    H261730   3.736   5.835   2.565 -2.4505  0.3620  0.7891
13439TIP3   OH261731   1.447   2.227   3.531  0.5035  0.2502 -0.3711
13439TIP3    H161732   1.538   2.215   3.561  0.1944 -0.4076  0.3384
13439TIP3    H261733   1.424   2.315   3.558  1.1278  0.6479 -1.0972
13440TIP3   OH261734   3.119   3.194  11.344 -0.3000 -0.4594 -0.3994
13440TIP3    H161735   3.105   3.229  11.432  0.4252 -0.1173 -0.4152
13440TIP3    H261736   3.060   3.245  11.288 -0.8234 -0.7335 -0.1054
13441TIP3   OH261737   3.768   3.192  14.300  0.2598  0.3768  0.1890
13441TIP3    H161738   3.681   3.231  14.307  0.0122 -0.2982  0.9091
13441TIP3    H261739   3.790   3.165  14.389  0.6113 -0.7303 -0.2213
13442TIP3   OH261740   1.906   6.803   2.920  0.4808  0.5814 -0.8718
13442TIP3    H161741   1.901   6.897   2.900  2.5787  0.8587 -0.2639
13442TIP3    H261742   1.855   6.793   3.000  1.4244  1.4914 -0.1272
13443TIP3   OH261743   0.375   4.440   1.382  0.3258 -0.5363  0.0961
13443TIP3    H161744   0.356   4.498   1.309  5.0057  0.4810 -0.6530
13443TIP3    H261745   0.293   4.394   1.398 -1.3564  0.0713 -4.9454
13444TIP3   OH261746   3.548   0.870   5.314 -0.4923 -0.2170 -0.8287
13444TIP3    H161747   3.601   0.937   5.270  0.3457 -0.4536 -0.2135
13444TIP3    H261748   3.476   0.920   5.354  0.0158  0.2975 -0.5378
13445TIP3   OH261749   4.810   5.535  12.558 -0.4948 -0.1690 -0.2805
13445TIP3    H161750   4.877   5.544  12.490 -0.7934  3.4405 -0.2564
13445TIP3    H261751   4.729   5.566  12.516 -0.9772  0.7450  1.2497
13446TIP3   OH261752   1.881   3.104   1.025  0.1295 -0.1656  0.0708
13446TIP3    H161753   1.815   3.038   1.048 -0.4730  0.3451 -0.1563
13446TIP3    H261754   1.960   3.075   1.070 -0.0731 -1.1400 -0.1553
13447TIP3   OH261755   6.252   1.348  12.241 -0.6784 -0.1392 -0.1230
13447TIP3    H161756   6.205   1.342  12.158  0.5311  2.0435 -1.0463
13447TIP3    H261757   6.343   1.365  12.216 -0.1357 -0.2482  1.6569
13448TIP3   OH261758   6.095   4.008  15.132 -0.0529  0.6480 -0.0151
13448TIP3    H161759   6.150   3.996  15.055 -0.0470 -0.5328  0.1584
13448TIP3    H261760   6.143   3.967  15.204 -0.4282  1.0219  0.4626
13449TIP3   OH261761   1.034   5.597  14.487 -0.4492  0.4998  0.5150
13449TIP3    H161762   0.983   5.677  14.501 -0.1576  0.9958 -1.0422
13449TIP3    H261763   1.124   5.627  14.477  0.1187 -0.3195  2.6978
13450TIP3   OH261764   5.436   2.886  15.456 -0.2993 -0.5197 -0.1793
13450TIP3    H161765   5.373   2.932  15.400 -2.4334 -0.3270  2.1841
13450TIP3    H261766   5.502   2.951  15.477 -1.8394  0.7613  0.9622
13451TIP3   OH261767   5.801   1.165  14.435  0.5888  0.2058 -0.3791
13451TIP3    H161768   5.835   1.097  14.376 -0.6512  1.2598 -2.4245
13451TIP3    H261769   5.708   1.170  14.413  0.3170  1.3802  0.9700
13452TIP3   OH261770   4.305   0.922  14.027 -0.0385 -0.1264 -0.1973
13452TIP3    H161771   4.345   0.959  14.106  1.0751 -0.3709 -0.6266
13452TIP3    H261772   4.228   0.975  14.012 -0.0873  0.1351  0.8706
13453TIP3   OH261773   6.696   3.438   4.399  0.2276  0.1511 -0.3738
13453TIP3    H161774   6.700   3.397   4.313  0.4069  0.1403 -0.3605
13453TIP3    H261775   6.785   3.432   4.433 -0.0324 -0.6545  0.1910
13454TIP3   OH261776   4.517   3.026  11.590 -0.3352  0.2094  0.1829
13454TIP3    H161777   4.594   3.064  11.547  1.2539 -1.5997  1.2460
13454TIP3    H261778   4.499   3.086  11.663  1.1364 -0.1664  0.9009
13455TIP3   OH261779   1.282   3.564  12.064 -0.3933 -0.8098 -0.1568
13455TIP3    H161780   1.198   3.596  12.096 -0.5854 -1.8834  0.4583
13455TIP3    H261781   1.327   3.642  12.033 -1.2996 -0.1113  0.2364
13456TIP3   OH261782   6.405   1.734   5.284 -0.1254 -0.1766  0.0656
13456TIP3    H161783   6.349   1.661   5.258  0.3974 -0.3893 -0.4818
13456TIP3    H261784   6.411   1.790   5.207  2.1051 -1.2403 -0.6156
13457TIP3   OH261785   4.918   6.753   2.279  0.1643 -0.0028  0.2233
13457TIP3    H161786   4.919   6.813   2.203  0.0338 -0.3589 -0.0618
13457TIP3    H261787   4.826   6.747   2.303  0.1070 -0.5545 -0.1213
13458TIP3   OH261788   2.051   0.620   5.075  0.1604  0.1668  0.0230
13458TIP3    H161789   2.092   0.534   5.080  1.7449  0.9086  0.3602
13458TIP3    H261790   1.980   0.616   5.139 -0.3524 -1.1579 -0.5932
13459TIP3   OH261791   2.025   2.475  12.584 -0.7474  0.1002  0.3444
13459TIP3    H161792   1.996   2.388  12.554  1.3075 -0.8652  0.9680
13459TIP3    H261793   2.075   2.457  12.663  1.6890  1.5788 -0.7380
13460TIP3   OH261794   6.042   5.038   0.438 -0.3362 -0.4000 -0.1877
13460TIP3    H161795   6.105   5.062   0.506  0.3257 -2.0947 -0.1411
13460TIP3    H261796   6.090   5.048   0.356 -1.1199  1.5974 -0.4574
13461TIP3   OH261797   3.023   1.241  14.890 -0.2568 -0.1401 -0.3611
13461TIP3    H161798   2.944   1.205  14.932 -1.0165 -1.5934 -2.8443
13461TIP3    H261799   3.081   1.166  14.880  2.0740  1.1107  2.4772
13462TIP3   OH261800   3.122   0.906   4.496  0.3479 -0.1069 -0.1156
13462TIP3    H161801   3.181   0.849   4.446  0.9373 -0.6524  1.1646
13462TIP3    H261802   3.181   0.958   4.552 -0.1165  2.1614 -1.5731
13463TIP3   OH261803   2.817   4.906  14.010  0.4651 -0.2101  0.3089
13463TIP3    H161804   2.872   4.941  14.080 -1.6211  1.3680  1.2449
13463TIP3    H261805   2.731   4.895  14.049 -0.0954 -2.0632 -1.2681
13464TIP3   OH261806   0.257   1.425  13.118  0.3334  0.2653 -0.5957
13464TIP3    H161807   0.262   1.331  13.101  0.9872  0.2556 -0.3616
13464TIP3    H261808   0.339   1.445  13.163  0.4195  1.0408 -1.0885
13465TIP3   OH261809   3.114   1.887  13.884  0.1322 -0.6032  0.0970
13465TIP3    H161810   3.065   1.866  13.805 -2.1032  2.4457  0.4831
13465TIP3    H261811   3.077   1.831  13.952 -0.3288 -0.8259 -0.3364
13466TIP3   OH261812   2.193   4.155  15.114  0.2629  0.3485 -0.1637
13466TIP3    H161813   2.254   4.089  15.082 -0.9395 -1.4392  1.0785
13466TIP3    H261814   2.246   4.210  15.171  0.5193 -2.0971  2.1355
13467TIP3   OH261815   3.931   6.625  13.978 -0.5265 -0.3557 -0.0303
13467TIP3    H161816   3.854   6.574  13.954 -0.7838  0.8741 -2.0920
13467TIP3    H261817   3.986   6.623  13.900  1.9711 -1.8701  1.6585
13468TIP3   OH261818   3.172   4.346  13.282 -0.0705  0.3643 -0.2874
13468TIP3    H161819   3.203   4.297  13.358  2.1338 -0.9651 -1.9180
13468TIP3    H261820   3.096   4.297  13.251 -0.5596  0.5237  0.6409
13469TIP3   OH261821   2.584   6.533  13.161 -0.6779  0.6345  0.6705
13469TIP3    H161822   2.567   6.530  13.067 -0.8416  0.6254  0.6990
13469TIP3    H261823   2.654   6.470  13.175 -1.0569  0.2035  0.6404
13470TIP3   OH261824   4.403   4.637  15.825 -0.4247  0.0857  0.8150
13470TIP3    H161825   4.427   4.547  15.802  3.0859  1.6707 -2.9425
13470TIP3    H261826   4.314   4.647  15.792 -0.5969 -1.7721  0.5955
13471TIP3   OH261827   3.507   2.119  14.222  0.3933  0.0329  0.3306
13471TIP3    H161828   3.526   2.143  14.132  2.5262 -1.5016  0.3001
13471TIP3    H261829   3.423   2.074  14.218  1.0684 -1.1798 -1.1495
13472TIP3   OH261830   4.291   6.332   1.382 -0.8748 -0.1294  0.0489
13472TIP3    H161831   4.243   6.408   1.415  1.0775  0.6057  1.4640
13472TIP3    H261832   4.383   6.357   1.391 -0.1683 -2.4315 -0.0306
13473TIP3   OH261833   4.679   3.412  13.781  0.1920 -0.2562  0.5747
13473TIP3    H161834   4.767   3.437  13.755  0.1906 -1.6759 -1.0091
13473TIP3    H261835   4.642   3.370  13.703 -2.6741  2.1339  0.4731
13474TIP3   OH261836   2.614   4.253  14.299  0.2462  0.0273  0.1518
13474TIP3    H161837   2.561   4.294  14.230  2.1669  0.1030 -1.3716
13474TIP3    H261838   2.661   4.326  14.340  1.1340 -0.2780 -0.2996
13475TIP3   OH261839   4.928   1.312  13.777 -0.0952 -0.2254  0.1553
13475TIP3    H161840   4.908   1.286  13.687  2.7614  2.8163 -1.5925
13475TIP3    H261841   4.859   1.373  13.800 -0.5712 -0.6351 -0.1616
13476TIP3   OH261842   3.961   2.654  14.304 -0.6310  0.0419  0.0282
13476TIP3    H161843   3.916   2.664  14.387 -0.2271  1.5629  0.0870
13476TIP3    H261844   3.913   2.710  14.243 -2.1016 -2.4801 -1.3101
13477TIP3   OH261845   4.367   4.004  12.756  0.6417 -0.4154  0.0151
13477TIP3    H161846   4.316   4.025  12.834  0.3494 -3.6307  0.8251
13477TIP3    H261847   4.302   3.980  12.690  0.8886  2.2817 -1.3199
13478TIP3   OH261848   2.232   6.154   3.155  0.4153 -0.9815  0.6778
13478TIP3    H161849   2.274   6.145   3.070 -0.6872  3.2691 -0.5856
13478TIP3    H261850   2.303   6.141   3.218  2.0458 -0.8986 -1.0363
13479TIP3   OH261851   5.735   1.925  15.382  0.4080 -0.4210  0.0000
13479TIP3    H161852   5.695   1.870  15.450  0.5860  1.4335  1.6874
13479TIP3    H261853   5.664   1.981  15.351  0.7036 -0.1121 -0.1259
13480TIP3   OH261854   5.765   3.308  12.665 -0.1123  0.2508  0.0629
13480TIP3    H161855   5.806   3.222  12.660 -1.5475 -0.4175 -0.9455
13480TIP3    H261856   5.763   3.328  12.759 -0.6827 -1.3062  0.4204
13481TIP3   OH261857   6.607   2.968  15.561 -0.3007  0.7167 -1.0127
13481TIP3    H161858   6.618   3.058  15.592  0.9702  0.8450 -1.7318
13481TIP3    H261859   6.589   2.977  15.468 -1.2400  0.2501 -0.8871
13482TIP3   OH261860   1.436   6.519  12.464  0.7623  0.0991  0.0267
13482TIP3    H161861   1.444   6.442  12.520  1.3003 -0.3114 -0.5925
13482TIP3    H261862   1.371   6.494  12.398 -0.9686  1.1010  1.2703
13483TIP3   OH261863   2.089   3.036   1.797 -0.3703  0.1678  0.1120
13483TIP3    H161864   2.038   3.111   1.826 -0.9714 -0.7691  1.5878
13483TIP3    H261865   2.172   3.073   1.768 -0.6898  1.4068  0.7317
13484TIP3   OH261866   1.794   0.833   0.641 -0.0080  0.1870 -0.1480
13484TIP3    H161867   1.879   0.877   0.644  0.6542 -1.0867  0.5338
13484TIP3    H261868   1.767   0.840   0.550 -0.1790  2.4075  0.0107
13485TIP3   OH261869   1.978   5.825   2.584 -0.3253  0.7598  0.5177
13485TIP3    H161870   2.069   5.835   2.556 -0.2781  0.7950  0.6775
13485TIP3    H261871   1.976   5.865   2.671 -0.7284  1.6599  0.0967
13486TIP3   OH261872   3.256   3.527  15.341 -0.0787 -0.8083  0.3842
13486TIP3    H161873   3.283   3.619  15.340  1.7709 -1.3027 -0.5649
13486TIP3    H261874   3.214   3.515  15.426 -1.9635  1.3101 -0.1545
13487TIP3   OH261875   6.466   4.565   1.221 -0.2867 -0.2313 -0.2084
13487TIP3    H161876   6.409   4.635   1.189  1.1157  1.4732  0.8471
13487TIP3    H261877   6.527   4.549   1.149 -0.8139 -0.6176 -0.5754
13488TIP3   OH261878   2.730   2.199  12.368 -0.0527 -1.0289  0.4071
13488TIP3    H161879   2.672   2.228  12.298 -0.6612  0.4270  1.4629
13488TIP3    H261880   2.791   2.139  12.326  0.5564  0.9403 -1.7150
13489TIP3   OH261881   1.102   2.832  15.043  0.3884  0.1312 -0.6411
13489TIP3    H161882   1.067   2.915  15.010 -1.8508  0.1010  1.3557
13489TIP3    H261883   1.173   2.857  15.102 -3.6542  1.4022  4.3746
13490TIP3   OH261884   3.701   4.466   1.394  0.1775 -0.5052  0.5220
13490TIP3    H161885   3.726   4.532   1.460 -0.1871 -0.1293  0.2934
13490TIP3    H261886   3.658   4.517   1.325 -0.0373 -0.9765  0.3041
13491TIP3   OH261887   5.302   4.171  15.712  0.4541  0.2954 -0.2833
13491TIP3    H161888   5.244   4.180  15.636  1.0586  0.8268 -0.6939
13491TIP3    H261889   5.259   4.107  15.768 -0.5454  0.7014 -0.5677
13492TIP3   OH261890   5.684   4.593  16.010 -0.4124 -0.4068  0.5872
13492TIP3    H161891   5.757   4.594  15.948 -0.8608  0.6327  0.0456
13492TIP3    H261892   5.650   4.504  16.005 -1.3780  0.0125 -1.8505
13493TIP3   OH261893   5.695   3.860  12.693  0.2326  0.0998 -0.1495
13493TIP3    H161894   5.733   3.795  12.635  1.2465  0.8735 -0.3750
13493TIP3    H261895   5.761   3.929  12.699 -1.0934  1.4580 -0.4825
13494TIP3   OH261896   3.348   4.274  12.026  0.6158 -0.3537  0.5986
13494TIP3    H161897   3.262   4.232  12.034  0.3261  0.0521 -0.3128
13494TIP3    H261898   3.355   4.297  11.933  0.9170  1.2945  1.0021
13495TIP3   OH261899   6.340   4.505  14.600 -0.9087  0.4944  0.0280
13495TIP3    H161900   6.380   4.558  14.531 -0.7360  2.3137  1.4631
13495TIP3    H261901   6.402   4.433  14.614 -1.7008 -0.8849 -2.7616
13496TIP3   OH261902   2.547   1.908   1.426 -0.0641 -0.1878 -0.8622
13496TIP3    H161903   2.514   1.833   1.477  1.0483 -0.0247  0.1316
13496TIP3    H261904   2.469   1.961   1.411 -0.6732 -0.9541 -0.5608
13497TIP3   OH261905   1.098   1.925   2.383  0.0344  0.1813 -0.0357
13497TIP3    H161906   1.170   1.971   2.424  0.7528 -2.2686  1.6369
13497TIP3    H261907   1.030   1.920   2.450  0.4880 -2.2323  0.3475
13498TIP3   OH261908   6.514   4.750   2.735 -0.2226  0.4328 -0.1865
13498TIP3    H161909   6.453   4.679   2.752 -0.4651  0.0098 -2.4877
13498TIP3    H261910   6.588   4.733   2.794 -1.2085 -0.4657  0.8287
13499TIP3   OH261911   2.096   6.113  14.859 -0.0401 -0.3807  0.5054
13499TIP3    H161912   2.138   6.119  14.945  0.7824  1.1613  0.0263
13499TIP3    H261913   2.128   6.030  14.823  2.4431  0.5696  0.2941
13500TIP3   OH261914   3.054   1.342  10.653  0.6044 -0.1025  0.0669
13500TIP3    H161915   2.993   1.346  10.579 -1.6550  0.1093  1.8054
13500TIP3    H261916   3.023   1.267  10.705  2.1785 -0.3096  0.7679
13501TIP3   OH261917   6.450   0.830   0.817 -0.5930  0.0809 -0.1863
13501TIP3    H161918   6.406   0.820   0.901 -1.1046  0.9849 -0.3286
13501TIP3    H261919   6.382   0.813   0.752 -0.9685  2.1540 -0.4131
13502TIP3   OH261920   0.674   3.611   0.358  0.3245 -0.3475 -0.0919
13502TIP3    H161921   0.637   3.567   0.282  1.1186 -1.1752 -0.0205
13502TIP3    H261922   0.599   3.639   0.409 -0.2189 -1.3953 -0.2857
13503TIP3   OH261923   2.291   2.399  15.315 -0.1114 -0.0619  0.5006
13503TIP3    H161924   2.345   2.419  15.238  1.4163 -5.1587 -0.1475
13503TIP3    H261925   2.326   2.456  15.384  1.5438  1.5227 -1.4908
13504TIP3   OH261926   5.643   3.062  15.511  0.4190 -0.2031 -0.0604
13504TIP3    H161927   5.651   3.140  15.456  1.0421  0.0786  0.4194
13504TIP3    H261928   5.733   3.031  15.523  0.0922 -1.7160 -1.2437
13505TIP3   OH261929   2.183   5.880  16.949 -0.8613 -0.3639 -0.3981
13505TIP3    H161930   2.089   5.869  16.936 -0.6573 -2.1792 -0.5441
13505TIP3    H261931   2.222   5.798  16.918  0.4913 -0.8909  2.3877
13506TIP3   OH261932   4.472   4.555   5.883  0.3437 -0.2071  0.0576
13506TIP3    H161933   4.487   4.460   5.888 -1.3861 -0.5974 -1.2528
13506TIP3    H261934   4.556   4.593   5.905  0.8826 -2.0312  1.4264
13507TIP3   OH261935   3.058   4.468  15.274 -0.5803 -0.3074 -0.4708
13507TIP3    H161936   2.991   4.400  15.272  0.7911 -1.6767 -1.4677
13507TIP3    H261937   3.115   4.443  15.347  1.2683 -1.6298 -2.2707
13508TIP3   OH261938   6.365   4.387   3.308 -0.3618 -0.4877  0.0555
13508TIP3    H161939   6.439   4.373   3.366  0.6870  0.8609 -0.9112
13508TIP3    H261940   6.324   4.468   3.339  0.6340  0.6538 -1.4268
13509TIP3   OH261941   4.762   0.780   6.371 -0.5008  0.7382 -0.0207
13509TIP3    H161942   4.699   0.772   6.444  0.5080  1.3505  0.9460
13509TIP3    H261943   4.730   0.856   6.321 -0.1840  1.4571  0.8390
13510TIP3   OH261944   2.305   1.323  16.947 -0.0015  1.0608 -0.6733
13510TIP3    H161945   2.391   1.289  16.973 -0.3187  0.3434 -0.5452
13510TIP3    H261946   2.310   1.330  16.852  0.5150  1.9075 -0.5945
13511TIP3   OH261947   2.953   4.508  13.573 -0.5340 -0.1932  0.6381
13511TIP3    H161948   2.896   4.528  13.648 -1.2728  0.3229 -0.0404
13511TIP3    H261949   2.893   4.472  13.507 -0.7658  3.4055 -1.3421
13512TIP3   OH261950   3.353   6.284   3.401 -0.5928 -0.1597 -0.1256
13512TIP3    H161951   3.403   6.295   3.482 -0.3351  0.2953 -0.3427
13512TIP3    H261952   3.420   6.271   3.334 -0.6075  2.4162 -0.7613
13513TIP3   OH261953   0.896   0.487   3.835  0.0367 -0.2291 -0.3139
13513TIP3    H161954   0.898   0.452   3.925  2.6997 -2.1701 -0.9928
13513TIP3    H261955   0.845   0.423   3.786  0.3178 -0.2663 -0.5584
13514TIP3   OH261956   5.211   4.023   3.546  0.4373  0.3356  0.1169
13514TIP3    H161957   5.173   4.032   3.633 -1.3739 -1.0031 -0.4540
13514TIP3    H261958   5.180   3.937   3.516  1.5272  0.4983 -1.6053
13515TIP3   OH261959   6.592   0.635   0.930  1.0756  0.1499  0.3927
13515TIP3    H161960   6.551   0.702   0.876  1.1189 -1.5354 -1.8962
13515TIP3    H261961   6.657   0.682   0.982  1.0063  1.9063 -1.0069
13516TIP3   OH261962   4.247   3.020  11.046  0.2681 -0.0449  0.2674
13516TIP3    H161963   4.244   3.108  11.008 -1.5114  0.0285  0.5016
13516TIP3    H261964   4.311   3.027  11.117 -0.7294  1.4129  1.0725
13517TIP3   OH261965   0.549   1.314   0.712 -0.3480  0.3179  0.4930
13517TIP3    H161966   0.643   1.330   0.712 -0.6258  2.1614  0.0889
13517TIP3    H261967   0.535   1.251   0.783  1.3040 -0.9580 -0.2464
13518TIP3   OH261968   0.076   3.878   5.911 -0.4197  0.4362  0.0281
13518TIP3    H161969   0.154   3.825   5.891  0.1385  0.9304  0.8443
13518TIP3    H261970   0.032   3.830   5.981 -0.2786  0.7059  0.3007
13519TIP3   OH261971   2.782   3.067  15.526  0.0963  0.0952  0.4130
13519TIP3    H161972   2.780   2.999  15.594 -0.0836 -1.1630 -0.8168
13519TIP3    H261973   2.690   3.091  15.514  0.1827  0.8288  1.0659
13520TIP3   OH261974   0.395   4.922  15.412  0.5445  0.4479 -0.1396
13520TIP3    H161975   0.489   4.905  15.403  0.3400  0.3514 -2.5915
13520TIP3    H261976   0.353   4.837  15.398  0.0561  0.3641  1.5368
13521TIP3   OH261977   4.284   2.149  11.609  0.1168  0.4125  0.1031
13521TIP3    H161978   4.247   2.090  11.543  0.5913 -0.0920  0.2812
13521TIP3    H261979   4.376   2.158  11.584  0.4009 -0.1142  0.9245
13522TIP3   OH261980   0.147   2.579  14.033  0.0301 -0.0704 -0.7230
13522TIP3    H161981   0.060   2.606  14.064  1.0696  0.3090  2.1457
13522TIP3    H261982   0.147   2.484  14.041  0.7258  0.0826  2.0463
13523TIP3   OH261983   3.597   3.090  14.015  0.6375  0.6074  0.0064
13523TIP3    H161984   3.661   3.139  13.964  0.7640 -1.3990 -1.9003
13523TIP3    H261985   3.602   3.000  13.981 -3.6018  0.4416 -0.7603
13524TIP3   OH261986   6.084   3.901  16.247  0.5203  0.6118 -0.5529
13524TIP3    H161987   6.087   3.879  16.153 -0.1580  0.8772 -0.6462
13524TIP3    H261988   6.175   3.908  16.273  0.7324 -0.5976 -0.9231
13525TIP3   OH261989   1.445   2.423  15.569 -0.1061  0.0952  0.4454
13525TIP3    H161990   1.432   2.455  15.480 -0.0704 -0.2399  0.3188
13525TIP3    H261991   1.475   2.499  15.618 -0.1221  0.2792  0.1702
13526TIP3   OH261992   5.727   1.227   0.229  0.2055  0.3774 -0.7101
13526TIP3    H161993   5.738   1.161   0.160 -0.4753  1.5859 -2.0327
13526TIP3    H261994   5.635   1.253   0.221  0.0080  0.2763  0.9403
13527TIP3   OH261995   2.669   1.008   4.341  0.2369 -0.6436  0.1800
13527TIP3    H161996   2.588   1.050   4.310  0.0798 -1.2905 -0.2956
13527TIP3    H261997   2.738   1.055   4.295  0.0895 -0.5773  0.0238
13528TIP3   OH261998   5.212   0.012  12.932 -0.0649  0.2859 -0.2923
13528TIP3    H161999   5.158   0.090  12.929  0.1275  0.3952 -1.2322
13528TIP3    H262000   5.302   0.044  12.935 -0.0033  0.0955  0.1037
13529TIP3   OH262001   4.285   0.774  11.077 -0.4857  0.3126 -0.1241
13529TIP3    H162002   4.316   0.864  11.070  0.2232  0.2101  1.3328
13529TIP3    H262003   4.198   0.775  11.036 -0.2816  1.5332 -0.5634
13530TIP3   OH262004   3.373   4.035   1.649 -0.8916 -0.5564  0.2005
13530TIP3    H162005   3.341   4.006   1.564  1.5080  0.5955 -1.1702
13530TIP3    H262006   3.467   4.047   1.637 -0.7905  1.6696  2.4250
13531TIP3   OH262007   6.004   5.352   5.392  0.1777  0.0808  0.7645
13531TIP3    H162008   5.975   5.404   5.317 -0.4088 -0.5039  0.5790
13531TIP3    H262009   5.927   5.348   5.449  0.2185 -0.5733  0.7786
13532TIP3   OH262010   3.926   5.498   3.977  0.8512  0.3393  0.3808
13532TIP3    H162011   3.951   5.418   3.930  0.3894  0.5311 -0.2176
13532TIP3    H262012   3.877   5.548   3.912  1.2458  1.1651  0.7172
13533TIP3   OH262013   3.462   2.730  14.206 -0.4117 -0.1141 -0.0821
13533TIP3    H162014   3.390   2.670  14.223 -0.9265  0.1127 -1.3599
13533TIP3    H262015   3.435   2.813  14.247 -0.9560  0.0157 -0.6966
13534TIP3   OH262016   1.025   5.707   4.968  0.2922  0.5675  0.5807
13534TIP3    H162017   0.981   5.684   4.886 -0.8551 -0.2106  1.3906
13534TIP3    H262018   0.977   5.782   5.002  1.3347  1.4717  0.1086
13535TIP3   OH262019   4.216   1.509   4.884 -0.5279  0.0582 -0.2465
13535TIP3    H162020   4.257   1.442   4.829 -1.4304 -0.1280 -0.7079
13535TIP3    H262021   4.140   1.538   4.833 -1.0809  0.2606  0.6779
13536TIP3   OH262022   2.418   1.236   6.177 -0.1535 -0.0586 -0.1087
13536TIP3    H162023   2.381   1.147   6.182  0.0590 -0.1014  1.0386
13536TIP3    H262024   2.411   1.269   6.266  1.5618  0.3551 -0.0961
13537TIP3   OH262025   4.413   6.430  14.470  0.0825  0.6832 -0.2978
13537TIP3    H162026   4.340   6.373  14.493  0.3444  0.1441 -0.7577
13537TIP3    H262027   4.385   6.474  14.390  0.7114 -0.4315 -1.1661
13538TIP3   OH262028   3.751   2.400   1.373 -0.8236 -0.1490 -0.0778
13538TIP3    H162029   3.758   2.490   1.342  1.4056 -0.2982 -0.1309
13538TIP3    H262030   3.821   2.353   1.329 -1.0829 -1.6165  0.9931
13539TIP3   OH262031   6.574   6.175  11.305  0.0532  0.0633  0.0983
13539TIP3    H162032   6.505   6.108  11.304 -0.6407  0.7215 -2.1427
13539TIP3    H262033   6.535   6.249  11.351 -0.6131  0.2801 -0.7893
13540TIP3   OH262034   1.703   5.282   1.169  0.2667  0.2606  0.3874
13540TIP3    H162035   1.775   5.251   1.115  0.0080 -1.5114  0.9829
13540TIP3    H262036   1.669   5.359   1.123  1.6176  0.2756 -0.6338
13541TIP3   OH262037   2.581   3.377  12.587 -0.5998  0.6558 -0.1204
13541TIP3    H162038   2.508   3.320  12.565 -1.3323  0.4472  2.5234
13541TIP3    H262039   2.637   3.324  12.643  0.7637  1.3490 -0.7621
13542TIP3   OH262040   4.892   0.798  14.485 -0.5731 -0.4820  0.0282
13542TIP3    H162041   4.863   0.811  14.394 -2.5282  0.0922  0.6767
13542TIP3    H262042   4.842   0.722  14.515 -1.4173  0.4751  1.1637
13543TIP3   OH262043   6.282   2.242  12.464 -0.0438 -0.1923  0.1460
13543TIP3    H162044   6.279   2.147  12.453  1.4394 -0.3996  1.2275
13543TIP3    H262045   6.198   2.264  12.504 -0.5408 -0.9879 -0.4223
13544TIP3   OH262046   1.316   6.534  14.619  0.0147  0.2092 -0.3239
13544TIP3    H162047   1.403   6.528  14.580 -0.5387  0.8493 -1.7184
13544TIP3    H262048   1.276   6.610  14.577 -0.4920  1.2041  1.7970
13545TIP3   OH262049   6.535   3.577  13.873  0.0199  0.0588  0.7872
13545TIP3    H162050   6.542   3.494  13.920 -2.4767  0.9538  2.9971
13545TIP3    H262051   6.453   3.570  13.823 -0.1616  1.1067  0.9035
13546TIP3   OH262052   3.197   4.348   4.879  0.8580  0.1948 -0.7357
13546TIP3    H162053   3.257   4.417   4.851  0.5764  0.9618  0.4612
13546TIP3    H262054   3.128   4.395   4.927 -1.0776 -0.5696 -2.5785
13547TIP3   OH262055   1.187   5.832  12.338  0.1646 -0.0771 -0.3618
13547TIP3    H162056   1.179   5.845  12.243  0.3391  0.5122 -0.2958
13547TIP3    H262057   1.238   5.751  12.347  0.3630  0.0002 -0.7695
13548TIP3   OH262058   4.396   3.714  15.841 -0.0360 -0.6490 -0.3132
13548TIP3    H162059   4.426   3.629  15.872  0.9368 -0.2147 -0.0217
13548TIP3    H262060   4.377   3.763  15.921 -0.8680 -0.6779 -0.4846
13549TIP3   OH262061   4.288   3.324  14.061  0.6157 -0.0525 -0.9220
13549TIP3    H162062   4.229   3.399  14.065 -0.2071 -0.7334  0.1402
13549TIP3    H262063   4.368   3.359  14.021 -0.1490  1.1098 -1.4838
13550TIP3   OH262064   0.077   4.498   4.120  0.1170 -0.2335  0.1345
13550TIP3    H162065   0.072   4.521   4.027  0.6393  0.2358  0.2179
13550TIP3    H262066   0.054   4.578   4.166  0.5471 -0.2657  0.4121
13551TIP3   OH262067   1.886   6.267  16.631  0.1375  0.0609  0.0473
13551TIP3    H162068   1.839   6.280  16.549  0.9257  0.3615 -0.3731
13551TIP3    H262069   1.908   6.355  16.661  0.3785 -0.0697  0.2635
13552TIP3   OH262070   2.310   3.827   1.606 -0.1995 -0.2167 -0.7349
13552TIP3    H162071   2.278   3.744   1.572 -0.6905 -0.5078  0.3965
13552TIP3    H262072   2.317   3.813   1.701  1.7427  0.3482 -0.7480
13553TIP3   OH262073   4.906   2.470   4.515  0.8399 -0.5711 -0.3026
13553TIP3    H162074   4.929   2.394   4.462  0.9431  0.4197 -1.7545
13553TIP3    H262075   4.961   2.464   4.593  2.0254 -1.1181 -1.1605
13554TIP3   OH262076   4.337   6.537   5.298  0.7002  0.6074 -0.0581
13554TIP3    H162077   4.366   6.602   5.363  1.3230  0.8736 -0.5894
13554TIP3    H262078   4.320   6.458   5.350  0.9444  0.8897  0.4645
13555TIP3   OH262079   4.633   5.257   3.052 -0.1001  0.4134  0.0767
13555TIP3    H162080   4.705   5.213   3.007 -0.0852  0.3865  0.1264
13555TIP3    H262081   4.647   5.236   3.144 -1.4593 -1.4815 -0.1009
13556TIP3   OH262082   4.163   4.455   3.249  0.6409 -0.2859 -0.1818
13556TIP3    H162083   4.117   4.372   3.263 -0.5237  0.5823  1.4517
13556TIP3    H262084   4.237   4.452   3.310  0.7295 -0.2093 -0.2838
13557TIP3   OH262085   3.936   5.153  16.963 -0.5348  0.1842  0.4302
13557TIP3    H162086   3.903   5.102  16.889 -0.7946  0.4501  0.3637
13557TIP3    H262087   4.015   5.106  16.991 -1.2548 -0.7664  0.9416
13558TIP3   OH262088   6.022   6.000  15.850 -0.2043  0.0988  0.5970
13558TIP3    H162089   5.951   5.982  15.788  0.3593  1.0274 -0.3518
13558TIP3    H262090   6.032   5.919  15.900  0.0842 -1.0792 -1.2941
13559TIP3   OH262091   6.532   0.902   3.210 -0.3788 -0.3372  0.2845
13559TIP3    H162092   6.472   0.828   3.219  0.8232 -1.4617 -0.4638
13559TIP3    H262093   6.476   0.976   3.185 -1.4276 -1.3886 -0.6270
13560TIP3   OH262094   4.968   6.392  11.742 -0.1309 -0.0826  0.2560
13560TIP3    H162095   4.887   6.412  11.789 -1.5608  2.1980 -2.8297
13560TIP3    H262096   4.954   6.303  11.708 -1.8643  0.6395 -1.0588
13561TIP3   OH262097   5.694   3.061   6.028 -0.9095 -0.3490  0.1876
13561TIP3    H162098   5.752   3.013   6.089 -1.1496  2.8614  3.2464
13561TIP3    H262099   5.612   3.070   6.076 -1.3387  1.7895 -0.8616
13562TIP3   OH262100   0.373   6.322  14.669  0.8810 -0.3210 -0.1947
13562TIP3    H162101   0.379   6.417  14.663 -1.0484 -0.1871 -0.5405
13562TIP3    H262102   0.447   6.297  14.724  1.1073  1.4225  0.3552
13563TIP3   OH262103   6.423   2.418  16.444  0.0760  0.2941  0.4884
13563TIP3    H162104   6.353   2.357  16.422  0.2409  0.8058 -1.7693
13563TIP3    H262105   6.405   2.445  16.534 -2.9150  0.7490 -0.1442
13564TIP3   OH262106   5.242   6.166   1.023  0.6132  0.6278  0.8121
13564TIP3    H162107   5.202   6.227   0.961  1.1673  0.3600  0.1804
13564TIP3    H262108   5.260   6.220   1.100 -1.2082  0.6946  1.2333
13565TIP3   OH262109   2.779   1.905   2.676  0.1971  0.1605 -0.1342
13565TIP3    H162110   2.838   1.853   2.731 -1.3620  0.8995  2.4375
13565TIP3    H262111   2.773   1.989   2.721 -1.2639  0.7882 -1.4033
13566TIP3   OH262112   4.933   5.317   0.697  0.4438  0.2753  0.1654
13566TIP3    H162113   4.844   5.299   0.726 -0.0137  2.3444  0.1602
13566TIP3    H262114   4.967   5.381   0.759  1.3202  0.8171 -0.8303
13567TIP3   OH262115   3.169   6.775   2.737 -0.1853  0.0327  0.0461
13567TIP3    H162116   3.260   6.805   2.734 -0.6006  1.3083 -0.1313
13567TIP3    H262117   3.142   6.772   2.645 -0.4200 -0.0778  0.1187
13568TIP3   OH262118   5.424   4.343  11.825  1.0463  0.4990 -0.2283
13568TIP3    H162119   5.496   4.309  11.772  1.9636  1.3933  0.4016
13568TIP3    H262120   5.426   4.438  11.810 -0.8347  0.4272 -1.1940
13569TIP3   OH262121   0.796   3.054   6.130 -0.0470 -0.3534  0.4029
13569TIP3    H162122   0.809   2.998   6.054 -0.7861  0.3654 -0.2723
13569TIP3    H262123   0.883   3.088   6.150 -0.2150  1.7679 -1.9769
13570TIP3   OH262124   5.463   4.516  11.526 -0.4530  0.3016 -0.4903
13570TIP3    H162125   5.539   4.562  11.562 -0.7124  2.2526 -2.2444
13570TIP3    H262126   5.499   4.438  11.485  0.4769  0.6525 -0.3620
13571TIP3   OH262127   4.329   1.290  16.232 -0.8051  0.1406 -0.0753
13571TIP3    H162128   4.242   1.322  16.212 -1.0852 -1.3260 -1.4466
13571TIP3    H262129   4.336   1.297  16.327 -0.6948  4.3452 -0.2232
13572TIP3   OH262130   1.284   2.280  12.165 -0.1696  0.1806 -0.1265
13572TIP3    H162131   1.340   2.228  12.223  0.8842 -0.9581 -2.0723
13572TIP3    H262132   1.323   2.368  12.168  1.1337 -0.3575 -0.6674
13573TIP3   OH262133   2.006   5.290   2.709  0.3158 -0.5106  0.1801
13573TIP3    H162134   2.084   5.243   2.739  0.2032 -0.6968  0.1846
13573TIP3    H262135   2.014   5.292   2.614  0.9678  0.5937  0.2419
13574TIP3   OH262136   1.152   5.586   5.586  0.0360  0.1494  0.0286
13574TIP3    H162137   1.193   5.558   5.504  0.4183  2.4882 -0.6386
13574TIP3    H262138   1.169   5.680   5.592 -2.3998  0.6157  1.3958
13575TIP3   OH262139   1.166   1.897  12.725  0.2941  0.0403  0.9210
13575TIP3    H162140   1.238   1.846  12.689  0.5045  0.6640  0.4412
13575TIP3    H262141   1.117   1.928  12.649  0.3101  0.7531  1.1930
13576TIP3   OH262142   3.220   6.350   3.168  0.2220  0.1932 -0.4534
13576TIP3    H162143   3.255   6.333   3.256 -1.8372 -1.4590  0.1638
13576TIP3    H262144   3.251   6.437   3.146  3.1715 -0.4698  0.6767
13577TIP3   OH262145   0.264   0.936   4.913  0.0437 -0.0044 -0.1509
13577TIP3    H162146   0.359   0.925   4.915  0.1284 -0.8247 -3.4058
13577TIP3    H262147   0.231   0.866   4.971  1.3763 -0.5083  0.0355
13578TIP3   OH262148   5.082   5.957   3.179  0.1437 -0.4107  0.0356
13578TIP3    H162149   5.166   5.935   3.220  1.3618 -0.7303 -2.4800
13578TIP3    H262150   5.019   5.899   3.222  1.1379 -0.0703  2.0761
13579TIP3   OH262151   0.019   2.989   2.340 -0.0819  0.6168 -0.6823
13579TIP3    H162152   0.049   2.966   2.428  2.2823  0.2736 -1.4828
13579TIP3    H262153  -0.053   3.049   2.353 -0.2402  0.0234  1.4790
13580TIP3   OH262154   5.076   1.886   3.321 -0.1416  0.5728 -0.3278
13580TIP3    H162155   5.046   1.827   3.390 -0.5954  1.5537  0.3337
13580TIP3    H262156   5.139   1.834   3.271 -0.8759 -0.6238 -0.0611
13581TIP3   OH262157   2.545   0.917   5.715  0.0061 -0.5416  0.2569
13581TIP3    H162158   2.582   0.978   5.651 -1.5087  0.3966  0.2246
13581TIP3    H262159   2.599   0.838   5.707  0.3412 -0.1677 -1.6208
13582TIP3   OH262160   5.002   5.835   0.246  0.0751  0.2522 -0.1273
13582TIP3    H162161   5.029   5.922   0.218  1.1638  0.4175  1.3363
13582TIP3    H262162   4.928   5.851   0.305  0.4268  0.2141  0.3290
13583TIP3   OH262163   6.309   1.692  16.260 -0.5698  0.5016 -0.1433
13583TIP3    H162164   6.376   1.641  16.216 -0.2441 -1.1324  2.0464
13583TIP3    H262165   6.226   1.653  16.232 -0.6805  2.1467 -2.3940
13584TIP3   OH262166   2.748   6.783   4.821  0.4603 -0.8261 -0.3133
13584TIP3    H162167   2.691   6.779   4.744  0.1439 -0.4143 -0.1028
13584TIP3    H262168   2.688   6.788   4.895  0.7669 -0.1105 -0.1026
13585TIP3   OH262169   1.036   1.547  10.718 -0.3785 -0.3315  0.3656
13585TIP3    H162170   1.057   1.549  10.625  3.1250  0.8563  1.0100
13585TIP3    H262171   1.005   1.458  10.734 -2.8922 -0.0293 -2.1784
13586TIP3   OH262172   3.122   3.642  14.941 -0.1857 -0.3755 -0.2831
13586TIP3    H162173   3.120   3.580  15.014  0.5856  0.3588  0.3675
13586TIP3    H262174   3.192   3.703  14.962  0.1318 -0.2117 -1.7011
13587TIP3   OH262175   6.062   0.751  15.443  0.1518 -0.7776 -0.1772
13587TIP3    H162176   6.039   0.663  15.414 -0.5324 -0.1502 -1.6596
13587TIP3    H262177   6.067   0.802  15.362 -0.4408  0.7689  0.7201
13588TIP3   OH262178   5.235   3.892  11.728  0.7805  0.0906 -0.1801
13588TIP3    H162179   5.286   3.945  11.667  1.4971  2.8109  2.5235
13588TIP3    H262180   5.297   3.873  11.799 -0.2279 -2.2226  0.1603
13589TIP3   OH262181   3.175   0.711   3.668  0.0791 -0.0553  0.2092
13589TIP3    H162182   3.093   0.760   3.661  0.6568  0.8681 -0.3490
13589TIP3    H262183   3.197   0.687   3.578  1.7825  2.0724 -0.0243
13590TIP3   OH262184   2.346   6.532  16.967  0.4500 -0.0394  0.4239
13590TIP3    H162185   2.287   6.535  16.891 -1.0824  1.8044  1.5887
13590TIP3    H262186   2.421   6.480  16.937 -0.6083 -0.3428 -1.9537
13591TIP3   OH262187   3.905   1.563  12.521  0.1283  0.3138 -0.2097
13591TIP3    H162188   3.909   1.535  12.430 -0.3623  0.1834 -0.1897
13591TIP3    H262189   3.872   1.487  12.569  1.9704 -0.2156  0.3422
13592TIP3   OH262190   3.330   6.548  12.945  0.4075 -1.2054 -0.3983
13592TIP3    H162191   3.290   6.486  12.884  0.3898 -0.8369 -0.7601
13592TIP3    H262192   3.419   6.515  12.957 -0.1304 -2.3611  0.8520
13593TIP3   OH262193   4.950   1.462   5.560  0.0267  0.3809  0.8491
13593TIP3    H162194   5.031   1.455   5.510  0.2151  0.7554  1.1006
13593TIP3    H262195   4.898   1.386   5.532  0.8273 -0.3686  1.3631
13594TIP3   OH262196   3.583   5.126   3.263 -0.1274  0.1122 -0.8516
13594TIP3    H162197   3.671   5.096   3.241  0.7136  0.1153  1.9928
13594TIP3    H262198   3.592   5.221   3.271 -0.2393  0.0629 -0.0806
13595TIP3   OH262199   0.319   6.129  11.931 -0.0515  0.4859  0.0572
13595TIP3    H162200   0.413   6.140  11.916 -0.2753  1.2410 -0.9174
13595TIP3    H262201   0.313   6.074  12.009  1.1875  1.1225  0.6236
13596TIP3   OH262202   3.923   1.169  11.070  0.6600  0.2896  0.0420
13596TIP3    H162203   3.876   1.090  11.094  0.2832  1.2576  2.9475
13596TIP3    H262204   3.881   1.200  10.991  0.7032 -2.2582 -1.0661
13597TIP3   OH262205   0.681   0.691  15.433  0.4007 -0.7048 -0.1444
13597TIP3    H162206   0.696   0.597  15.425  1.2509 -0.4897 -1.3886
13597TIP3    H262207   0.590   0.699  15.459 -0.0799 -1.8540 -1.3574
13598TIP3   OH262208   1.559   5.227   5.911 -0.0567 -0.6634 -0.1090
13598TIP3    H162209   1.470   5.261   5.899 -0.4751 -1.9240 -0.8133
13598TIP3    H262210   1.611   5.274   5.846  0.1260  1.1435  1.2767
13599TIP3   OH262211   5.777   5.360  13.722  0.3010 -0.4011 -0.5558
13599TIP3    H162212   5.748   5.390  13.636 -0.1339 -0.6617 -0.5055
13599TIP3    H262213   5.737   5.274  13.732 -1.9574  0.7351  1.0644
13600TIP3   OH262214   1.875   3.031  15.280  0.1180 -0.1484 -0.0224
13600TIP3    H162215   1.903   3.080  15.357 -1.7011 -0.2582  0.7512
13600TIP3    H262216   1.782   3.052  15.270  0.2681 -0.2289 -2.1302
13601TIP3   OH262217   4.314   6.116   3.546 -0.0218  0.3199 -0.0601
13601TIP3    H162218   4.381   6.051   3.526  1.2165  1.4904  0.1004
13601TIP3    H262219   4.360   6.200   3.542 -1.3520  1.1267  0.6392
13602TIP3   OH262220   0.162   2.672  16.272  0.5909  0.6833  0.1850
13602TIP3    H162221   0.252   2.642  16.282  0.4885  0.2071 -0.2640
13602TIP3    H262222   0.120   2.654  16.356  0.5606 -0.3415 -0.0420
13603TIP3   OH262223   3.786   5.927  10.706 -0.4352 -0.1712  0.1964
13603TIP3    H162224   3.807   5.834  10.718 -0.8177 -0.0435  2.0711
13603TIP3    H262225   3.710   5.942  10.762 -0.8374  1.1280 -0.6437
13604TIP3   OH262226   2.023   0.406   1.315 -0.1032 -0.4531 -0.2476
13604TIP3    H162227   1.949   0.446   1.269  0.0833  1.6804  1.1597
13604TIP3    H262228   1.983   0.365   1.392 -0.2759 -3.0443 -1.6053
13605TIP3   OH262229   3.601   2.136  16.753 -0.0480  0.6929  0.0747
13605TIP3    H162230   3.674   2.193  16.728  1.0463 -0.1320  1.2531
13605TIP3    H262231   3.540   2.194  16.799 -0.4120  1.4977 -1.3758
13606TIP3   OH262232   6.276   3.814   3.751 -0.0822  0.4384 -0.4936
13606TIP3    H162233   6.292   3.767   3.833 -1.5356  1.2940  0.3216
13606TIP3    H262234   6.311   3.902   3.768  1.3858  0.0976 -1.5232
13607TIP3   OH262235   3.016   1.026  12.851 -0.3563 -0.2263 -0.1809
13607TIP3    H162236   2.981   0.998  12.936 -1.3085 -1.1443 -0.8519
13607TIP3    H262237   2.949   0.999  12.788  0.0470  1.0051 -1.1660
13608TIP3   OH262238   3.347   1.763  15.893 -0.4913 -0.0873  0.1644
13608TIP3    H162239   3.356   1.830  15.961 -0.7474 -0.3164  0.4261
13608TIP3    H262240   3.312   1.810  15.817  1.2741  0.4939 -0.3386
13609TIP3   OH262241   1.854   6.256   4.860  0.7469  0.8464  0.4405
13609TIP3    H162242   1.938   6.274   4.818  0.9312 -0.3755  0.2505
13609TIP3    H262243   1.871   6.263   4.953  1.4918 -1.0018  0.4830
13610TIP3   OH262244   1.341   5.294   5.296 -0.3763  0.1036 -0.5776
13610TIP3    H162245   1.318   5.332   5.380 -0.3504  1.7274 -1.2608
13610TIP3    H262246   1.381   5.366   5.247  1.2885 -1.2542 -1.3400
13611TIP3   OH262247   1.904   6.137   1.098 -0.2859  1.0982  0.7760
13611TIP3    H162248   1.958   6.178   1.165 -1.7366  0.1050  2.6353
13611TIP3    H262249   1.849   6.074   1.146 -3.3555  2.2888 -0.8975
13612TIP3   OH262250   5.323   5.789   3.807 -0.0231  0.3414 -0.1083
13612TIP3    H162251   5.283   5.874   3.828  0.2884  0.3102  0.6484
13612TIP3    H262252   5.270   5.726   3.855  0.6382  0.2553  0.5260
13613TIP3   OH262253   1.855   1.213  12.441 -0.0297  0.5720  0.1471
13613TIP3    H162254   1.801   1.192  12.364 -2.1039 -3.4040  2.3566
13613TIP3    H262255   1.945   1.201  12.411 -0.7133  0.0433 -1.8517
13614TIP3   OH262256   1.214   5.346  12.304 -1.0907 -0.2446  0.5984
13614TIP3    H162257   1.212   5.428  12.254  1.3093 -0.1449  0.5524
13614TIP3    H262258   1.157   5.287  12.255  1.2838 -0.2186 -2.4933
13615TIP3   OH262259   0.162   5.966  14.304 -0.2816 -0.1259  0.4457
13615TIP3    H162260   0.066   5.959  14.295 -0.4417  1.2601  0.8571
13615TIP3    H262261   0.194   5.958  14.214 -0.9984  1.8274 -0.0488
13616TIP3   OH262262   5.840   3.239  14.254  0.2112  0.0581  0.3634
13616TIP3    H162263   5.907   3.264  14.190 -0.1683  0.7770  0.2315
13616TIP3    H262264   5.799   3.160  14.218  1.4004 -0.7577  0.7538
13617TIP3   OH262265   6.285   3.408   3.954  0.0951  0.5839 -0.1775
13617TIP3    H162266   6.271   3.496   3.989  1.8686  0.7377  0.2250
13617TIP3    H262267   6.237   3.408   3.871 -0.2914  1.7773  0.0261
13618TIP3   OH262268   2.385   0.289   3.787  0.2491 -0.0186 -0.7164
13618TIP3    H162269   2.442   0.235   3.731 -0.3181 -1.6400  0.2027
13618TIP3    H262270   2.416   0.272   3.876 -0.9955 -0.1105 -0.2824
13619TIP3   OH262271   0.228   2.943   6.300 -0.3814  0.0512  0.1304
13619TIP3    H162272   0.163   2.979   6.361  0.1619 -2.3785  2.3038
13619TIP3    H262273   0.310   2.985   6.326 -0.5247  0.8436 -0.6235
13620TIP3   OH262274   2.190   5.265   4.259  0.3378 -0.1601  0.2433
13620TIP3    H162275   2.166   5.320   4.184  2.2739 -0.6993 -0.8431
13620TIP3    H262276   2.270   5.305   4.294  0.4994 -0.9874  0.8460
13621TIP3   OH262277   5.855   2.300  16.068 -0.0520 -0.0491 -0.1759
13621TIP3    H162278   5.787   2.367  16.064 -1.7102 -1.6700 -0.0228
13621TIP3    H262279   5.837   2.251  16.148  2.2530  0.4125  0.7232
13622TIP3   OH262280   4.709   6.551  16.622 -0.5391  0.0876  0.0936
13622TIP3    H162281   4.646   6.515  16.560 -0.1833  0.9495 -0.8004
13622TIP3    H262282   4.793   6.515  16.593 -0.4527 -0.0512  0.5062
13623TIP3   OH262283   1.281   5.854  15.210  0.1481 -0.2499  0.4452
13623TIP3    H162284   1.266   5.855  15.115 -0.0186  0.5669  0.4746
13623TIP3    H262285   1.360   5.906  15.222  0.1256 -0.2902  0.7663
13624TIP3   OH262286   5.382   3.841  15.530 -0.5530  0.1515  0.4629
13624TIP3    H162287   5.324   3.766  15.544 -0.7778  0.5893  2.0739
13624TIP3    H262288   5.443   3.811  15.463 -1.1848 -1.1543  0.4286
13625TIP3   OH262289   5.260   5.798   1.624  0.0091 -0.1486  0.3579
13625TIP3    H162290   5.303   5.778   1.707 -0.9683  0.1258  0.9444
13625TIP3    H262291   5.230   5.713   1.591  1.3433 -0.4081 -0.2824
13626TIP3   OH262292   4.245   6.795  16.011 -0.6155  0.4457 -0.4375
13626TIP3    H162293   4.321   6.736  16.012  0.6972  1.9331 -2.6144
13626TIP3    H262294   4.278   6.877  16.049 -1.0142  1.1797 -1.6187
13627TIP3   OH262295   3.685   0.978  16.768 -0.1204  0.0234  0.1345
13627TIP3    H162296   3.722   0.914  16.706 -0.0095  0.3547 -0.1452
13627TIP3    H262297   3.648   1.046  16.712 -1.7311 -0.6030  0.3921
13628TIP3   OH262298   6.774   1.925  14.400  0.3695 -0.1299  0.2059
13628TIP3    H162299   6.786   1.945  14.307 -0.0037  1.0193  0.3863
13628TIP3    H262300   6.703   1.861  14.402 -0.3664  0.6558 -0.2514
13629TIP3   OH262301   6.046   0.552   3.135  0.4387  0.0500 -0.2306
13629TIP3    H162302   5.977   0.586   3.078 -0.3363 -1.7647 -0.4549
13629TIP3    H262303   6.027   0.458   3.142  0.8746  0.0697  2.4741
13630TIP3   OH262304   4.245   2.671  11.496  0.0176 -0.0282 -0.3062
13630TIP3    H162305   4.228   2.686  11.403 -1.2108 -2.8022 -0.6197
13630TIP3    H262306   4.166   2.702  11.540  0.1411  0.2508 -0.2743
13631TIP3   OH262307   2.149   5.389   1.819 -0.5961 -0.5385 -0.0337
13631TIP3    H162308   2.083   5.438   1.769 -0.9750 -1.5963 -0.5920
13631TIP3    H262309   2.211   5.456   1.849 -0.9470  0.2479 -1.0193
13632TIP3   OH262310   2.132   0.081   4.548  0.1677  0.0206  0.2232
13632TIP3    H162311   2.077   0.019   4.597 -0.4301  0.9074  0.7020
13632TIP3    H262312   2.100   0.076   4.458  0.3691 -0.6206  0.1782
13633TIP3   OH262313   3.179   1.391  13.039 -0.1380  0.7170  0.0864
13633TIP3    H162314   3.268   1.407  13.069  0.1829  0.1560 -0.5370
13633TIP3    H262315   3.125   1.453  13.089  0.7055  1.7240 -0.2179
13634TIP3   OH262316   4.100   1.265  14.319  0.3882 -0.4527  0.3280
13634TIP3    H162317   4.067   1.200  14.381  0.6671 -0.5976  0.3239
13634TIP3    H262318   4.118   1.216  14.239  0.1054 -0.2791  0.1562
13635TIP3   OH262319   2.258   4.331  15.918 -0.3142  0.4354 -0.2634
13635TIP3    H162320   2.279   4.423  15.904 -0.8024  0.5345 -0.3704
13635TIP3    H262321   2.196   4.310  15.848  0.9770 -0.3962 -1.1914
13636TIP3   OH262322   4.864   0.014  15.899 -0.6964  0.1225 -0.3649
13636TIP3    H162323   4.884  -0.075  15.870  1.2689  0.0001  1.1143
13636TIP3    H262324   4.841   0.004  15.992 -1.2444  1.0738 -0.3839
13637TIP3   OH262325   4.451   6.182  16.812 -0.1960 -0.9105  0.0900
13637TIP3    H162326   4.393   6.173  16.736 -1.2636 -0.7102  0.8593
13637TIP3    H262327   4.392   6.184  16.887  0.8518 -1.2159  0.9440
13638TIP3   OH262328   5.581   2.977   4.643 -0.5527 -0.4601 -0.3749
13638TIP3    H162329   5.551   2.889   4.668 -0.8316 -0.6728 -1.3728
13638TIP3    H262330   5.676   2.970   4.639 -0.0051  0.7045  4.6361
13639TIP3   OH262331   4.336   0.193   0.040 -0.7360  0.0588  0.0429
13639TIP3    H162332   4.387   0.240   0.106 -1.4459  1.0225 -0.0646
13639TIP3    H262333   4.346   0.101   0.063 -0.2715  0.3274  0.9784
13640TIP3   OH262334   3.580   3.096  16.996  0.1444 -0.0103 -0.9189
13640TIP3    H162335   3.525   3.055  16.929 -0.9175 -1.7144  0.8914
13640TIP3    H262336   3.660   3.043  16.996 -0.8428 -1.6458  0.7511
13641TIP3   OH262337   2.456   6.245  11.592 -0.1981  0.0566  0.4630
13641TIP3    H162338   2.370   6.287  11.597  0.3188  1.3405 -0.8848
13641TIP3    H262339   2.518   6.315  11.612  0.5996 -0.5321  0.1037
13642TIP3   OH262340   3.258   5.047  12.970 -0.1100 -0.0870 -0.1174
13642TIP3    H162341   3.327   4.985  12.947 -0.4431 -0.1968 -0.8375
13642TIP3    H262342   3.300   5.109  13.030  0.2949 -0.8588  0.4161
13643TIP3   OH262343   5.987   2.160  15.272 -0.1878 -0.0170 -0.3517
13643TIP3    H162344   6.042   2.237  15.257 -1.5033  0.9441 -0.3999
13643TIP3    H262345   6.049   2.087  15.273  1.3667  1.2168  1.6695
13644TIP3   OH262346   0.250   6.174   6.253 -0.3290  0.0699 -0.6970
13644TIP3    H162347   0.247   6.106   6.321 -2.8178  0.3216 -0.4791
13644TIP3    H262348   0.280   6.127   6.175  2.8131 -0.1811  0.4885
13645TIP3   OH262349   0.860   5.847   2.150  0.4587 -0.6618 -0.2531
13645TIP3    H162350   0.880   5.754   2.162 -1.9346 -1.1689  0.3518
13645TIP3    H262351   0.884   5.865   2.060  3.0343 -1.2539  0.2441
13646TIP3   OH262352   3.343   4.992   4.341 -0.7354 -0.1144  0.9894
13646TIP3    H162353   3.291   4.912   4.344 -1.2128  0.2173  2.0177
13646TIP3    H262354   3.289   5.055   4.293 -0.8712 -0.0679  1.1993
13647TIP3   OH262355   4.220   1.620  12.278  0.0988 -0.6621  0.4854
13647TIP3    H162356   4.128   1.604  12.298 -0.5335  0.2067 -1.4767
13647TIP3    H262357   4.231   1.715  12.285  0.7403 -0.7123  0.3019
13648TIP3   OH262358   3.138   3.228   0.099  0.0594  0.4196 -0.0222
13648TIP3    H162359   3.114   3.193   0.185 -1.4326  2.4199  0.4401
13648TIP3    H262360   3.218   3.180   0.076  0.2498 -0.5026  2.2477
13649TIP3   OH262361   5.295   4.122  12.863  0.2079  0.1548 -0.2727
13649TIP3    H162362   5.342   4.039  12.860 -0.3814 -0.3506  2.1668
13649TIP3    H262363   5.241   4.122  12.784  2.6870 -0.1571 -2.0845
13650TIP3   OH262364   3.107   0.350  14.472 -0.5920 -0.0118 -0.1025
13650TIP3    H162365   3.197   0.318  14.476 -0.1535  0.7848 -2.4626
13650TIP3    H262366   3.054   0.276  14.502  0.7930 -0.5861  1.0546
13651TIP3   OH262367   5.530   0.922  16.983  0.1085  0.0444 -0.7952
13651TIP3    H162368   5.583   0.938  16.905  1.6307 -1.7942 -0.2356
13651TIP3    H262369   5.462   0.861  16.954 -0.1964  0.4662 -0.9762
13652TIP3   OH262370   4.065   4.411  10.746 -0.5392  0.8569  0.2517
13652TIP3    H162371   4.027   4.451  10.824  0.3097  0.0841  1.0864
13652TIP3    H262372   4.145   4.462  10.729  0.4317 -0.2828  1.1913
13653TIP3   OH262373   6.748   3.758  13.693  0.5184 -0.2758  0.3818
13653TIP3    H162374   6.813   3.710  13.643  0.7549  0.7837 -0.3573
13653TIP3    H262375   6.694   3.690  13.734 -1.7047 -1.3651 -3.8269
13654TIP3   OH262376   0.318   3.929   2.649  0.4297  0.1828  0.2874
13654TIP3    H162377   0.376   4.005   2.644 -0.7623  1.1734  0.7138
13654TIP3    H262378   0.234   3.966   2.679  0.4598 -1.6086  2.9644
13655TIP3   OH262379   4.173   4.672  15.686 -0.3469  0.2586  0.1484
13655TIP3    H162380   4.160   4.671  15.591 -0.9410  1.2083  0.2007
13655TIP3    H262381   4.085   4.671  15.722 -0.1449 -2.2856  0.7848
13656TIP3   OH262382   0.895   1.826  16.081 -0.5843 -0.2083  0.4120
13656TIP3    H162383   0.857   1.902  16.125 -2.7327  0.3569 -2.1280
13656TIP3    H262384   0.820   1.778  16.046  0.7166 -3.4817  1.7362
13657TIP3   OH262385   5.819   0.585  15.767 -0.0254  0.1358  0.6145
13657TIP3    H162386   5.889   0.532  15.729  0.3694  0.5008  0.8291
13657TIP3    H262387   5.742   0.527  15.767  0.1883 -0.1532  0.0653
13658TIP3   OH262388   5.658   5.395  15.516 -0.5528 -0.0814 -0.8995
13658TIP3    H162389   5.628   5.455  15.447  0.1044  0.1893 -0.9555
13658TIP3    H262390   5.721   5.446  15.566  2.5529 -1.6338 -2.8894
13659TIP3   OH262391   4.774   5.825   2.793 -0.0937 -0.6238  0.2597
13659TIP3    H162392   4.823   5.903   2.767 -2.0760  0.4821 -0.3603
13659TIP3    H262393   4.748   5.784   2.710  0.8492 -1.9230  0.5793
13660TIP3   OH262394   2.118   2.510   4.012 -0.2487 -0.1840  0.2637
13660TIP3    H162395   2.119   2.415   4.017 -0.8563 -0.1793  0.5554
13660TIP3    H262396   2.055   2.537   4.079 -0.6797  0.3751 -0.3482
13661TIP3   OH262397   0.582   6.737  12.366 -0.4420 -0.2440 -0.0402
13661TIP3    H162398   0.638   6.754  12.441  1.3357  0.2866 -1.4142
13661TIP3    H262399   0.569   6.642  12.366  1.6475 -0.5704 -0.4476
13662TIP3   OH262400   2.631   3.030   1.267 -0.3538 -0.5716  0.1144
13662TIP3    H162401   2.664   3.095   1.330  0.7962 -2.3830  1.5083
13662TIP3    H262402   2.537   3.047   1.261 -0.6736 -0.7980  3.0137
13663TIP3   OH262403   4.930   5.707   4.238  0.0990  0.6263 -0.0484
13663TIP3    H162404   4.974   5.791   4.227  1.2777 -0.1109 -1.3597
13663TIP3    H262405   4.997   5.642   4.217 -0.9060 -0.6349  0.4978
13664TIP3   OH262406   2.177   0.153   5.893 -0.4089 -0.2506  0.0623
13664TIP3    H162407   2.266   0.185   5.878 -1.2760  1.4023 -2.1439
13664TIP3    H262408   2.149   0.196   5.974  0.7505 -0.7545  0.7442
13665TIP3   OH262409   5.166   4.004   3.819  0.6064  0.0430 -0.4090
13665TIP3    H162410   5.161   3.957   3.902  1.9392  2.6718  1.3317
13665TIP3    H262411   5.258   4.001   3.795  0.5277  0.7520 -0.8488
13666TIP3   OH262412   3.990   0.071   4.829 -0.1632 -0.6077 -0.3022
13666TIP3    H162413   3.922   0.011   4.799 -0.7278  0.5417 -1.3562
13666TIP3    H262414   3.948   0.156   4.833  0.7865 -0.1573  0.6207
13667TIP3   OH262415   0.570   3.317   6.510 -0.1883  0.3161 -0.4146
13667TIP3    H162416   0.605   3.296   6.423  2.6009 -1.5775  0.9866
13667TIP3    H262417   0.628   3.385   6.543  0.7856 -1.1415  1.0522
13668TIP3   OH262418   1.621   5.026  14.972 -0.1383  0.1371 -0.3096
13668TIP3    H162419   1.532   5.061  14.975  0.1470  1.2286 -2.5212
13668TIP3    H262420   1.646   5.032  14.880  2.5368  0.6382  0.3708
13669TIP3   OH262421   3.345   1.376  15.060  0.2715  0.3323  0.6367
13669TIP3    H162422   3.434   1.363  15.029 -0.0205  1.5297 -0.8563
13669TIP3    H262423   3.354   1.399  15.152  1.3966 -0.6825  0.8054
13670TIP3   OH262424   0.019   6.384   0.145 -0.6934 -0.2229 -0.1328
13670TIP3    H162425  -0.016   6.301   0.110  1.1608 -0.8101 -0.6921
13670TIP3    H262426   0.042   6.435   0.067  0.7837 -0.3586  0.1836
13671TIP3   OH262427   4.320   4.072  16.167 -0.0213  0.4392 -0.1067
13671TIP3    H162428   4.373   4.037  16.239 -1.6096 -0.7659  0.5266
13671TIP3    H262429   4.357   4.031  16.088  1.3821  1.3488  0.0382
13672TIP3   OH262430   6.386   5.686   1.305 -0.1361  0.0622 -0.0084
13672TIP3    H162431   6.462   5.683   1.247  0.8934 -1.5026  1.3440
13672TIP3    H262432   6.332   5.612   1.277  0.8526 -1.3333  1.5741
13673TIP3   OH262433   0.995   0.888   0.464  0.3181  0.2598  0.1411
13673TIP3    H162434   0.968   0.796   0.459 -0.4865  0.4680  0.5001
13673TIP3    H262435   1.080   0.890   0.420  0.9092 -0.8644  1.1564
13674TIP3   OH262436   0.268   0.136   2.199  0.2119 -0.9254  0.5277
13674TIP3    H162437   0.283   0.174   2.113 -2.1758 -0.1507  0.3881
13674TIP3    H262438   0.235   0.048   2.181  0.6346 -1.1188  0.6888
13675TIP3   OH262439   6.020   4.866  10.343 -0.1862 -0.1333  0.0488
13675TIP3    H162440   5.989   4.956  10.334 -2.0737 -0.7915 -0.6990
13675TIP3    H262441   5.945   4.819  10.381  0.5980 -1.4536  0.0265
13676TIP3   OH262442   4.978   5.785  13.285 -0.2785 -0.0605 -0.6166
13676TIP3    H162443   5.011   5.783  13.196  0.6410  1.4724 -0.3450
13676TIP3    H262444   5.033   5.850  13.330 -1.4731  0.0635  0.7502
13677TIP3   OH262445   5.054   5.641  13.006 -0.2963 -0.1757 -0.4702
13677TIP3    H162446   4.989   5.595  13.060  1.2532 -1.5600  0.3089
13677TIP3    H262447   5.016   5.642  12.919 -1.2081 -1.2968 -0.1150
13678TIP3   OH262448   1.546   1.091  12.868  0.2447 -0.1470  0.8445
13678TIP3    H162449   1.463   1.137  12.878  0.3060 -0.1216  1.2539
13678TIP3    H262450   1.612   1.155  12.893  0.5856  0.6345 -1.7276
13679TIP3   OH262451   3.265   3.965  15.879  0.4742 -0.0887  0.3705
13679TIP3    H162452   3.336   3.914  15.840 -0.6085 -0.9097 -0.5673
13679TIP3    H262453   3.309   4.021  15.943  1.9175 -0.8724  0.1084
13680TIP3   OH262454   5.363   1.455   3.427 -0.1262 -0.0212  0.0660
13680TIP3    H162455   5.428   1.392   3.396 -1.0259 -0.7822 -0.2858
13680TIP3    H262456   5.413   1.513   3.486  0.6844 -1.1288  0.5083
13681TIP3   OH262457   2.447   5.543  16.394  0.5997  0.0110 -0.0852
13681TIP3    H162458   2.488   5.561  16.309 -0.4111  0.4867 -0.4828
13681TIP3    H262459   2.354   5.536  16.375  0.1225  1.9539  1.2393
13682TIP3   OH262460   3.891   0.585  14.785 -0.2835  0.2225  0.2968
13682TIP3    H162461   3.890   0.598  14.880 -2.6744 -2.2302  0.7237
13682TIP3    H262462   3.875   0.492  14.773  1.6532  0.1123 -2.5569
13683TIP3   OH262463   1.804   5.072   3.351  0.0031  0.2583  0.3519
13683TIP3    H162464   1.752   5.012   3.298  0.7718  0.0131 -0.1446
13683TIP3    H262465   1.885   5.024   3.369  0.4750  0.9980  0.2555
13684TIP3   OH262466   5.533   0.068   1.529 -0.1454  0.2595 -0.3167
13684TIP3    H162467   5.583   0.047   1.607  0.9678 -3.1824 -1.7511
13684TIP3    H262468   5.498  -0.017   1.500 -2.8708  1.8314 -2.0307
13685TIP3   OH262469   6.388   1.688  10.827  0.0801  0.5680 -0.7133
13685TIP3    H162470   6.455   1.752  10.806 -0.5379  0.8597 -1.8830
13685TIP3    H262471   6.423   1.605  10.795  0.2699  0.5589 -0.4854
13686TIP3   OH262472   0.599   1.797   5.073  0.2943 -0.5811 -0.4760
13686TIP3    H162473   0.554   1.880   5.060  1.6862  0.1836 -0.6148
13686TIP3    H262474   0.533   1.731   5.054 -1.1720  0.4640  0.7293
13687TIP3   OH262475   4.378   0.333   2.537 -0.1015  0.1420  0.4389
13687TIP3    H162476   4.370   0.361   2.629  1.4350 -1.6208  1.1769
13687TIP3    H262477   4.355   0.241   2.538  0.1551  0.0453 -0.9273
13688TIP3   OH262478   3.142   5.839   5.983  0.2013  0.2094  0.0521
13688TIP3    H162479   3.218   5.795   6.021 -0.0324  0.6538  1.0804
13688TIP3    H262480   3.122   5.909   6.045 -0.5614  0.6003 -0.6148
13689TIP3   OH262481   6.021   1.033  16.218 -0.3700 -0.5105 -0.2463
13689TIP3    H162482   6.021   1.114  16.270 -2.4955  1.5842 -3.1581
13689TIP3    H262483   6.110   1.028  16.182 -0.0416  0.1934  0.4396
13690TIP3   OH262484   2.788   6.766  13.332 -0.1015  0.4027 -0.2358
13690TIP3    H162485   2.779   6.678  13.295  2.8208 -0.1787  0.2394
13690TIP3    H262486   2.748   6.760  13.419  1.0020 -0.8133  0.2185
13691TIP3   OH262487   4.545   6.176   1.979  0.5429  0.1845  0.4615
13691TIP3    H162488   4.584   6.133   2.055  2.1521 -1.2794 -1.1013
13691TIP3    H262489   4.613   6.236   1.949 -0.2424  1.0601  0.3952
13692TIP3   OH262490   0.351   5.546   1.230  0.1853  1.0633 -0.2168
13692TIP3    H162491   0.330   5.459   1.195 -0.6362  1.1447  0.0541
13692TIP3    H262492   0.319   5.544   1.320 -0.0568  1.7264 -0.2870
13693TIP3   OH262493   0.898   5.254  11.165  0.0255  0.1060  0.1578
13693TIP3    H162494   0.944   5.285  11.087 -0.3947  2.3676  0.7600
13693TIP3    H262495   0.968   5.232  11.227  0.3359  1.2549  0.2248
13694TIP3   OH262496   3.943   1.237  16.560  0.4656 -0.2434 -0.2352
13694TIP3    H162497   3.995   1.316  16.571 -0.4523  0.2688  0.5884
13694TIP3    H262498   3.978   1.176  16.625 -0.3868  0.3446  0.8045
13695TIP3   OH262499   3.754   4.553  13.620 -0.3247 -0.2491  0.0150
13695TIP3    H162500   3.848   4.554  13.637 -0.3736  0.4067  0.2609
13695TIP3    H262501   3.716   4.506  13.694 -0.0296 -2.1494 -0.9865
13696TIP3   OH262502   0.943   4.103  11.293  0.2307 -0.2372  0.6720
13696TIP3    H162503   0.862   4.155  11.292 -1.2434 -2.3007  2.3252
13696TIP3    H262504   1.009   4.163  11.327 -1.2620  0.7552  1.9889
13697TIP3   OH262505   3.088   5.258   1.968 -0.1433  0.0971  0.1160
13697TIP3    H162506   3.163   5.242   1.911  0.1243 -0.1014  0.5197
13697TIP3    H262507   3.061   5.348   1.948 -0.2340 -0.0669 -0.5256
13698TIP3   OH262508   2.763   0.686   3.151 -0.2904 -0.6100  0.5050
13698TIP3    H162509   2.690   0.681   3.090  0.5669 -0.3396 -0.5897
13698TIP3    H262510   2.840   0.666   3.097  0.5717  0.3543  1.3416
13699TIP3   OH262511   2.538   6.771   4.035  0.8524  0.3670 -0.3673
13699TIP3    H162512   2.506   6.779   3.945  1.4165 -0.8124 -0.7072
13699TIP3    H262513   2.468   6.807   4.089 -2.1982 -3.9335 -0.8885
13700TIP3   OH262514   5.294   5.661   1.309  0.9843  0.0069  0.0781
13700TIP3    H162515   5.338   5.592   1.260 -1.2298 -1.9047  0.6120
13700TIP3    H262516   5.263   5.617   1.388 -0.2019  1.7102  0.5978
13701TIP3   OH262517   3.942   0.163  10.591  0.1530  0.2127 -0.0750
13701TIP3    H162518   3.876   0.096  10.573  0.5087 -0.4673  1.0112
13701TIP3    H262519   3.974   0.141  10.679  2.0621  0.3217 -0.7052
13702TIP3   OH262520   2.901   0.675   3.389 -0.2542  0.0884 -0.1582
13702TIP3    H162521   2.957   0.603   3.362 -1.8234 -1.1860 -0.1617
13702TIP3    H262522   2.836   0.683   3.319 -1.0162  0.4831  0.5718
13703TIP3   OH262523   5.857   3.559  11.298 -0.4571  0.5427 -0.2307
13703TIP3    H162524   5.803   3.631  11.330 -0.0577 -0.2592  2.5512
13703TIP3    H262525   5.794   3.489  11.277 -0.6818  0.4162  0.7809
13704TIP3   OH262526   3.302   2.611   5.049  0.4920  0.1383 -0.6698
13704TIP3    H162527   3.376   2.573   5.095  1.3856  2.3490 -0.1218
13704TIP3    H262528   3.238   2.630   5.118  0.5158  0.6109 -0.7749
13705TIP3   OH262529   1.660   1.977  13.844 -0.0510 -0.0432 -0.2025
13705TIP3    H162530   1.736   1.999  13.790  2.2570  1.4691  3.2492
13705TIP3    H262531   1.630   2.061  13.879 -2.8082 -0.7277 -0.6973
13706TIP3   OH262532   1.323   6.365  11.119  0.2003 -0.1030  0.2242
13706TIP3    H162533   1.260   6.412  11.174 -2.9002 -1.3948 -2.0104
13706TIP3    H262534   1.313   6.273  11.144  0.4309 -0.4445 -0.9013
13707TIP3   OH262535   0.760   4.287  14.637  0.2485  0.4103  0.0592
13707TIP3    H162536   0.745   4.304  14.730 -1.8417 -0.0188 -0.1495
13707TIP3    H262537   0.760   4.191  14.630  1.6582  0.4033 -0.2445
13708TIP3   OH262538   0.682   5.676  14.685  0.8269 -0.3776  0.3928
13708TIP3    H162539   0.682   5.624  14.765  1.2246  1.6403  1.7649
13708TIP3    H262540   0.606   5.733  14.692  2.8012  2.3580  1.1638
13709TIP3   OH262541   1.211   5.016  16.460  0.0100  0.6219 -0.0670
13709TIP3    H162542   1.124   5.051  16.440 -0.9866 -0.2002  2.3809
13709TIP3    H262543   1.214   4.931  16.416 -1.3263 -0.2863  1.4661
13710TIP3   OH262544   1.471   1.941  15.855 -0.0252 -0.0237  0.1986
13710TIP3    H162545   1.406   1.949  15.926 -0.8130  0.8849 -0.5852
13710TIP3    H262546   1.477   2.030  15.819  1.6398 -0.1066  0.2177
13711TIP3   OH262547   2.823   4.122  11.537 -0.3131 -0.2424 -0.4115
13711TIP3    H162548   2.758   4.143  11.470  0.5568  0.1889 -1.1391
13711TIP3    H262549   2.869   4.205  11.553  0.2218 -0.5962 -0.0802
13712TIP3   OH262550   5.056   0.916  15.991 -0.9303  0.1411  0.1615
13712TIP3    H162551   5.018   0.843  15.942 -1.9125 -0.0535  1.1730
13712TIP3    H262552   5.100   0.969  15.925  0.0985 -1.5239 -0.5633
13713TIP3   OH262553   6.198   2.937  14.936 -0.3578 -0.9192 -0.1074
13713TIP3    H162554   6.131   2.961  14.872 -0.7827 -1.7420  0.0177
13713TIP3    H262555   6.236   2.856  14.901 -1.0277 -1.7263  0.9838
13714TIP3   OH262556   3.232   3.744  11.126 -0.2394 -0.5601  0.3336
13714TIP3    H162557   3.213   3.797  11.049  0.3264 -0.3625  0.3292
13714TIP3    H262558   3.148   3.704  11.149 -0.6613  0.2943  0.3081
13715TIP3   OH262559   1.648   6.258   1.929 -0.6750 -0.0702 -0.7080
13715TIP3    H162560   1.684   6.323   1.869  0.6927  0.3759  0.5324
13715TIP3    H262561   1.712   6.253   2.000 -2.0487 -0.8331  0.5305
13716TIP3   OH262562   3.751   4.552  14.183  0.0176 -0.3998  0.0544
13716TIP3    H162563   3.681   4.494  14.153 -1.1042  0.1573  1.4663
13716TIP3    H262564   3.785   4.592  14.103 -2.2906  0.4353 -0.5997
13717TIP3   OH262565   3.018   0.267   2.471  0.0313 -0.1648 -0.2509
13717TIP3    H162566   3.108   0.235   2.477 -0.2867 -0.7890  2.0959
13717TIP3    H262567   2.981   0.221   2.396  0.9818 -1.7515  0.1983
13718TIP3   OH262568   4.794   1.655   0.740  0.1035 -0.3053 -0.0333
13718TIP3    H162569   4.768   1.569   0.774 -0.7578  0.2876  0.8452
13718TIP3    H262570   4.886   1.644   0.716  0.7600 -0.8217  2.4185
13719TIP3   OH262571   1.007   5.051  14.845 -0.0729 -0.4001 -0.1897
13719TIP3    H162572   1.036   5.090  14.763 -2.3351 -0.8663 -1.2786
13719TIP3    H262573   1.054   5.100  14.913 -0.2355  1.8678 -1.6357
13720TIP3   OH262574   6.182   4.430   3.024 -0.5074 -0.1749  0.0849
13720TIP3    H162575   6.134   4.429   3.107  0.9509 -1.1607  0.9589
13720TIP3    H262576   6.187   4.338   2.998  0.0283  0.0134 -0.5075
13721TIP3   OH262577   4.518   4.038  16.378 -0.0945  0.2125  0.1087
13721TIP3    H162578   4.582   4.090  16.329 -0.4459  1.2638  0.7392
13721TIP3    H262579   4.476   4.100  16.437 -0.1004 -0.9202  1.3386
13722TIP3   OH262580   0.366   5.631  13.913 -0.3969  0.2129  0.8313
13722TIP3    H162581   0.281   5.667  13.887 -0.2208  0.0657  0.0148
13722TIP3    H262582   0.415   5.625  13.831  0.1618 -0.3370  1.1959
13723TIP3   OH262583   4.617   4.417   4.691 -0.0134 -0.0495  0.6751
13723TIP3    H162584   4.571   4.487   4.738 -0.9892 -0.6014  0.5777
13723TIP3    H262585   4.693   4.460   4.653 -0.0850  0.7582  1.4005
13724TIP3   OH262586   0.399   2.926   5.142  0.2015  0.6463 -0.2043
13724TIP3    H162587   0.424   3.013   5.173 -0.0323  1.4124 -2.0423
13724TIP3    H262588   0.482   2.880   5.132  0.4864  1.3198 -1.0457
13725TIP3   OH262589   2.082   2.100  13.839  0.1116 -0.0493  0.7448
13725TIP3    H162590   2.020   2.113  13.911 -0.7397  1.2428 -0.1694
13725TIP3    H262591   2.033   2.047  13.776  0.9788 -1.4802  1.2366
13726TIP3   OH262592   3.661   2.841  15.926 -0.0046 -0.3632 -0.0025
13726TIP3    H162593   3.592   2.844  15.993  1.8310  3.3398  2.0462
13726TIP3    H262594   3.619   2.875  15.847 -0.5122  2.8793  1.4733
13727TIP3   OH262595   4.935   5.267   1.480 -0.1548 -0.0733  0.0141
13727TIP3    H162596   4.875   5.193   1.495  0.4128 -0.2831  1.4095
13727TIP3    H262597   4.928   5.319   1.560 -0.7299  1.5555 -1.0513
13728TIP3   OH262598   0.757   5.836  16.955 -0.6432 -0.3533  0.2119
13728TIP3    H162599   0.713   5.920  16.968  0.7401  0.5303 -0.4859
13728TIP3    H262600   0.848   5.853  16.982 -0.4167 -1.7266  0.3705
13729TIP3   OH262601   5.707   6.066  15.786 -0.3894  0.3257  0.2311
13729TIP3    H162602   5.706   6.063  15.881 -0.1895 -0.0420  0.2219
13729TIP3    H262603   5.782   6.121  15.764 -1.0228  1.2497  0.2987
13730TIP3   OH262604   1.994   3.928  15.008 -0.2154  0.4756  0.1231
13730TIP3    H162605   2.036   3.886  15.083 -1.3842  0.4608  0.7825
13730TIP3    H262606   2.047   4.007  14.993  1.2189 -0.5304 -0.3230
13731TIP3   OH262607   1.293   1.809  12.494 -0.1222  0.1836  0.8667
13731TIP3    H162608   1.310   1.716  12.504  1.5563  0.2044 -1.1674
13731TIP3    H262609   1.379   1.848  12.480 -1.0571  1.4140 -2.4110
13732TIP3   OH262610   5.551   4.777   0.022 -0.4424  0.0653 -0.0112
13732TIP3    H162611   5.497   4.853   0.003  0.1994  0.5842  0.2183
13732TIP3    H262612   5.534   4.758   0.114 -1.1211 -0.4964 -0.2438
13733TIP3   OH262613   1.741   4.158   5.732  0.3546  0.0179 -0.2106
13733TIP3    H162614   1.823   4.135   5.776  0.2504 -1.0465 -0.5417
13733TIP3    H262615   1.753   4.249   5.705  0.8019  0.3723  1.1213
13734TIP3   OH262616   0.646   4.824  12.706  0.3272  0.9143 -0.2826
13734TIP3    H162617   0.713   4.784  12.761  1.9404  0.9314 -2.1269
13734TIP3    H262618   0.612   4.753  12.652 -0.4232  1.1026 -0.0758
13735TIP3   OH262619   1.286   0.297   1.477 -0.1176 -0.0459 -0.7622
13735TIP3    H162620   1.245   0.211   1.463  1.0798 -0.7930  0.0975
13735TIP3    H262621   1.223   0.344   1.531  0.0179 -1.0947  0.3590
13736TIP3   OH262622   5.120   5.345   0.463 -0.0578  0.0627 -1.2693
13736TIP3    H162623   5.083   5.379   0.382 -3.2977 -2.0752 -0.9181
13736TIP3    H262624   5.048   5.351   0.526  1.4392 -0.9207  0.6489
13737TIP3   OH262625   2.625   3.320   3.532  0.4316  0.6556 -0.0519
13737TIP3    H162626   2.616   3.378   3.607 -0.6475  2.2432 -1.3493
13737TIP3    H262627   2.719   3.308   3.522  0.6022 -0.3924  2.0905
13738TIP3   OH262628   2.912   6.272  11.395 -0.0040 -0.0089 -0.5347
13738TIP3    H162629   2.829   6.255  11.351 -1.3866  0.7177  1.6073
13738TIP3    H262630   2.964   6.320  11.331 -1.9032  0.9840 -1.4184
13739TIP3   OH262631   5.436   1.934  11.404 -0.0900  0.0179 -0.0328
13739TIP3    H162632   5.408   1.926  11.313 -0.8237  0.7266  0.1208
13739TIP3    H262633   5.377   1.999  11.442  1.0835  0.7521  0.5996
13740TIP3   OH262634   5.335   3.480  17.089 -0.7241 -0.7465 -0.0207
13740TIP3    H162635   5.405   3.441  17.037 -1.3548 -0.8309 -0.8289
13740TIP3    H262636   5.281   3.528  17.025 -0.6393  0.4600  0.7733
13741TIP3   OH262637   4.346   3.914   1.864 -0.2288  0.2626  0.3877
13741TIP3    H162638   4.317   3.833   1.904  0.0491 -0.5014 -0.9013
13741TIP3    H262639   4.441   3.914   1.876 -0.0908 -0.1942 -0.6383
13742TIP3   OH262640   3.859   0.990   3.382  0.2145  0.2008 -0.6019
13742TIP3    H162641   3.936   1.043   3.362  0.3566  0.6428  0.9878
13742TIP3    H262642   3.786   1.051   3.376  0.1694  0.1546 -0.5147
13743TIP3   OH262643   2.985   0.376   5.672  0.4270 -0.0622  0.6715
13743TIP3    H162644   2.950   0.365   5.760  1.7760  1.5015  1.4626
13743TIP3    H262645   2.909   0.374   5.615 -0.5028 -0.7992  1.8923
13744TIP3   OH262646   4.832   6.321   1.482 -0.2817 -0.4987 -0.3469
13744TIP3    H162647   4.853   6.329   1.389  0.1727  3.4116 -0.0757
13744TIP3    H262648   4.739   6.344   1.488 -0.5836 -1.7463  0.1153
13745TIP3   OH262649   5.674   0.151   6.177  0.3090  0.0178 -0.1553
13745TIP3    H162650   5.655   0.125   6.268 -0.3227 -1.5680 -0.6978
13745TIP3    H262651   5.626   0.233   6.165  0.7971  0.5026  1.0880
13746TIP3   OH262652   0.488   5.070   5.392  0.1054  0.3017  0.1068
13746TIP3    H162653   0.524   5.157   5.380 -0.9760  0.7041 -0.4057
13746TIP3    H262654   0.489   5.056   5.487  2.2603 -0.0344  0.0861
13747TIP3   OH262655   2.316   1.178   3.019  0.0388 -0.3230  0.1939
13747TIP3    H162656   2.346   1.096   2.979  0.2600 -0.3514  0.4178
13747TIP3    H262657   2.314   1.241   2.947  1.2840 -0.1468  0.2999
13748TIP3   OH262658   2.912   4.685   0.582  0.1341 -0.0598  0.3842
13748TIP3    H162659   2.890   4.596   0.557  0.6711 -0.2176  0.4520
13748TIP3    H262660   2.846   4.710   0.647  1.3652 -1.3190  2.2473
13749TIP3   OH262661   0.844   4.062  11.592 -0.4254 -0.2604  0.0824
13749TIP3    H162662   0.869   3.989  11.534  0.1497 -0.0944  0.1137
13749TIP3    H262663   0.847   4.139  11.535 -0.5029 -0.1847  0.1809
13750TIP3   OH262664   6.580   3.838  14.981  0.2182 -0.3082  0.1964
13750TIP3    H162665   6.536   3.759  15.013 -0.3330 -0.6066 -1.2542
13750TIP3    H262666   6.565   3.838  14.887 -0.5487  2.0021  0.2496
13751TIP3   OH262667   5.273   5.198  14.017 -0.1703 -0.4067  1.0847
13751TIP3    H162668   5.288   5.290  14.036 -0.2109 -0.5078  1.6076
13751TIP3    H262669   5.301   5.151  14.096 -1.4460 -0.7415  1.3700
13752TIP3   OH262670   2.935   5.649  15.399 -0.2214  0.0498  0.0122
13752TIP3    H162671   2.939   5.691  15.485  0.6616  2.3414 -1.0899
13752TIP3    H262672   2.987   5.569  15.409 -0.4396  0.0759  1.6695
13753TIP3   OH262673   1.812   0.655   5.801 -0.1140  0.0449 -0.0692
13753TIP3    H162674   1.809   0.750   5.801  0.6107  0.0784 -0.4677
13753TIP3    H262675   1.888   0.633   5.855 -0.7124 -0.3373  0.6339
13754TIP3   OH262676   6.630   1.892   0.080 -0.6139  0.4342  0.6224
13754TIP3    H162677   6.609   1.801   0.060  1.2921 -0.0916  0.8336
13754TIP3    H262678   6.566   1.917   0.147 -1.2631 -0.6765  0.4386
13755TIP3   OH262679   6.386   1.167  15.758 -0.0031  0.5701 -0.0515
13755TIP3    H162680   6.370   1.073  15.756 -1.1715  0.7395  0.5602
13755TIP3    H262681   6.309   1.206  15.715  1.6191  1.1673 -2.6988
13756TIP3   OH262682   3.889   2.365   1.651 -0.4264  0.4692 -0.7023
13756TIP3    H162683   3.854   2.420   1.721 -0.4089  0.1820 -0.4632
13756TIP3    H262684   3.963   2.319   1.692  1.0162  1.9448 -1.5112
13757TIP3   OH262685   4.555   1.606   5.119  0.1634 -0.2291  0.2098
13757TIP3    H162686   4.520   1.648   5.040  0.2499 -1.1018 -0.2988
13757TIP3    H262687   4.610   1.673   5.159  0.1313  0.2131 -0.4803
13758TIP3   OH262688   2.617   1.774  15.798  0.0784 -0.0676 -0.0279
13758TIP3    H162689   2.595   1.716  15.870 -0.7576  0.2993  0.0242
13758TIP3    H262690   2.593   1.861  15.829 -0.5091  0.0696 -0.8278
13759TIP3   OH262691   0.213   3.500  17.031 -0.4005  0.0009 -0.2130
13759TIP3    H162692   0.162   3.475  17.109 -0.9075 -1.2316 -0.9089
13759TIP3    H262693   0.190   3.434  16.966 -0.3998  1.3108 -1.5967
13760TIP3   OH262694   5.288   5.346  15.001  0.1142  0.2721 -0.5847
13760TIP3    H162695   5.202   5.373  15.031 -0.4847 -1.1761 -0.9206
13760TIP3    H262696   5.297   5.383  14.913 -0.6864 -0.5791 -1.0369
13761TIP3   OH262697   6.216   6.231  14.471  0.3268 -0.3557 -0.1983
13761TIP3    H162698   6.133   6.184  14.467 -0.5643  1.1391  0.0366
13761TIP3    H262699   6.282   6.162  14.475 -0.9514 -1.5802  0.7856
13762TIP3   OH262700   6.025   0.515   2.645  0.0584 -0.1858  0.2426
13762TIP3    H162701   5.965   0.482   2.711  0.1822  1.9180  1.5018
13762TIP3    H262702   6.112   0.489   2.676  0.0141 -0.5624  0.0562
13763TIP3   OH262703   1.944   0.675   2.801  0.3058 -0.2827  0.1626
13763TIP3    H162704   1.978   0.646   2.717 -1.0961 -0.8639 -0.2135
13763TIP3    H262705   1.941   0.596   2.855 -0.4174 -0.2339  0.2005
13764TIP3   OH262706   1.895   6.269   5.124 -0.6000 -0.1175  0.1669
13764TIP3    H162707   1.955   6.197   5.146 -0.9394  0.0134  1.6605
13764TIP3    H262708   1.947   6.348   5.139 -0.2642 -0.0142 -1.3584
13765TIP3   OH262709   4.547   6.467  15.259 -0.1851  0.3191  0.7361
13765TIP3    H162710   4.481   6.536  15.258  0.6154  1.1050  0.7936
13765TIP3    H262711   4.498   6.388  15.281 -1.6092  0.3101 -2.0336
13766TIP3   OH262712   4.829   0.997   5.677 -0.5187 -0.8367  0.0522
13766TIP3    H162713   4.804   1.038   5.760  1.0951 -2.2792  1.3283
13766TIP3    H262714   4.914   0.956   5.695  0.1515 -0.7349 -2.4844
13767TIP3   OH262715   4.918   0.723  15.260  0.0427  0.2764 -0.3323
13767TIP3    H162716   5.001   0.720  15.307 -0.5146 -0.4674  0.6616
13767TIP3    H262717   4.900   0.816  15.249  1.4769  0.4474 -1.4565
13768TIP3   OH262718   5.305   4.948   2.336  0.2573  0.1750 -0.0075
13768TIP3    H162719   5.365   4.900   2.393  0.2753  0.1303 -0.0641
13768TIP3    H262720   5.278   5.024   2.388 -0.9930 -0.7095  0.7014
13769TIP3   OH262721   2.071   1.281  13.881 -0.4227  0.0364 -0.2816
13769TIP3    H162722   2.165   1.280  13.899 -0.1604 -0.4751 -1.5889
13769TIP3    H262723   2.056   1.366  13.838 -0.7920  0.6273  0.9528
13770TIP3   OH262724   0.001   5.523  11.277 -0.4295 -0.2193 -0.3164
13770TIP3    H162725   0.059   5.597  11.294 -0.3187  0.0632 -1.7932
13770TIP3    H262726  -0.082   5.548  11.318 -0.6458  1.1293 -1.4841
13771TIP3   OH262727   2.259   1.030   0.445  0.0002  0.2716 -0.1944
13771TIP3    H162728   2.298   1.055   0.362  0.2553 -0.1556 -0.2089
13771TIP3    H262729   2.327   0.977   0.488 -0.3964 -0.1037 -0.0249
13772TIP3   OH262730   6.779   0.565  16.588 -0.0465  0.0725  0.1358
13772TIP3    H162731   6.805   0.645  16.632 -1.0478  0.8631 -0.6755
13772TIP3    H262732   6.685   0.557  16.604 -0.1150 -0.5033 -0.4765
13773TIP3   OH262733   2.245   5.582   0.127 -0.3669 -0.0470  0.0920
13773TIP3    H162734   2.326   5.632   0.115 -0.2448  0.2366  1.7796
13773TIP3    H262735   2.245   5.558   0.220 -2.1681 -0.1185  0.1188
13774TIP3   OH262736   5.708   0.304  13.683 -0.6763  0.3080 -0.0255
13774TIP3    H162737   5.722   0.346  13.767 -1.7772 -0.7149  0.7004
13774TIP3    H262738   5.622   0.263  13.690 -0.2163 -0.9535 -1.1624
13775TIP3   OH262739   5.609   2.197  11.201 -0.0580  0.0295 -0.1883
13775TIP3    H162740   5.540   2.216  11.137  0.0453 -1.7093 -0.8525
13775TIP3    H262741   5.686   2.175  11.148  0.5963  0.4432  0.5526
13776TIP3   OH262742   3.783   2.126  13.421 -0.0200  0.2753  0.2623
13776TIP3    H162743   3.864   2.110  13.469  0.3174  0.6527 -0.1736
13776TIP3    H262744   3.754   2.213  13.451  1.1543  1.3370 -1.5179
13777TIP3   OH262745   6.780   1.963   5.695  0.1316  0.3403 -0.6723
13777TIP3    H162746   6.814   1.946   5.783  0.5059 -2.1421 -1.2203
13777TIP3    H262747   6.708   2.025   5.709  0.1704 -0.0003  1.3823
13778TIP3   OH262748   3.652   2.556   0.332 -0.0433 -0.0564  0.6753
13778TIP3    H162749   3.701   2.483   0.370  0.5376 -0.9078 -1.5570
13778TIP3    H262750   3.660   2.544   0.238  0.9150  3.4488  0.1443
13779TIP3   OH262751   2.981   5.779  16.120  0.0142 -0.7718  0.3058
13779TIP3    H162752   2.889   5.803  16.134 -0.2416 -1.4949 -0.0727
13779TIP3    H262753   2.984   5.750  16.029  0.8842  0.3935 -0.0638
13780TIP3   OH262754   1.342   2.457  13.440 -0.2553  0.2337  0.0033
13780TIP3    H162755   1.352   2.435  13.533  0.4462  1.3026  0.1972
13780TIP3    H262756   1.410   2.522  13.423  0.9301 -1.3459 -1.7466
13781TIP3   OH262757   0.834   1.083  14.801 -0.2191  0.2338  0.0865
13781TIP3    H162758   0.914   1.120  14.839 -0.4135 -0.9720  1.7323
13781TIP3    H262759   0.822   0.999  14.845  0.2794 -2.0032 -3.5931
13782TIP3   OH262760   3.544   3.235   5.018  0.1022 -0.0191 -0.2802
13782TIP3    H162761   3.454   3.223   5.048  0.0259  1.1040  0.0215
13782TIP3    H262762   3.550   3.328   4.996  1.8496  0.5558  2.1204
13783TIP3   OH262763   1.024   0.617   0.944  0.3762  0.0545  0.4855
13783TIP3    H162764   1.065   0.674   0.879 -0.0839  0.6192  0.6817
13783TIP3    H262765   0.958   0.568   0.895  1.7139 -1.3544  0.0290
13784TIP3   OH262766   2.494   2.001  17.105 -0.0266  0.0038  0.0849
13784TIP3    H162767   2.406   2.004  17.143 -0.3056 -1.1388 -0.4057
13784TIP3    H262768   2.546   2.060  17.158 -0.5954 -0.9065  1.7204
13785TIP3   OH262769   1.805   2.355  11.221 -0.3598  0.2525 -0.5262
13785TIP3    H162770   1.763   2.392  11.298 -0.2087 -0.8179  0.0879
13785TIP3    H262771   1.733   2.319  11.169 -0.3618 -0.0443 -0.3197
13786TIP3   OH262772   4.881   3.469  16.197  0.1344 -0.7172  0.1508
13786TIP3    H162773   4.800   3.516  16.216  0.5233 -0.2207  0.5947
13786TIP3    H262774   4.874   3.446  16.104 -0.0011  0.3336 -0.1128
13787TIP3   OH262775   2.411   1.157   2.127 -0.1461  0.0537 -0.2427
13787TIP3    H162776   2.343   1.097   2.097 -0.0285  1.0403 -2.7515
13787TIP3    H262777   2.488   1.135   2.074  0.6147  0.8112  0.5194
13788TIP3   OH262778   5.234   3.406  11.205  0.5603 -0.0712  0.1699
13788TIP3    H162779   5.288   3.465  11.152  1.4203 -0.8893  0.1010
13788TIP3    H262780   5.279   3.322  11.199 -0.9477 -0.8864 -0.2115
13789TIP3   OH262781   3.898   3.737   2.098  0.4839  0.2535  0.3173
13789TIP3    H162782   3.918   3.804   2.032 -0.6900  0.3467  0.0465
13789TIP3    H262783   3.935   3.657   2.061  0.3570  0.4190 -0.1802
13790TIP3   OH262784   5.345   2.824   5.937  0.1872  0.1039  0.5186
13790TIP3    H162785   5.415   2.799   5.877  0.0303  0.0387  0.3630
13790TIP3    H262786   5.316   2.741   5.975  0.6734  0.1998  1.1139
13791TIP3   OH262787   5.491   3.246  14.635  0.0350  0.0284 -0.2882
13791TIP3    H162788   5.576   3.279  14.665 -0.6174  0.5064  1.1294
13791TIP3    H262789   5.440   3.236  14.715 -2.2521  2.6131 -1.2698
13792TIP3   OH262790   0.256   3.281  11.390 -0.0262  0.3844  0.6385
13792TIP3    H162791   0.285   3.293  11.300  1.7636 -0.9439  0.9610
13792TIP3    H262792   0.263   3.368  11.430 -3.2667  1.5572 -1.0482
13793TIP3   OH262793   0.065   6.574  17.067 -0.1925 -0.0546  0.0459
13793TIP3    H162794   0.140   6.632  17.053  0.6578 -0.7226  1.5362
13793TIP3    H262795  -0.005   6.612  17.014  0.8562  1.2696 -0.4590
13794TIP3   OH262796   5.166   2.433  15.216 -0.8092  0.5250  0.2993
13794TIP3    H162797   5.130   2.520  15.232  1.7341  1.7656 -0.1108
13794TIP3    H262798   5.222   2.445  15.139  1.2953 -0.9182  1.4995
13795TIP3   OH262799   5.476   6.645   5.046 -0.1474  0.2664 -0.4234
13795TIP3    H162800   5.403   6.707   5.049  1.0901  1.7692  0.8196
13795TIP3    H262801   5.490   6.630   4.952  0.2686  2.9139 -0.8869
13796TIP3   OH262802   3.970   1.974   1.502  0.3814  0.6022 -0.5705
13796TIP3    H162803   3.917   2.054   1.491 -0.3918 -0.0197 -1.6534
13796TIP3    H262804   3.906   1.903   1.503  1.1186 -0.0773 -0.5588
13797TIP3   OH262805   5.062   1.462   6.437 -0.6026 -0.2653 -0.5531
13797TIP3    H162806   5.027   1.544   6.403  0.3290  0.0485 -0.7915
13797TIP3    H262807   5.142   1.447   6.386 -0.6589 -1.2234 -0.3855
13798TIP3   OH262808   6.705   1.562  13.677 -0.2911  0.5202  0.3160
13798TIP3    H162809   6.765   1.535  13.747 -0.7986 -1.2596  0.1109
13798TIP3    H262810   6.713   1.495  13.610  0.2356  2.2251 -1.4392
13799TIP3   OH262811   0.239   2.633  11.967  0.2138  0.0442 -0.3195
13799TIP3    H162812   0.267   2.723  11.953  0.7127  0.4496  2.6323
13799TIP3    H262813   0.317   2.580  11.952  0.2306  0.2178 -0.8571
13800TIP3   OH262814   5.673   6.012  11.362  0.2843  0.5951 -0.5206
13800TIP3    H162815   5.701   5.938  11.309 -1.8744  0.1834 -1.1909
13800TIP3    H262816   5.718   6.088  11.325  1.1361 -0.1186 -0.9690
13801TIP3   OH262817   0.734   1.622   0.440 -0.3760  0.4442  0.1753
13801TIP3    H162818   0.691   1.703   0.413 -0.8075  0.0382 -0.3768
13801TIP3    H262819   0.683   1.552   0.399  0.0592 -0.1071  0.5450
13802TIP3   OH262820   6.176   4.656   4.488  0.1050 -0.0412 -0.4411
13802TIP3    H162821   6.193   4.632   4.397 -0.9763 -2.2695 -0.1119
13802TIP3    H262822   6.248   4.616   4.537 -0.7874 -1.2523 -0.0658
13803TIP3   OH262823   0.635   0.774  16.785  0.2572 -0.6867  0.4712
13803TIP3    H162824   0.724   0.806  16.801 -0.1401  0.0087  1.4331
13803TIP3    H262825   0.596   0.768  16.872 -2.1378  3.5600 -0.0123
13804TIP3   OH262826   5.708   4.946  16.859 -0.6450  0.2961 -0.1301
13804TIP3    H162827   5.617   4.919  16.869 -0.5244 -2.4692 -4.2196
13804TIP3    H262828   5.704   5.030  16.814 -1.2858 -0.3671 -1.3733
13805TIP3   OH262829   4.438   5.104   1.446  0.4698  0.0115 -0.1484
13805TIP3    H162830   4.420   5.116   1.539 -3.0396  0.8134 -0.7704
13805TIP3    H262831   4.392   5.023   1.423 -1.2896  1.3453 -1.6512
13806TIP3   OH262832   4.914   6.722   3.131 -0.5680  0.2997 -0.4445
13806TIP3    H162833   4.969   6.685   3.062 -0.2238 -1.1726  0.5655
13806TIP3    H262834   4.975   6.763   3.193 -0.8600  1.4569 -0.8948
13807TIP3   OH262835   1.974   4.963   1.006 -0.5922  0.0576 -0.3340
13807TIP3    H162836   1.992   4.887   0.951 -1.4382 -1.2343  1.1060
13807TIP3    H262837   1.950   4.926   1.091 -2.0360  1.9072  0.1257
13808TIP3   OH262838   4.118   3.400   4.278 -0.1439  0.3872  0.0363
13808TIP3    H162839   4.184   3.450   4.324  0.2658  0.3167 -0.4653
13808TIP3    H262840   4.167   3.339   4.223 -0.6035  0.6122 -0.6534
13809TIP3   OH262841   3.481   2.972   2.850 -0.3249  0.1204 -0.0078
13809TIP3    H162842   3.537   2.902   2.815  0.4971  1.6979 -2.0426
13809TIP3    H262843   3.397   2.958   2.807 -0.0489  0.5633 -0.7180
13810TIP3   OH262844   5.186   3.427  11.481  0.2413 -1.0017  0.2069
13810TIP3    H162845   5.179   3.424  11.386  0.7234 -2.1043  0.1955
13810TIP3    H262846   5.198   3.336  11.507  3.0787 -0.4591  1.0911
13811TIP3   OH262847   1.625   0.450  15.381  0.1844 -0.4643 -0.0744
13811TIP3    H162848   1.650   0.366  15.419 -1.6689 -1.1229 -0.2143
13811TIP3    H262849   1.589   0.428  15.295  0.3495  0.5670 -0.4284
13812TIP3   OH262850   5.686   3.655   0.518  0.4224 -0.0474  0.6067
13812TIP3    H162851   5.723   3.678   0.432 -0.5779  0.8808  0.3949
13812TIP3    H262852   5.687   3.738   0.566  0.0059 -0.3348  1.1120
13813TIP3   OH262853   1.042   5.483  16.862 -0.0443 -0.1905  0.3270
13813TIP3    H162854   1.102   5.549  16.898  0.5665  0.7946 -2.2571
13813TIP3    H262855   0.958   5.501  16.904  0.6703  0.6351  1.4702
13814TIP3   OH262856   4.276   0.520   3.353  0.2983  0.3320 -0.3185
13814TIP3    H162857   4.317   0.447   3.305  0.0555  0.3819 -0.6063
13814TIP3    H262858   4.293   0.597   3.297 -0.6050  0.2749 -0.6851
13815TIP3   OH262859   5.849   1.006   2.851  0.1273  0.4214  0.2422
13815TIP3    H162860   5.822   1.062   2.924 -0.0553 -0.2296  0.6853
13815TIP3    H262861   5.769   0.993   2.800  0.2305  0.7856 -0.0163
13816TIP3   OH262862   2.245   5.123   2.787 -0.6623  0.0603  0.0389
13816TIP3    H162863   2.274   5.191   2.847  1.2169 -1.4985  1.0099
13816TIP3    H262864   2.204   5.058   2.843 -3.5173  0.8318 -1.0056
13817TIP3   OH262865   6.554   1.396  14.059 -0.6941 -0.4020 -0.5267
13817TIP3    H162866   6.604   1.447  14.123 -0.3125  0.3561 -1.4051
13817TIP3    H262867   6.615   1.382  13.987 -0.4920 -2.8774  0.0165
13818TIP3   OH262868   0.501   4.844   2.106  0.0098  0.0137  0.4586
13818TIP3    H162869   0.413   4.872   2.131 -0.1090  0.9108 -0.8493
13818TIP3    H262870   0.559   4.889   2.169 -0.4316 -0.2684  1.0775
13819TIP3   OH262871   5.401   6.476   4.364 -0.3259  0.0386 -0.0265
13819TIP3    H162872   5.336   6.537   4.330  0.4444  0.7205 -0.2980
13819TIP3    H262873   5.485   6.517   4.346  0.1785 -0.6552  0.6517
13820TIP3   OH262874   5.608   2.009  16.270  0.6977 -0.5842  0.2541
13820TIP3    H162875   5.546   1.941  16.298 -0.1757  0.2120  0.3173
13820TIP3    H262876   5.591   2.019  16.176  0.0312  0.3073  0.4530
13821TIP3   OH262877   1.445   5.712   4.530 -0.1612  0.0683  0.1405
13821TIP3    H162878   1.392   5.722   4.451 -1.1379  1.5355  0.9288
13821TIP3    H262879   1.465   5.801   4.557  0.1154 -0.3969  1.5731
13822TIP3   OH262880   5.925   0.242   1.531  0.7807 -0.1588  0.4708
13822TIP3    H162881   6.003   0.265   1.581  0.8055  0.2782  0.2331
13822TIP3    H262882   5.951   0.252   1.439  0.0040  1.4759  0.4062
13823TIP3   OH262883   6.308   0.898  14.868 -0.1405  0.6277  0.6233
13823TIP3    H162884   6.246   0.861  14.931 -2.2879  1.4779 -0.8771
13823TIP3    H262885   6.375   0.830  14.858 -2.3035 -1.5941  0.2556
13824TIP3   OH262886   2.383   5.589  15.658  0.2179  0.7891  0.2001
13824TIP3    H162887   2.300   5.597  15.612 -0.7774 -0.4197  1.6703
13824TIP3    H262888   2.431   5.669  15.635 -1.4577  1.6627 -0.4599
13825TIP3   OH262889   4.373   0.756   0.362  0.1664 -0.0080 -0.2076
13825TIP3    H162890   4.321   0.827   0.400  2.6211  1.6172  0.3324
13825TIP3    H262891   4.366   0.768   0.268 -0.6129  0.0515 -0.1436
13826TIP3   OH262892   3.277   1.247  16.877  0.4213  0.2995  0.2110
13826TIP3    H162893   3.370   1.267  16.866  0.1533  2.2592  1.0737
13826TIP3    H262894   3.255   1.281  16.964 -1.2771  0.5924 -0.2936
13827TIP3   OH262895   2.916   0.371   3.307 -0.2377 -0.5086  0.1165
13827TIP3    H162896   2.922   0.309   3.235 -0.1487 -0.8110  0.3837
13827TIP3    H262897   2.912   0.317   3.386 -1.1888 -0.2105  0.2889
13828TIP3   OH262898   4.584   2.216  15.982 -0.3523 -0.6651 -0.2428
13828TIP3    H162899   4.555   2.307  15.992 -0.4474 -0.5323 -1.6267
13828TIP3    H262900   4.566   2.195  15.891  1.2837 -1.5151 -0.3987
13829TIP3   OH262901   6.166   2.958   1.398  0.1465 -0.0026  0.1159
13829TIP3    H162902   6.096   3.019   1.378 -1.0541 -0.8210  1.6007
13829TIP3    H262903   6.123   2.872   1.401  0.1702 -0.1512  5.0858
13830TIP3   OH262904   1.906   4.111   1.316  0.0434  0.6298  0.2270
13830TIP3    H162905   1.999   4.091   1.322 -0.2610 -1.4506 -1.1262
13830TIP3    H262906   1.872   4.096   1.404  0.5534 -1.2259  0.1469
13831TIP3   OH262907   3.384   3.137  11.362 -0.2233  0.2501 -0.6932
13831TIP3    H162908   3.395   3.109  11.453 -0.1685 -2.2663 -1.4083
13831TIP3    H262909   3.292   3.164  11.356 -1.2410 -2.8901 -0.6422
13832TIP3   OH262910   2.168   5.939  15.841 -0.2392  0.3198  0.0814
13832TIP3    H162911   2.125   5.854  15.842 -0.0015  0.1811 -0.6560
13832TIP3    H262912   2.146   5.978  15.925 -2.1691  0.4546 -0.4578
13833TIP3   OH262913   2.299   0.165  16.439  0.6737 -0.2662 -0.1066
13833TIP3    H162914   2.326   0.088  16.388  1.0775  0.1176 -0.4756
13833TIP3    H262915   2.275   0.129  16.524  1.2317 -0.7700 -0.1479
13834TIP3   OH262916   5.547   0.987  16.016  0.6578 -0.2809 -0.4063
13834TIP3    H162917   5.633   1.025  16.034  0.9527 -1.5493  1.0838
13834TIP3    H262918   5.559   0.937  15.934  1.0957  0.2551 -0.6715
13835TIP3   OH262919   5.994   2.228   0.432 -0.2333 -0.0822  0.3745
13835TIP3    H162920   6.046   2.249   0.354 -1.7574 -1.4681 -1.0927
13835TIP3    H262921   5.937   2.304   0.444  0.0394  0.1584  0.1625
13836TIP3   OH262922   4.855   4.356  15.264  0.5925  0.0386 -0.0065
13836TIP3    H162923   4.850   4.261  15.260 -1.6645  0.0758  0.6336
13836TIP3    H262924   4.786   4.386  15.205 -0.7156  1.1964  1.9919
13837TIP3   OH262925   5.421   2.214  16.315  0.2637 -0.5115  0.0233
13837TIP3    H162926   5.382   2.217  16.403  1.8226  0.6529  0.7114
13837TIP3    H262927   5.462   2.127  16.311  2.1518  0.2328  1.3968
13838TIP3   OH262928   3.984   1.346  11.308 -0.2301  0.0047  0.2410
13838TIP3    H162929   3.963   1.284  11.238 -0.4024  0.0726  0.2301
13838TIP3    H262930   3.900   1.386  11.330 -0.6505 -1.7656  2.1916
13839TIP3   OH262931   5.935   6.299   2.916  0.4870 -0.1063  0.0060
13839TIP3    H162932   5.962   6.385   2.883  0.2397 -0.4560 -1.1553
13839TIP3    H262933   5.839   6.299   2.906  0.4598 -0.4034  0.2652
13840TIP3   OH262934   1.607   2.863   4.826 -0.2676  0.0048  0.0281
13840TIP3    H162935   1.618   2.781   4.875 -0.2792 -0.7413 -1.1696
13840TIP3    H262936   1.559   2.837   4.747 -1.8644  1.4825  0.4549
13841TIP3   OH262937   0.328   1.401  12.016 -0.5683 -0.4394  0.2299
13841TIP3    H162938   0.401   1.454  11.983  0.6158 -1.3382  1.3351
13841TIP3    H262939   0.263   1.403  11.945  1.0517 -0.6553 -1.3259
13842TIP3   OH262940   0.729   4.566   0.517  0.3246 -0.1390  0.1948
13842TIP3    H162941   0.775   4.482   0.505  0.8202 -0.5464  3.7922
13842TIP3    H262942   0.703   4.592   0.429  1.1533 -3.4995 -1.1952
13843TIP3   OH262943   3.394   5.191  12.590 -0.1092  0.7421 -0.0464
13843TIP3    H162944   3.334   5.248  12.540 -0.6675  0.5470  0.3954
13843TIP3    H262945   3.414   5.120  12.529 -1.1173  0.2866  0.1294
13844TIP3   OH262946   1.099   4.232  15.415  0.0034  0.3250  0.3787
13844TIP3    H162947   1.011   4.269  15.423  0.1594  0.6994  0.4287
13844TIP3    H262948   1.101   4.190  15.330 -0.3643 -0.0629  0.5625
13845TIP3   OH262949   4.671   4.115   4.651  0.7206  0.4235 -0.5198
13845TIP3    H162950   4.745   4.154   4.697  0.0628  1.5860 -0.4053
13845TIP3    H262951   4.597   4.173   4.671 -0.2447 -0.7667 -0.5394
13846TIP3   OH262952   3.932   6.488  12.764 -0.2117 -0.6286 -0.5221
13846TIP3    H162953   4.025   6.464  12.769 -0.3742 -1.3217 -0.7438
13846TIP3    H262954   3.932   6.583  12.753  0.4846 -0.6657 -0.8810
13847TIP3   OH262955   1.518   5.893   1.636 -0.5231  0.3108  0.0054
13847TIP3    H162956   1.474   5.822   1.590  0.0049 -0.4268  0.6058
13847TIP3    H262957   1.577   5.849   1.697  1.1734  1.2381 -0.8741
13848TIP3   OH262958   3.600   5.564  11.381  0.8179 -0.4503 -0.3061
13848TIP3    H162959   3.558   5.617  11.449  0.8262 -0.8705  0.0272
13848TIP3    H262960   3.601   5.475  11.417  3.3870 -0.2265  0.3573
13849TIP3   OH262961   2.515   5.875   4.928 -0.2205 -0.5849  0.6267
13849TIP3    H162962   2.503   5.966   4.956  1.7167  0.3047 -1.2186
13849TIP3    H262963   2.557   5.833   5.003  0.6171  0.5480  0.8156
13850TIP3   OH262964   6.190   4.557   6.436  0.0437 -0.1322 -0.1166
13850TIP3    H162965   6.242   4.523   6.508  0.7679  0.5032 -0.3269
13850TIP3    H262966   6.110   4.505   6.437  0.3971 -0.6708  0.6313
13851TIP3   OH262967   5.439   0.781  11.253  0.5500  0.3447 -0.0758
13851TIP3    H162968   5.455   0.806  11.162 -0.4644 -0.3372 -0.4499
13851TIP3    H262969   5.447   0.686  11.254 -0.4163  0.2596  0.3479
13852TIP3   OH262970   5.491   4.217  15.444  0.2741 -0.1224 -0.2606
13852TIP3    H162971   5.503   4.202  15.538 -2.4479 -0.0920  0.1934
13852TIP3    H262972   5.397   4.203  15.430  0.5674  0.0761 -2.9581
13853TIP3   OH262973   1.892   5.964   3.611 -0.3427 -0.0290  0.4136
13853TIP3    H162974   1.835   5.991   3.539 -0.7225 -0.3068  0.6046
13853TIP3    H262975   1.838   5.904   3.663  0.0684 -0.1603  0.6937
13854TIP3   OH262976   0.449   6.658  11.160 -0.2531 -0.1547 -0.4252
13854TIP3    H162977   0.366   6.697  11.187  0.6933  0.7582  1.2951
13854TIP3    H262978   0.449   6.570  11.197  0.9696  1.0312  2.6794
13855TIP3   OH262979   2.087   1.069   3.204  0.5792  0.4916 -1.3383
13855TIP3    H162980   2.116   1.022   3.283  2.1447  0.7981 -1.6895
13855TIP3    H262981   2.059   0.999   3.144 -0.8959  0.2741 -0.4356
13856TIP3   OH262982   3.487   1.553  12.736  0.2875 -0.1480  0.1239
13856TIP3    H162983   3.417   1.618  12.734  0.8695  0.5216  0.9152
13856TIP3    H262984   3.513   1.542  12.645  0.3223  0.8858  0.0035
13857TIP3   OH262985   5.509   3.335   0.370 -0.6046  0.1183 -0.7840
13857TIP3    H162986   5.458   3.415   0.378  0.1969  0.6197 -0.5512
13857TIP3    H262987   5.571   3.338   0.443 -0.8050 -0.9058 -0.5467
13858TIP3   OH262988   6.238   2.864  16.909  0.1585 -0.0528  0.1609
13858TIP3    H162989   6.296   2.915  16.966 -0.1169 -0.7299  1.0801
13858TIP3    H262990   6.174   2.927  16.878 -0.6907  0.0381  1.9672
13859TIP3   OH262991   2.164   2.792   0.891  0.6710 -0.8773  0.1320
13859TIP3    H162992   2.116   2.765   0.813  1.2105 -0.7296 -0.2600
13859TIP3    H262993   2.207   2.874   0.865  1.5690 -1.2833  0.2871
13860TIP3   OH262994   4.439   2.101   5.930  0.1777 -0.7335  0.8482
13860TIP3    H162995   4.403   2.029   5.981  0.8657 -0.9182  1.0850
13860TIP3    H262996   4.528   2.113   5.964  0.3484 -0.2997  0.2754
13861TIP3   OH262997   5.536   6.198   2.532  0.4354 -0.1101 -0.0177
13861TIP3    H162998   5.504   6.111   2.509 -0.1995  0.5116 -1.6442
13861TIP3    H262999   5.583   6.228   2.454  0.3318  1.1493  0.3828
13862TIP3   OH263000   1.269   5.133  12.119  0.2567 -0.2844 -0.1706
13862TIP3    H163001   1.339   5.100  12.064 -0.6194 -1.4156 -0.6536
13862TIP3    H263002   1.313   5.189  12.184  1.8385 -2.4402  0.7307
13863TIP3   OH263003   6.500   3.031  13.230  0.7224 -0.0923 -0.1737
13863TIP3    H163004   6.549   3.108  13.258  2.0773 -1.0908  0.3249
13863TIP3    H263005   6.547   2.999  13.153 -0.8503  0.5323 -1.4611
13864TIP3   OH263006   2.228   4.563   4.694 -0.3718 -0.2079  0.0046
13864TIP3    H163007   2.281   4.512   4.632  1.0954  1.5397 -0.2836
13864TIP3    H263008   2.171   4.616   4.639  0.5682  0.9656  0.1111
13865TIP3   OH263009   5.079   1.246  13.476  0.1209 -0.1177  0.1813
13865TIP3    H163010   5.002   1.216  13.523  1.4706 -1.2651  1.7974
13865TIP3    H263011   5.108   1.170  13.425  1.1183 -0.2636  0.9257
13866TIP3   OH263012   1.015   5.831  17.079 -0.3194 -0.1479  0.3326
13866TIP3    H163013   1.075   5.759  17.061 -1.3749 -0.8638 -0.4447
13866TIP3    H263014   1.051   5.905  17.031 -0.8958 -0.9854 -1.4753
13867TIP3   OH263015   3.057   1.837  13.355  0.1765  0.1540  0.2663
13867TIP3    H163016   2.968   1.814  13.327  0.3030  0.6350 -0.5814
13867TIP3    H263017   3.068   1.928  13.327  0.9321  0.0997  0.3684
13868TIP3   OH263018   0.701   4.054  14.857  0.3955  0.3498 -0.3147
13868TIP3    H163019   0.694   3.961  14.839  1.4564 -0.3088  2.2576
13868TIP3    H263020   0.621   4.076  14.905  0.9683  0.3093  0.6859
13869TIP3   OH263021   0.760   1.202  16.890 -1.1777  0.1134 -0.4956
13869TIP3    H163022   0.737   1.276  16.946 -1.4285 -1.6898  1.9742
13869TIP3    H263023   0.826   1.236  16.830 -1.5908  2.3998  0.2648
13870TIP3   OH263024   3.520   2.984   2.257 -0.1964  0.0315  0.1621
13870TIP3    H163025   3.442   2.948   2.215  0.4904  0.7393 -1.8551
13870TIP3    H263026   3.489   3.063   2.301 -1.2822 -1.7201  2.7063
13871TIP3   OH263027   1.929   1.689   4.114 -0.2641  0.3380 -0.0449
13871TIP3    H163028   1.874   1.768   4.118 -0.4097  0.4930 -2.7927
13871TIP3    H263029   2.016   1.719   4.142 -0.2733  1.5762 -1.2260
13872TIP3   OH263030   0.301   5.204   3.313 -0.0266 -0.3024  0.3824
13872TIP3    H163031   0.317   5.274   3.249 -0.4887  1.0990  1.7348
13872TIP3    H263032   0.207   5.209   3.331  0.4305  0.7944  2.7358
13873TIP3   OH263033   3.678   5.963   8.810  0.1697 -1.2296 -0.0503
13873TIP3    H163034   3.724   5.879   8.805  0.0056 -1.2453 -4.0839
13873TIP3    H263035   3.586   5.939   8.826  0.2109 -1.7933 -0.6278
13874TIP3   OH263036   5.470   6.606   1.530 -0.1293  0.2013 -0.3771
13874TIP3    H163037   5.377   6.587   1.541 -0.4142  2.0601  0.8192
13874TIP3    H263038   5.498   6.546   1.461 -2.4836  0.3969 -1.6212
13875TIP3   OH263039   5.158   0.634   4.602  0.3732 -0.0705  0.4046
13875TIP3    H163040   5.223   0.690   4.644  1.5882 -0.6260 -0.6696
13875TIP3    H263041   5.209   0.580   4.541 -1.4953  2.2781 -3.6135
13876TIP3   OH263042   3.210   5.839   5.500  0.0903 -0.2211  0.0100
13876TIP3    H163043   3.266   5.912   5.474  0.3831 -0.1135  0.9192
13876TIP3    H263044   3.241   5.814   5.587 -2.1436  0.7421  1.1500
13877TIP3   OH263045   0.513   2.213  14.221 -0.0571  0.0802 -0.4618
13877TIP3    H163046   0.422   2.202  14.249 -0.0212 -0.4231 -0.5467
13877TIP3    H263047   0.507   2.264  14.140 -0.2128  0.7825 -0.0157
13878TIP3   OH263048   0.875   4.679   4.750  0.3489 -0.0304 -0.0667
13878TIP3    H163049   0.861   4.728   4.831 -0.6484 -0.3817 -0.0104
13878TIP3    H263050   0.820   4.601   4.760  1.4575 -0.8759 -0.4020
13879TIP3   OH263051   0.102   4.555   5.512 -0.4324  0.2884  0.0484
13879TIP3    H163052   0.018   4.512   5.499 -0.6492  1.3978 -3.1717
13879TIP3    H263053   0.082   4.632   5.565 -1.6059  0.8319 -1.1223
13880TIP3   OH263054   2.502   2.682   5.035 -0.0451  0.6022 -0.3950
13880TIP3    H163055   2.503   2.703   5.128  0.8009 -0.3066 -0.1825
13880TIP3    H263056   2.579   2.626   5.022  0.8413  2.0914 -1.9616
13881TIP3   OH263057   3.829   1.246   1.237  0.4080 -0.4801 -0.3175
13881TIP3    H163058   3.904   1.231   1.179  0.4129  0.4097 -0.5590
13881TIP3    H263059   3.851   1.326   1.285 -0.4168 -0.1657 -0.4429
13882TIP3   OH263060   6.594   2.065  11.479  0.4918  0.3502 -0.6663
13882TIP3    H163061   6.679   2.023  11.465 -0.3256 -1.0852 -1.5679
13882TIP3    H263062   6.580   2.059  11.574  0.4930 -1.3225 -0.7309
13883TIP3   OH263063   5.413   2.694   5.330 -0.3933  0.4655  0.2522
13883TIP3    H163064   5.325   2.713   5.295 -1.1973 -0.8679  1.4411
13883TIP3    H263065   5.400   2.617   5.385  2.0225 -1.5579 -1.7383
13884TIP3   OH263066   0.645   1.971  11.656 -0.2386 -0.4214 -0.2784
13884TIP3    H163067   0.576   1.959  11.721  0.4982  1.5085  0.9435
13884TIP3    H263068   0.726   1.958  11.704  0.3122 -1.8107 -1.5098
13885TIP3   OH263069   6.097   5.637   1.978 -0.0446  0.0198  0.2099
13885TIP3    H163070   6.100   5.731   1.964 -1.5236  0.4230  2.0997
13885TIP3    H263071   6.074   5.600   1.892  3.2081  1.0425 -1.2390
13886TIP3   OH263072   5.239   1.194  13.056  0.3175 -0.2084  0.2232
13886TIP3    H163073   5.309   1.260  13.057  0.2264 -0.1104  0.5095
13886TIP3    H263074   5.159   1.243  13.036  0.3731 -0.3652 -0.3779
13887TIP3   OH263075   2.966   5.031  12.886  0.4954  0.0520  0.6962
13887TIP3    H163076   2.932   5.084  12.958  1.5052  1.5330  0.1328
13887TIP3    H263077   3.058   5.017  12.907 -0.1289 -3.2096  1.7944
13888TIP3   OH263078   4.788   6.194  16.170 -0.5375 -0.0784 -0.4499
13888TIP3    H163079   4.809   6.174  16.079 -2.7654 -0.3647 -0.9571
13888TIP3    H263080   4.736   6.119  16.200 -0.9092  0.5953  0.6503
13889TIP3   OH263081   3.118   1.762  16.541 -0.4631 -0.0349  0.4162
13889TIP3    H163082   3.180   1.825  16.578 -0.3484  0.1007 -0.0004
13889TIP3    H263083   3.167   1.719  16.470 -1.0933  0.6730 -0.4823
13890TIP3   OH263084   0.495   5.996   4.184 -0.3412  0.2685  0.1078
13890TIP3    H163085   0.479   6.084   4.220 -2.4958 -0.4452  1.0740
13890TIP3    H263086   0.475   6.004   4.091 -3.1306  0.3061  0.6214
13891TIP3   OH263087   3.190   1.440   5.560 -0.2250  0.3114  0.2128
13891TIP3    H163088   3.136   1.429   5.482 -1.9638  0.5967  1.3254
13891TIP3    H263089   3.158   1.374   5.621  0.8079  0.3762  0.8426
13892TIP3   OH263090   4.136   5.993  14.296  0.0669 -0.6829 -0.1013
13892TIP3    H163091   4.055   5.971  14.342  0.7423 -1.4102  0.7981
13892TIP3    H263092   4.135   5.937  14.218 -0.2844 -0.7042 -0.0826
13893TIP3   OH263093   5.685   6.039  13.774  0.6089 -0.3835 -0.0914
13893TIP3    H163094   5.645   6.015  13.691  1.6793 -0.7861 -0.5038
13893TIP3    H263095   5.759   6.094  13.750  0.9748 -0.5640  0.5980
13894TIP3   OH263096   5.694   4.923  13.508 -0.8241  0.0242  0.0872
13894TIP3    H163097   5.645   4.841  13.515 -1.3604  0.4288  1.4744
13894TIP3    H263098   5.725   4.940  13.597  2.0349 -0.3075 -0.7567
13895TIP3   OH263099   2.065   1.468  12.777 -0.4747  0.1154  0.2286
13895TIP3    H163100   1.974   1.464  12.807 -0.4902  2.1039  0.6274
13895TIP3    H263101   2.062   1.442  12.685 -1.0949 -1.8819  0.7721
13896TIP3   OH263102   1.496   6.358   0.036  0.1048  0.0294 -0.0930
13896TIP3    H163103   1.461   6.393   0.118 -0.7663 -0.4328 -0.2516
13896TIP3    H263104   1.418   6.327  -0.012  0.6959 -0.6043 -0.6601
13897TIP3   OH263105   0.904   3.462   3.230 -0.0218 -0.6063 -0.1762
13897TIP3    H163106   0.989   3.505   3.242 -0.0202 -0.8390  0.7273
13897TIP3    H263107   0.899   3.399   3.302 -2.0312  1.1478  1.3327
13898TIP3   OH263108   6.332   1.263   4.056  0.3129 -0.0635 -0.1218
13898TIP3    H163109   6.412   1.283   4.106 -1.0943  1.6439  1.5846
13898TIP3    H263110   6.320   1.169   4.068  3.1963 -0.8647 -2.2871
13899TIP3   OH263111   2.374   1.489  13.123  0.1837  0.1188 -0.1202
13899TIP3    H163112   2.288   1.512  13.158 -0.0282  2.2736 -1.8292
13899TIP3    H263113   2.376   1.393  13.125 -1.8541  0.0376  0.8177
13900TIP3   OH263114   1.663   6.054   2.431 -0.0325 -0.3306  0.0981
13900TIP3    H163115   1.748   6.024   2.398  0.5693  0.1995  1.0944
13900TIP3    H263116   1.611   5.974   2.440  0.6002 -0.7492  0.1100
13901TIP3   OH263117   4.199   0.402   4.619 -0.1937  0.1452  0.1579
13901TIP3    H163118   4.253   0.359   4.685 -0.0214 -1.0579 -0.7441
13901TIP3    H263119   4.261   0.448   4.563 -0.0031 -1.6351 -1.1695
13902TIP3   OH263120   6.503   2.223  12.787  0.1660  0.9646 -0.0040
13902TIP3    H163121   6.412   2.217  12.816  0.6835 -1.4366  1.3239
13902TIP3    H263122   6.554   2.218  12.868  1.5122  1.2613 -0.8139
13903TIP3   OH263123   5.924   1.682   0.132 -0.3442  0.0836 -0.1216
13903TIP3    H163124   5.995   1.623   0.157 -0.2454 -0.3340 -1.3147
13903TIP3    H263125   5.918   1.743   0.205  0.6738 -0.3835  0.3901
13904TIP3   OH263126   4.132   4.572  11.707 -0.0253  0.1144 -0.0361
13904TIP3    H163127   4.211   4.543  11.661  0.7218 -0.9298  1.8022
13904TIP3    H263128   4.083   4.621  11.641  0.2763 -2.5100 -2.4204
13905TIP3   OH263129   6.748   1.256  12.136 -0.0748 -0.2219 -0.5735
13905TIP3    H163130   6.785   1.294  12.057 -0.9034  1.7909 -0.0483
13905TIP3    H263131   6.671   1.310  12.155 -0.3885 -1.1910  1.1278
13906TIP3   OH263132   0.942   5.097  12.518 -0.4356 -0.1274  0.3521
13906TIP3    H163133   0.890   5.115  12.440  1.8817  0.9657 -1.0430
13906TIP3    H263134   0.895   5.141  12.589 -1.6652  0.3547 -0.7357
13907TIP3   OH263135   0.223   5.863   1.010 -0.6469 -0.3093 -0.1911
13907TIP3    H163136   0.284   5.795   0.984 -0.8386 -0.9679  0.9925
13907TIP3    H263137   0.225   5.862   1.106 -0.6892  1.3237 -0.1434
13908TIP3   OH263138   0.946   1.297   0.051 -0.4108 -0.4060 -0.1087
13908TIP3    H163139   0.976   1.259   0.134 -0.4020 -0.9047 -0.3333
13908TIP3    H263140   0.851   1.294   0.056 -0.4673  1.3064  0.6630
13909TIP3   OH263141   2.046   5.124  10.197 -0.4128  0.4969  0.0507
13909TIP3    H163142   2.053   5.117  10.292 -0.3221  1.5407  0.1277
13909TIP3    H263143   2.133   5.100  10.164 -0.1857  1.0146  0.2788
13910TIP3   OH263144   2.455   5.678   4.382 -0.0541  0.4196  0.0065
13910TIP3    H163145   2.426   5.728   4.305 -0.4368  0.7391  0.3501
13910TIP3    H263146   2.462   5.588   4.351 -0.1823  0.5497 -0.4093
13911TIP3   OH263147   2.513   0.554   3.666 -0.6147  0.2840  0.3459
13911TIP3    H163148   2.548   0.565   3.754  1.5743 -1.4289 -0.2290
13911TIP3    H263149   2.486   0.462   3.661 -1.1782  0.4772 -0.6314
13912TIP3   OH263150   6.771   0.022  12.187 -0.6561 -0.1043 -0.1012
13912TIP3    H163151   6.737  -0.060  12.152 -0.3557 -1.1628  1.9549
13912TIP3    H263152   6.713   0.043  12.260 -1.5608  2.2920 -1.4004
13913TIP3   OH263153   2.410   4.633   5.516  0.5517 -0.2932 -0.1113
13913TIP3    H163154   2.436   4.709   5.465 -0.3535 -0.7183 -1.2326
13913TIP3    H263155   2.327   4.659   5.556  1.4221  0.1767  1.5158
13914TIP3   OH263156   0.017   2.747   4.681 -0.5290 -0.0698  0.0791
13914TIP3    H163157  -0.056   2.796   4.720 -0.9561  1.2080 -2.1121
13914TIP3    H263158  -0.006   2.655   4.692 -2.0618  0.3079  0.2039
13915TIP3   OH263159   2.116   1.077  13.707  0.1813  0.2577 -1.0112
13915TIP3    H163160   2.088   1.148  13.764  2.3347  1.1660 -1.0350
13915TIP3    H263161   2.042   1.065  13.646  0.5074  3.8745 -2.3372
13916TIP3   OH263162   5.469   3.740  14.563  0.4144 -0.2169 -0.4813
13916TIP3    H163163   5.550   3.689  14.555 -0.6304 -1.8777 -1.0594
13916TIP3    H263164   5.470   3.799  14.488  1.1573 -0.1158 -0.3950
13917TIP3   OH263165   4.328   2.186   0.600 -0.6106 -0.5962  0.8285
13917TIP3    H163166   4.408   2.162   0.552 -1.2459  1.0144 -1.2106
13917TIP3    H263167   4.354   2.185   0.692  2.0993  0.8487  0.2042
13918TIP3   OH263168   5.245   1.590  11.700  0.1176 -0.3360  0.4879
13918TIP3    H163169   5.239   1.547  11.785 -0.9318  0.3380  0.7833
13918TIP3    H263170   5.216   1.680  11.717 -0.4189 -0.2810 -0.6320
13919TIP3   OH263171   0.522   4.826   2.824 -0.1869 -0.3715  0.9820
13919TIP3    H163172   0.530   4.731   2.827 -0.3637 -0.3874  0.9809
13919TIP3    H263173   0.591   4.855   2.764  0.2068 -0.4568  1.3925
13920TIP3   OH263174   6.333   0.918  13.497 -0.0274 -0.7334  0.2940
13920TIP3    H163175   6.318   0.826  13.517 -0.6360 -1.1063 -1.7273
13920TIP3    H263176   6.428   0.930  13.508 -0.1426 -1.1581  2.1220
13921TIP3   OH263177   2.283   0.572  13.578 -0.2167  0.1266  0.1518
13921TIP3    H163178   2.279   0.479  13.600 -0.7277 -0.2928 -1.5590
13921TIP3    H263179   2.320   0.613  13.655  0.5892 -1.5777  0.7240
13922TIP3   OH263180   5.519   0.966  12.346  0.1926  0.0506  0.1902
13922TIP3    H163181   5.580   0.899  12.315  0.7918  0.6787 -0.0065
13922TIP3    H263182   5.435   0.940  12.310  0.7058  0.2492 -1.1985
13923TIP3   OH263183   3.918   3.641   3.812 -0.2847  0.1829  0.2709
13923TIP3    H163184   3.825   3.620   3.813 -0.1492 -0.4806 -0.3518
13923TIP3    H263185   3.962   3.556   3.816  0.3312  0.5326  2.0518
13924TIP3   OH263186   2.538   3.935  15.262 -0.0063 -0.1458 -0.1659
13924TIP3    H163187   2.534   3.932  15.358  0.9377  0.4997 -0.0854
13924TIP3    H263188   2.484   3.862  15.233  0.5483 -1.0077  0.8834
13925TIP3   OH263189   5.004   0.843  11.856  0.6374 -0.4362  0.0179
13925TIP3    H163190   5.017   0.830  11.950  0.5341  0.3942  0.1520
13925TIP3    H263191   5.091   0.828  11.817  1.3640  1.9582  0.5651
13926TIP3   OH263192   0.125   0.637   4.454 -0.1947 -0.2325  0.0099
13926TIP3    H163193   0.066   0.581   4.505  1.1136 -1.7899 -0.0985
13926TIP3    H263194   0.173   0.576   4.398  1.5446  0.9649  0.1153
13927TIP3   OH263195   4.355   1.292   4.754  0.3935  0.1898 -0.4909
13927TIP3    H163196   4.285   1.266   4.694 -1.7839 -0.7491  2.2426
13927TIP3    H263197   4.398   1.210   4.778 -0.6374  0.1572  1.3568
13928TIP3   OH263198   1.898   1.316  13.261  0.4346 -0.1678  0.4834
13928TIP3    H163199   1.963   1.246  13.255  0.6700  0.1473 -1.0040
13928TIP3    H263200   1.921   1.363  13.341  2.5948  0.4641 -0.4424
13929TIP3   OH263201   4.110   6.633   3.170 -0.7023 -0.1322  0.9195
13929TIP3    H163202   4.026   6.593   3.150 -1.4548  1.1606  1.4224
13929TIP3    H263203   4.090   6.703   3.233  0.5579  1.0458  0.0725
13930TIP3   OH263204   3.714   5.873  15.453 -0.4596  0.0140 -0.1577
13930TIP3    H163205   3.792   5.901  15.404 -1.1247 -1.6770 -2.3400
13930TIP3    H263206   3.668   5.814  15.393 -2.7378 -0.1056  1.5819
13931TIP3   OH263207   0.662   2.353   1.109 -1.2459  0.3231  0.0233
13931TIP3    H163208   0.706   2.438   1.114 -0.1055 -0.1958 -0.6628
13931TIP3    H263209   0.704   2.309   1.035 -1.4967 -1.0187  0.6491
13932TIP3   OH263210   2.830   4.259   1.072 -0.2940  0.0924  0.1208
13932TIP3    H163211   2.893   4.206   1.121  2.6681  2.3451 -0.8730
13932TIP3    H263212   2.778   4.303   1.139  0.0790 -0.8205  1.0387
13933TIP3   OH263213   4.841   3.624  12.222  0.0014  0.4358 -0.6063
13933TIP3    H163214   4.773   3.678  12.182 -0.3396 -0.6105 -1.4922
13933TIP3    H263215   4.923   3.663  12.193 -0.2286  0.9710 -0.5453
13934TIP3   OH263216   3.491   5.293  16.172 -0.1381 -0.5129 -0.0874
13934TIP3    H163217   3.477   5.334  16.258 -1.3585 -0.4132 -0.3179
13934TIP3    H263218   3.583   5.311  16.152 -0.1819  0.5807  0.6135
13935TIP3   OH263219   5.481   2.498  12.941 -1.3655  0.5526  0.4334
13935TIP3    H163220   5.501   2.559  13.012 -0.7619  2.9304 -1.6097
13935TIP3    H263221   5.483   2.412  12.981  1.9287  1.5214  2.7392
13936TIP3   OH263222   0.051   2.270   2.463  0.0914 -0.4318 -0.4560
13936TIP3    H163223   0.075   2.336   2.528 -0.3671 -1.3492  0.6911
13936TIP3    H263224   0.031   2.192   2.515 -1.8394 -0.7492 -1.5602
13937TIP3   OH263225   2.251   2.433  16.139 -0.2941  0.8539 -0.1230
13937TIP3    H163226   2.338   2.443  16.178 -0.3816 -0.4398  0.4275
13937TIP3    H263227   2.191   2.461  16.208 -0.5235 -2.7027  1.3043
13938TIP3   OH263228   3.770   0.424   1.393  0.6597 -0.0227 -0.2036
13938TIP3    H163229   3.849   0.445   1.342  0.2046 -3.2823 -2.5777
13938TIP3    H263230   3.698   0.430   1.330 -1.1527  2.8556  1.9105
13939TIP3   OH263231   4.843   1.670   4.251  0.4424 -0.0050 -0.0674
13939TIP3    H163232   4.837   1.591   4.197  0.6605  0.4691 -0.7934
13939TIP3    H263233   4.933   1.699   4.242  0.4157  0.2119  0.3631
13940TIP3   OH263234   6.153   0.860  14.221  0.0876  0.3469  0.2484
13940TIP3    H163235   6.202   0.930  14.262  0.2053  0.1616  0.4285
13940TIP3    H263236   6.208   0.831  14.148  1.3233 -1.3608  1.7708
13941TIP3   OH263237   4.598   6.408  10.811 -0.2812  0.1619  0.0304
13941TIP3    H163238   4.581   6.502  10.815 -0.5749  0.2855 -2.4786
13941TIP3    H263239   4.525   6.369  10.861 -1.3442  1.1908 -0.6585
13942TIP3   OH263240   3.504   5.866  13.069 -0.4685  0.0998  0.4232
13942TIP3    H163241   3.592   5.904  13.068 -0.4431  0.0910  1.4350
13942TIP3    H263242   3.510   5.791  13.010  0.2063  0.1008  0.4840
13943TIP3   OH263243   3.084   5.017  11.704 -0.0578 -0.3089  0.0289
13943TIP3    H163244   3.047   4.929  11.710  1.3167 -0.9063  0.1087
13943TIP3    H263245   3.073   5.042  11.613  2.2123 -1.8258 -0.7527
13944TIP3   OH263246   6.784   4.965  16.750  0.4570  0.1669  0.0625
13944TIP3    H163247   6.789   4.952  16.656 -1.2644 -0.6758  0.0478
13944TIP3    H263248   6.692   4.982  16.767  0.9587  1.8728  1.4403
13945TIP3   OH263249   0.656   5.999   1.937 -0.1901 -0.1973  0.0517
13945TIP3    H163250   0.716   6.068   1.908  1.5526 -1.9508 -0.7411
13945TIP3    H263251   0.646   6.014   2.031  1.8712 -0.0643  0.2961
13946TIP3   OH263252   0.425   0.424   2.843 -0.5586  0.4346 -0.3722
13946TIP3    H163253   0.491   0.454   2.781 -0.0282  0.4914  0.2148
13946TIP3    H263254   0.369   0.366   2.792  1.2294 -1.4023 -0.3713
13947TIP3   OH263255   0.842   1.192   0.896 -0.2380  0.2730  0.5146
13947TIP3    H163256   0.792   1.170   0.975 -2.1302  1.5667 -0.2291
13947TIP3    H263257   0.870   1.107   0.861 -3.4641 -0.7582  0.0717
13948TIP3   OH263258   4.838   0.515   5.368  0.3459  0.5124 -0.7510
13948TIP3    H163259   4.890   0.437   5.386  0.0202  0.4430 -0.0855
13948TIP3    H263260   4.894   0.588   5.396 -0.2301  0.3964  0.8013
13949TIP3   OH263261   3.500   3.801   5.630 -0.3001  0.0622 -0.2741
13949TIP3    H163262   3.417   3.841   5.605 -1.0848 -1.2220  0.1612
13949TIP3    H263263   3.519   3.837   5.717 -0.4170  0.3361 -0.3617
13950TIP3   OH263264   1.155   1.964   1.129 -0.5318 -0.5938  0.4897
13950TIP3    H163265   1.090   1.990   1.193  0.6892 -0.1168  1.5883
13950TIP3    H263266   1.231   2.020   1.148  0.5391 -1.7898 -0.1001
13951TIP3   OH263267   4.525   3.444   3.760 -0.0136  0.4325 -0.2097
13951TIP3    H163268   4.473   3.517   3.795  1.4954  1.2819  0.3781
13951TIP3    H263269   4.571   3.482   3.686 -0.1883 -0.2982 -0.6949
13952TIP3   OH263270   5.336   2.611   4.870 -0.3001  0.2212 -0.4350
13952TIP3    H163271   5.375   2.566   4.945 -0.6587 -0.1147 -0.4437
13952TIP3    H263272   5.313   2.541   4.809  1.3461  0.5963 -1.5339
13953TIP3   OH263273   4.875   0.429   0.056 -0.0661 -0.0118 -0.0365
13953TIP3    H163274   4.874   0.518   0.023  1.3937 -0.4094 -1.2180
13953TIP3    H263275   4.826   0.378  -0.008  0.2127 -0.2802 -0.0408
13954TIP3   OH263276   0.439   2.483   4.083 -0.0201  0.3047  0.0394
13954TIP3    H163277   0.397   2.424   4.146  1.0979 -0.6274 -0.0670
13954TIP3    H263278   0.501   2.534   4.135 -0.7427  1.1789  0.0716
13955TIP3   OH263279   4.298   0.980  15.118  0.1251 -0.3168  0.2802
13955TIP3    H163280   4.378   0.931  15.096  0.4173 -0.1602  0.9746
13955TIP3    H263281   4.329   1.063  15.154 -0.3624 -0.0274  0.0476
13956TIP3   OH263282   6.571   0.369   1.614 -0.1660  0.4291  0.2876
13956TIP3    H163283   6.641   0.434   1.625 -0.1974  0.4926  0.1153
13956TIP3    H263284   6.567   0.323   1.698 -2.3918  2.8555  1.6515
13957TIP3   OH263285   3.462   2.560   6.320 -0.6549 -0.0269  0.4969
13957TIP3    H163286   3.442   2.531   6.409 -0.4420 -0.4348  0.4178
13957TIP3    H263287   3.553   2.590   6.324 -0.5468 -0.3270  0.3556
13958TIP3   OH263288   6.707   0.072   3.486  0.3715  0.7245  0.4372
13958TIP3    H163289   6.612   0.066   3.493  0.2219  1.1606 -0.9253
13958TIP3    H263290   6.729   0.156   3.528 -0.0506  1.4185 -0.6714
13959TIP3   OH263291   3.934   5.899  11.375 -0.6460 -0.0230  0.0254
13959TIP3    H163292   3.917   5.919  11.467  0.7074  3.0550 -0.2871
13959TIP3    H263293   3.847   5.888  11.336 -1.2759 -0.0282  1.3639
13960TIP3   OH263294   4.502   1.561   1.943  0.0457 -0.5298  0.3262
13960TIP3    H163295   4.442   1.635   1.948  1.6121  0.8528 -0.2957
13960TIP3    H263296   4.571   1.582   2.007  0.6424 -1.3003 -0.0483
13961TIP3   OH263297   5.662   4.323   0.729  0.7408  0.2178  0.3722
13961TIP3    H163298   5.671   4.237   0.769  1.0968 -0.8428 -1.8593
13961TIP3    H263299   5.586   4.362   0.773  0.5380 -1.2270  1.3835
13962TIP3   OH263300   3.249   1.699  15.427  0.1211  0.6854  0.0793
13962TIP3    H163301   3.203   1.661  15.352  1.4750 -0.4101 -0.2231
13962TIP3    H263302   3.314   1.758  15.388  0.9422 -0.0175  0.3699
13963TIP3   OH263303   5.735   5.183  16.662 -0.1080 -0.0108  0.3631
13963TIP3    H163304   5.698   5.250  16.719 -1.4585 -1.7490  1.6776
13963TIP3    H263305   5.740   5.224  16.576 -1.7259  1.4812  0.9207
13964TIP3   OH263306   5.779   3.614   1.747  0.4434  0.1753  0.1197
13964TIP3    H163307   5.770   3.544   1.681  0.2614 -1.9242  2.2254
13964TIP3    H263308   5.872   3.633   1.750  0.7473 -1.2634  0.6943
13965TIP3   OH263309   6.442   4.736  14.768 -0.1635 -0.0669 -0.1404
13965TIP3    H163310   6.348   4.723  14.774 -0.5572  2.4948  0.4130
13965TIP3    H263311   6.478   4.684  14.840 -1.0599 -1.5242 -0.7096
13966TIP3   OH263312   0.060   3.077  10.171 -0.3409 -0.5137 -0.7184
13966TIP3    H163313   0.027   2.991  10.145 -0.5921 -0.9386  0.8688
13966TIP3    H263314  -0.015   3.119  10.213 -0.1918  0.4631 -1.4067
13967TIP3   OH263315   1.019   0.097  16.348  0.6891  0.1490 -0.2250
13967TIP3    H163316   1.107   0.065  16.367  1.1897  1.0862 -0.8733
13967TIP3    H263317   0.965   0.064  16.419  1.6172 -0.2053  0.3272
13968TIP3   OH263318   0.122   3.750  13.498 -0.1874  0.4009  0.1336
13968TIP3    H163319   0.035   3.785  13.480 -0.6404 -0.7755 -0.0531
13968TIP3    H263320   0.182   3.821  13.474 -1.1291  1.8349  1.7748
13969TIP3   OH263321   6.045   2.292   0.981 -0.0686  0.1839  0.1125
13969TIP3    H163322   6.047   2.302   0.886  0.5677 -0.0159  0.1006
13969TIP3    H263323   5.971   2.234   0.997 -0.3894  0.4934 -0.2321
13970TIP3   OH263324   1.333   3.341  15.814 -0.2029  0.2511  0.1420
13970TIP3    H163325   1.321   3.420  15.763 -0.3106 -0.4086 -0.8783
13970TIP3    H263326   1.424   3.344  15.845  0.2275  0.0993 -1.0729
13971TIP3   OH263327   4.749   0.273  12.663 -0.0741 -0.2543  0.1441
13971TIP3    H163328   4.752   0.243  12.572  5.3311  2.3151 -0.9526
13971TIP3    H263329   4.808   0.213  12.709  0.6457  1.0050  0.9012
13972TIP3   OH263330   6.217   0.031  14.201  0.0165  0.4201  0.4868
13972TIP3    H163331   6.277  -0.041  14.184 -0.1384  0.2666  0.5907
13972TIP3    H263332   6.233   0.093  14.129  1.3806  1.0888  1.3075
13973TIP3   OH263333   3.142   1.273  14.532 -0.3127 -0.0758 -1.3382
13973TIP3    H163334   3.073   1.209  14.520  0.9858 -2.1567  1.2404
13973TIP3    H263335   3.223   1.223  14.522  0.7839  0.2443  3.5439
13974TIP3   OH263336   5.874   2.873   4.693  0.3189 -0.0473  0.3280
13974TIP3    H163337   5.967   2.881   4.669  0.3330  0.7030  0.6004
13974TIP3    H263338   5.843   2.797   4.643  1.0146 -0.1533  0.0371
13975TIP3   OH263339   2.747   6.486  15.781 -0.5136 -0.0811  0.2161
13975TIP3    H163340   2.761   6.547  15.854  2.3520 -0.8505  0.4334
13975TIP3    H263341   2.746   6.542  15.704 -0.0698  0.4424  0.5778
13976TIP3   OH263342   6.658   1.196  10.478  0.4239 -0.3485 -0.0649
13976TIP3    H163343   6.650   1.102  10.462  0.3358 -0.7857  2.2269
13976TIP3    H263344   6.627   1.208  10.568 -1.0097  2.1130 -0.8002
13977TIP3   OH263345   1.112   5.224  13.195 -0.1701  0.4879  0.0198
13977TIP3    H163346   1.191   5.277  13.208  1.2968 -1.5708  0.1193
13977TIP3    H263347   1.104   5.217  13.099 -1.5037  2.3767 -0.0614
13978TIP3   OH263348   3.041   4.422   4.147 -0.0290 -0.1965 -0.0042
13978TIP3    H163349   3.124   4.383   4.176 -0.0319  0.1720  0.5096
13978TIP3    H263350   3.005   4.463   4.225 -0.9616 -0.7976 -0.0998
13979TIP3   OH263351   1.540   3.537  14.671 -0.5965 -0.4508  0.1552
13979TIP3    H163352   1.622   3.487  14.667  0.6857  1.4243  1.7418
13979TIP3    H263353   1.567   3.628  14.669 -2.7062  0.2258  0.1934
13980TIP3   OH263354   2.466   4.585   1.055 -0.0896 -0.0103  0.0727
13980TIP3    H163355   2.445   4.498   1.089 -0.0517 -0.3439 -0.7161
13980TIP3    H263356   2.504   4.632   1.129  0.3764 -0.8415  0.3757
13981TIP3   OH263357   4.367   5.197   1.753 -0.2187  0.1102 -0.1572
13981TIP3    H163358   4.275   5.202   1.776 -0.5357  2.0910 -1.5492
13981TIP3    H263359   4.403   5.282   1.781  1.6802 -1.2792  2.0748
13982TIP3   OH263360   6.517   4.286  14.601  0.1313 -0.2555  0.0656
13982TIP3    H163361   6.459   4.241  14.662 -1.5511 -0.2382 -1.4700
13982TIP3    H263362   6.589   4.317  14.656 -2.1716  1.3407  2.3981
13983TIP3   OH263363   0.411   3.331   2.800 -0.4305 -0.3504 -0.3078
13983TIP3    H163364   0.323   3.339   2.835 -0.6672  0.2755 -1.0060
13983TIP3    H263365   0.415   3.398   2.731  0.1606 -1.2285 -1.1527
13984TIP3   OH263366   4.567   5.993   0.566 -0.0735  0.0443 -0.1558
13984TIP3    H163367   4.541   6.055   0.499  4.0664  0.9167 -1.2209
13984TIP3    H263368   4.578   6.046   0.645  0.3827  0.0697 -0.2351
13985TIP3   OH263369   2.997   5.915  15.565 -0.1801  0.0390 -0.6791
13985TIP3    H163370   3.069   5.950  15.513 -0.8022  1.0477 -0.8911
13985TIP3    H263371   3.038   5.855  15.627  0.7231 -0.1582 -1.4524
13986TIP3   OH263372   1.005   1.430  15.329  1.0602 -0.1001  0.3084
13986TIP3    H163373   0.919   1.464  15.304  0.5875 -0.7398  1.0456
13986TIP3    H263374   1.000   1.418  15.424  1.0541 -2.5796  0.0554
13987TIP3   OH263375   2.357   4.183   5.376  0.1039 -0.1069 -0.3253
13987TIP3    H163376   2.300   4.210   5.304  0.7614  1.3269 -0.3263
13987TIP3    H263377   2.443   4.220   5.355  0.4207 -0.0586  0.9509
13988TIP3   OH263378   5.547   5.349   2.227  0.3022 -0.0223  0.0144
13988TIP3    H163379   5.538   5.255   2.241 -0.7917 -0.2025 -1.6293
13988TIP3    H263380   5.511   5.389   2.306  0.8360 -0.9605  0.7533
13989TIP3   OH263381   3.405   2.488   2.958 -0.1148 -0.5680 -0.3463
13989TIP3    H163382   3.478   2.461   2.902  1.7248 -0.5878  1.9108
13989TIP3    H263383   3.435   2.569   2.998 -0.3261 -1.6881  2.2896
13990TIP3   OH263384   4.398   4.664  10.400  0.3335  0.0687  0.2332
13990TIP3    H163385   4.454   4.592  10.374  0.4858  0.2142  0.1546
13990TIP3    H263386   4.420   4.681  10.492  0.2255 -0.0507  0.2818
13991TIP3   OH263387   0.571   2.605  11.661  0.1323 -0.2293  0.1615
13991TIP3    H163388   0.591   2.575  11.572  1.2785  0.9692 -0.0162
13991TIP3    H263389   0.515   2.681  11.648  0.5503  0.1301  0.4482
13992TIP3   OH263390   6.243   1.490   4.747 -0.2536  0.3685  0.2127
13992TIP3    H163391   6.330   1.525   4.761  0.4472 -1.3707  0.4821
13992TIP3    H263392   6.245   1.455   4.658 -1.1290  1.5217 -0.2805
13993TIP3   OH263393   5.431   3.442  15.041  0.0331 -0.2849  0.4482
13993TIP3    H163394   5.375   3.479  15.108  1.9396  1.2129  1.3197
13993TIP3    H263395   5.378   3.440  14.962 -1.2240  1.0531  1.2321
13994TIP3   OH263396   6.282   3.756   2.116  0.3949  0.0001  0.1339
13994TIP3    H163397   6.291   3.786   2.026 -0.4622 -0.3656 -0.0786
13994TIP3    H263398   6.237   3.827   2.161 -1.0984 -0.6674 -0.2334
13995TIP3   OH263399   5.321   0.340   5.382 -0.5395 -0.0005  0.1529
13995TIP3    H163400   5.353   0.358   5.470 -2.0444 -0.6129  0.8506
13995TIP3    H263401   5.400   0.316   5.332  0.5159  1.6457  0.9534
13996TIP3   OH263402   1.679   4.302  11.445 -0.3128  0.3741 -0.0564
13996TIP3    H163403   1.731   4.343  11.514 -0.3002 -0.9665  0.7741
13996TIP3    H263404   1.740   4.290  11.372  0.1488  0.1758  0.3623
13997TIP3   OH263405   0.896   2.758  10.680  0.5558  0.0180  0.1039
13997TIP3    H163406   0.943   2.741  10.599 -0.2667  1.5311 -0.7322
13997TIP3    H263407   0.810   2.718  10.667 -0.0362  1.3511 -0.3452
13998TIP3   OH263408   6.197   2.200   0.206  0.4519  0.0763  0.4185
13998TIP3    H163409   6.180   2.111   0.235  0.3886 -0.1811 -0.3843
13998TIP3    H263410   6.232   2.190   0.117  0.9974  0.8188  0.5439
13999TIP3   OH263411   1.559   1.686  13.707 -0.0657  0.4705  0.5615
13999TIP3    H163412   1.544   1.695  13.801  0.8728 -0.8829  0.8611
13999TIP3    H263413   1.486   1.632  13.677  0.4410 -0.3600  0.7953
14000TIP3   OH263414   3.576   0.655  14.458 -0.2312  0.4077  0.6637
14000TIP3    H163415   3.580   0.746  14.427  1.5374  0.4246  0.8221
14000TIP3    H263416   3.575   0.603  14.377  0.2629  0.5364  0.5731
14001TIP3   OH263417   4.899   3.554   3.265 -0.2248 -0.6199 -0.0576
14001TIP3    H163418   4.850   3.568   3.183  0.0202  3.4997  0.2897
14001TIP3    H263419   4.984   3.521   3.237 -1.0942 -2.0088 -1.1827
14002TIP3   OH263420   6.492   1.703  13.841  0.2235 -0.7815 -0.3320
14002TIP3    H163421   6.409   1.661  13.865  0.7789 -1.5512  0.3044
14002TIP3    H263422   6.538   1.637  13.791  0.6298 -0.5030 -0.3265
14003TIP3   OH263423   6.115   3.097  13.346 -0.4111  0.0821 -0.1937
14003TIP3    H163424   6.098   3.074  13.438  3.4207  4.0033  1.8770
14003TIP3    H263425   6.070   3.180  13.333  2.8579  2.0534 -0.0250
14004TIP3   OH263426   5.870   4.966  13.069 -0.1825 -0.0552  0.4740
14004TIP3    H163427   5.900   4.968  13.160  0.1272 -0.8889  0.4000
14004TIP3    H263428   5.935   4.913  13.024 -0.0477  0.7918 -0.3494
14005TIP3   OH263429   3.191   4.236  14.999  0.2869  0.7717  0.1248
14005TIP3    H163430   3.200   4.311  14.940  0.2479  0.3230 -0.4600
14005TIP3    H263431   3.096   4.221  15.002  0.4177 -0.5548 -1.4326
14006TIP3   OH263432   3.472   3.645  10.918  0.0437 -0.2550  0.8348
14006TIP3    H163433   3.549   3.702  10.923  0.9917 -1.3400 -0.6977
14006TIP3    H263434   3.411   3.681  10.983  0.3663  2.8151 -0.4284
14007TIP3   OH263435   6.806   4.842  17.001  0.0218 -0.0965  0.5278
14007TIP3    H163436   6.824   4.912  17.065  1.1361 -0.2224  0.3820
14007TIP3    H263437   6.789   4.888  16.919 -0.7802  0.0446  0.7630
14008TIP3   OH263438   6.073   2.093   2.937 -0.5183  0.2330 -0.0511
14008TIP3    H163439   6.164   2.103   2.909 -1.2889  0.1872 -2.8766
14008TIP3    H263440   6.078   2.038   3.016  1.8658  0.0502 -0.2592
14009TIP3   OH263441   2.702   0.727   4.280 -0.7803 -0.3620  0.2980
14009TIP3    H163442   2.623   0.753   4.329 -0.2791  1.5014  0.2008
14009TIP3    H263443   2.735   0.809   4.244  1.3947 -1.0409  0.6143
14010TIP3   OH263444   0.496   6.203   1.589 -0.4490  0.5036 -0.0940
14010TIP3    H163445   0.587   6.175   1.577 -0.7108 -0.3973 -0.0828
14010TIP3    H263446   0.498   6.298   1.578  0.5658  0.5462  0.3409
14011TIP3   OH263447   5.454   1.031   1.649 -0.8341  0.0907  0.2520
14011TIP3    H163448   5.514   1.030   1.574 -1.1526  0.0263 -0.0049
14011TIP3    H263449   5.368   1.047   1.610 -0.9750  0.2471  0.6249
14012TIP3   OH263450   5.576   1.894   5.683  0.1916 -0.5013 -0.2490
14012TIP3    H163451   5.579   1.948   5.761  1.3142 -0.3930 -0.3478
14012TIP3    H263452   5.631   1.818   5.704  0.6976 -0.3580 -1.0111
14013TIP3   OH263453   3.438   4.746   4.666 -0.3728 -0.8241 -0.2594
14013TIP3    H163454   3.517   4.757   4.613  0.0335 -1.0628  0.2851
14013TIP3    H263455   3.375   4.703   4.608 -0.6262  0.7311 -1.1695
14014TIP3   OH263456   0.185   3.767   4.741 -0.1743 -0.5952  0.2373
14014TIP3    H163457   0.198   3.675   4.766  1.1937 -0.2897  0.7201
14014TIP3    H263458   0.191   3.767   4.646  0.7606 -0.8794  0.2872
14015TIP3   OH263459   4.884   0.029   5.316  0.3194 -0.0209 -0.0723
14015TIP3    H163460   4.915  -0.029   5.247 -2.0008  0.1574 -1.3693
14015TIP3    H263461   4.847  -0.030   5.382 -0.4248 -0.0935 -0.5473
14016TIP3   OH263462   3.841   2.037   5.444  0.3420  0.0157  0.7779
14016TIP3    H163463   3.925   2.024   5.488  0.7860 -1.7648 -0.4716
14016TIP3    H263464   3.803   1.949   5.439  0.9556 -0.2371 -3.4879
14017TIP3   OH263465   5.589   4.127  16.983 -0.0623 -0.6804  0.1272
14017TIP3    H163466   5.549   4.213  16.992  1.5799  0.0708  0.5365
14017TIP3    H263467   5.617   4.123  16.891 -1.5121 -1.4403 -0.3185
14018TIP3   OH263468   0.990   1.754   4.262 -0.2289  0.2574  0.9381
14018TIP3    H163469   0.990   1.847   4.283  1.0451  0.4020  0.3986
14018TIP3    H263470   0.940   1.713   4.332  0.6914  1.1470  2.1401
14019TIP3   OH263471   4.100   2.031  15.091 -0.7994  0.4360 -0.4119
14019TIP3    H163472   4.099   2.124  15.114 -0.7170  0.4131 -0.3158
14019TIP3    H263473   4.008   2.008  15.082 -0.9081  0.0754  1.3691
14020TIP3   OH263474   6.072   6.360  12.785  0.0781 -0.1951 -0.1522
14020TIP3    H163475   6.125   6.434  12.753  0.9883 -0.5329  0.5215
14020TIP3    H263476   6.113   6.283  12.746 -1.5477 -0.3027 -1.7554
14021TIP3   OH263477   6.384   5.998   4.879 -0.2956 -0.1127 -0.1730
14021TIP3    H163478   6.304   5.948   4.890  0.4939 -1.3169  0.2498
14021TIP3    H263479   6.422   6.003   4.966 -0.1141  0.8174 -0.2942
14022TIP3   OH263480   5.755   3.016   3.539 -0.1234 -0.4110 -0.4103
14022TIP3    H163481   5.702   3.068   3.599  0.5839  1.1509 -1.0790
14022TIP3    H263482   5.725   3.042   3.452 -0.3404 -1.7912 -0.7684
14023TIP3   OH263483   4.919   2.106   4.455 -0.0591 -0.2323  0.0843
14023TIP3    H163484   4.827   2.108   4.427  0.3241 -0.1891 -1.2689
14023TIP3    H263485   4.946   2.014   4.443 -0.3655 -0.6157  2.0797
14024TIP3   OH263486   5.660   5.935  14.654 -0.4489  0.2390 -0.1397
14024TIP3    H163487   5.597   5.967  14.589 -1.2641 -1.0740 -0.0319
14024TIP3    H263488   5.680   5.846  14.626  0.3142  0.1712  0.6027
14025TIP3   OH263489   2.109   6.281  15.677  0.1354  0.3246  0.2260
14025TIP3    H163490   2.164   6.247  15.605  0.7845  0.2624  0.7422
14025TIP3    H263491   2.154   6.252  15.756 -1.3274 -0.8152  0.6785
14026TIP3   OH263492   1.943   5.805  16.561  0.6583  0.1154  0.5143
14026TIP3    H163493   1.998   5.751  16.618 -0.3590  0.4598  1.8844
14026TIP3    H263494   2.003   5.872  16.527  1.6407 -1.0705 -0.1646
14027TIP3   OH263495   0.609   4.093  10.692 -0.1345 -0.3423 -0.4847
14027TIP3    H163496   0.671   4.164  10.674  0.8028 -0.6864  1.1707
14027TIP3    H263497   0.606   4.043  10.610  0.1720  0.8405 -1.2568
14028TIP3   OH263498   6.481   6.145   2.778 -0.5091  0.5167 -0.8581
14028TIP3    H163499   6.479   6.222   2.721 -0.2122 -0.8604 -2.8192
14028TIP3    H263500   6.464   6.071   2.719 -0.2452 -0.9821  0.8644
14029TIP3   OH263501   5.357   3.951  14.060 -0.1333  0.2721 -0.1843
14029TIP3    H163502   5.390   3.898  13.987  0.4314  0.9607 -0.4414
14029TIP3    H263503   5.412   4.029  14.059 -0.8618  0.7984  0.2819
14030TIP3   OH263504   0.213   0.956   3.711 -0.1540 -0.5304  0.5995
14030TIP3    H163505   0.202   0.882   3.651  1.3170 -0.0231 -0.3220
14030TIP3    H263506   0.286   0.930   3.767  1.9767  1.1490 -1.2595
14031TIP3   OH263507   3.598   6.098  14.075 -0.0039  0.2238  0.2873
14031TIP3    H163508   3.543   6.150  14.016  0.9118 -0.2062 -0.9763
14031TIP3    H263509   3.551   6.015  14.085 -0.9110  0.8300  1.4213
14032TIP3   OH263510   2.853   1.637   3.964 -0.1206  0.1175 -0.0671
14032TIP3    H163511   2.906   1.603   3.892 -0.3156 -0.3286 -0.0000
14032TIP3    H263512   2.763   1.634   3.932 -0.0771  1.3360 -0.3664
14033TIP3   OH263513   4.309   5.544   1.317  0.0702  0.5350  0.5030
14033TIP3    H163514   4.314   5.605   1.391  2.0805  2.7921 -1.3238
14033TIP3    H263515   4.304   5.601   1.240 -1.0997 -1.7074 -1.1974
14034TIP3   OH263516   1.385   5.417   1.759  0.3948 -0.3649 -0.0098
14034TIP3    H163517   1.442   5.412   1.836 -0.2777 -2.0615  0.4219
14034TIP3    H263518   1.399   5.334   1.713 -2.4062 -1.3223  0.6573
14035TIP3   OH263519   6.020   1.292   1.134 -0.7120 -0.0019 -0.6267
14035TIP3    H163520   5.934   1.319   1.102 -0.7544  0.0901 -0.4360
14035TIP3    H263521   6.033   1.204   1.099 -2.0437 -1.1277  1.5420
14036TIP3   OH263522   2.054   6.736  15.790 -0.1626 -0.2250  0.2146
14036TIP3    H163523   2.003   6.711  15.867  0.0557 -2.2731 -0.2377
14036TIP3    H263524   2.034   6.667  15.726  1.6374  0.0115 -0.6474
14037TIP3   OH263525   4.794   3.324  13.226  0.2667  0.0594 -0.4989
14037TIP3    H163526   4.784   3.270  13.305  1.6382 -0.1757 -0.4745
14037TIP3    H263527   4.868   3.381  13.246  0.2816  0.3643 -1.4193
14038TIP3   OH263528   1.493   1.532  11.815  0.2233 -0.1226 -0.2075
14038TIP3    H163529   1.481   1.626  11.826  0.7573 -0.1599  0.8068
14038TIP3    H263530   1.433   1.492  11.877  0.1909 -0.4466 -0.4447
14039TIP3   OH263531   0.950   5.528  12.906 -0.4044 -0.0005  0.4960
14039TIP3    H163532   0.956   5.612  12.951 -1.1468 -0.6164  1.8082
14039TIP3    H263533   0.857   5.517  12.887 -0.1896 -0.0943 -0.5235
14040TIP3   OH263534   0.220   4.186  15.274 -0.1869  0.3539  0.5538
14040TIP3    H163535   0.144   4.129  15.287 -2.0456  2.6913  0.5821
14040TIP3    H263536   0.252   4.203  15.362 -0.1225 -0.0056  0.6021
14041TIP3   OH263537   1.495   0.292  11.698  0.2367  0.0189  0.3518
14041TIP3    H163538   1.505   0.302  11.603  1.3933 -0.1815  0.4345
14041TIP3    H263539   1.421   0.349  11.721  2.2582  3.0491 -0.1296
14042TIP3   OH263540   0.955   2.983   4.533 -0.4517  0.2594  0.1259
14042TIP3    H163541   0.955   2.929   4.453  1.8740 -1.0897  0.9337
14042TIP3    H263542   0.933   3.071   4.502 -1.8514 -0.6344 -1.6322
14043TIP3   OH263543   2.060   2.537  10.476  0.1981  0.0036  0.0098
14043TIP3    H163544   2.150   2.505  10.472  0.1352 -0.3855  1.2458
14043TIP3    H263545   2.053   2.599  10.403  1.6249  0.4325  0.2076
14044TIP3   OH263546   5.755   4.884   0.700  0.2777  0.0022 -0.2079
14044TIP3    H163547   5.753   4.877   0.605  0.1059 -3.5585 -0.0854
14044TIP3    H263548   5.663   4.888   0.726  0.1915 -1.5181 -0.1731
14045TIP3   OH263549   3.745   1.325   3.074 -0.4977 -0.1579  0.3868
14045TIP3    H163550   3.739   1.417   3.049 -0.7407  0.2287  1.7915
14045TIP3    H263551   3.692   1.279   3.010  0.1520  0.5865 -0.7232
14046TIP3   OH263552   0.669   4.434  13.509 -0.5198  0.0577  0.5747
14046TIP3    H163553   0.714   4.434  13.594  2.0219 -0.3151 -0.6681
14046TIP3    H263554   0.656   4.527  13.490  1.4573  0.2923  0.1744
14047TIP3   OH263555   4.235   0.803   5.561  0.1182 -0.2393 -0.1087
14047TIP3    H163556   4.306   0.741   5.543  1.4709  0.7653  1.4310
14047TIP3    H263557   4.270   0.888   5.534  0.3837  0.5809  2.4813
14048TIP3   OH263558   1.755   0.558   2.593 -0.5482  0.8233  0.1605
14048TIP3    H163559   1.715   0.546   2.507 -1.7084  1.6536  0.5511
14048TIP3    H263560   1.849   0.555   2.577 -0.7022 -2.0958 -0.6713
14049TIP3   OH263561   3.830   0.154   1.535  0.3005 -0.2374 -0.5883
14049TIP3    H163562   3.825   0.229   1.477  0.2150 -0.9423 -1.5253
14049TIP3    H263563   3.837   0.191   1.623 -2.6793  0.8769 -0.7221
14050TIP3   OH263564   3.386   1.604   3.081  0.4607  0.2145  0.1218
14050TIP3    H163565   3.406   1.663   3.009  2.8469 -0.0898  0.4378
14050TIP3    H263566   3.359   1.662   3.153  1.1857  0.7946 -0.0635
14051TIP3   OH263567   0.666   5.373   1.062 -0.6675 -0.7735  0.0643
14051TIP3    H163568   0.630   5.293   1.025 -2.1573 -0.3836  0.5844
14051TIP3    H263569   0.752   5.383   1.020 -0.6893 -2.3295 -0.4046
14052TIP3   OH263570   5.550   2.743   3.095 -0.3862  0.1699 -0.2768
14052TIP3    H163571   5.516   2.682   3.161  0.2236  0.8868  0.7319
14052TIP3    H263572   5.478   2.752   3.032 -0.5492 -1.4327 -0.3575
14053TIP3   OH263573   3.746   6.523   6.292  0.1210  0.1900  0.5047
14053TIP3    H163574   3.801   6.572   6.231  1.8069 -1.8854  0.2218
14053TIP3    H263575   3.771   6.432   6.278 -0.5344 -0.5013  3.2553
14054TIP3   OH263576   3.872   0.148  16.751  0.0136 -0.1120 -0.4429
14054TIP3    H163577   3.967   0.158  16.759  0.3354 -0.9729 -2.4923
14054TIP3    H263578   3.855   0.160  16.658 -2.0178  0.7963  0.0006
14055TIP3   OH263579   3.227   0.949  17.024 -0.6694 -0.5799  0.1522
14055TIP3    H163580   3.134   0.968  17.029 -0.7103  0.4404 -2.5008
14055TIP3    H263581   3.269   1.020  17.073 -1.2096  1.3842 -2.0626
14056TIP3   OH263582   1.805   6.180  12.545  0.7134 -0.3065 -0.6505
14056TIP3    H163583   1.812   6.194  12.640  0.1349  1.6954 -0.8609
14056TIP3    H263584   1.759   6.097  12.536 -1.3787  0.5916  0.8764
14057TIP3   OH263585   1.294   4.732  14.975 -0.0214 -0.4738  0.0036
14057TIP3    H163586   1.378   4.732  15.020 -0.1768  0.8195  0.3365
14057TIP3    H263587   1.316   4.721  14.883  0.5553  0.2994  0.0417
14058TIP3   OH263588   3.890   2.832   2.091 -0.0449  0.1789  0.2528
14058TIP3    H163589   3.967   2.849   2.145 -0.0281 -0.7978  0.5566
14058TIP3    H263590   3.922   2.773   2.022 -0.6284 -0.6845  0.7024
14059TIP3   OH263591   4.104   0.256  15.119  0.4629 -0.3541  0.0768
14059TIP3    H163592   4.064   0.208  15.191 -0.2651 -0.2104 -0.2223
14059TIP3    H263593   4.198   0.238  15.127  0.3060 -0.9746  0.5819
14060TIP3   OH263594   3.927   6.214  14.559  0.3476  0.5195 -0.0679
14060TIP3    H163595   3.927   6.132  14.609 -0.6722  1.1112  0.9331
14060TIP3    H263596   3.867   6.197  14.487 -0.3203  0.5704  0.4679
14061TIP3   OH263597   1.012   3.970   3.787  0.9432 -0.2199 -0.1262
14061TIP3    H163598   0.952   4.043   3.801 -0.0449 -1.2100  1.0282
14061TIP3    H263599   1.098   4.011   3.777  0.3797  1.1025  0.2401
14062TIP3   OH263600   0.129   1.663  13.994 -0.2408 -0.4310  0.4718
14062TIP3    H163601   0.212   1.699  14.026 -0.4409  1.0727 -0.6447
14062TIP3    H263602   0.089   1.734  13.944 -1.7865 -1.4355  0.2251
14063TIP3   OH263603   3.470   5.440   4.291  0.0328 -0.3749  1.0169
14063TIP3    H163604   3.452   5.400   4.376  0.4822 -1.0986  0.7841
14063TIP3    H263605   3.552   5.399   4.262 -0.3899 -0.5368 -0.0069
14064TIP3   OH263606   4.635   3.965   1.883  0.4132  0.1659  0.0723
14064TIP3    H163607   4.640   3.928   1.795 -1.8108 -0.0022 -0.0309
14064TIP3    H263608   4.642   4.060   1.870  2.2597  0.0589 -0.0260
14065TIP3   OH263609   4.331   2.777  15.151 -0.3938  0.1151 -0.3700
14065TIP3    H163610   4.409   2.736  15.188  1.3630  2.2018 -1.5046
14065TIP3    H263611   4.310   2.725  15.073  1.0517  0.5838 -1.1065
14066TIP3   OH263612   2.360   2.938  11.513  0.2021  0.2606  0.2673
14066TIP3    H163613   2.376   3.011  11.573 -0.0368 -1.2535  2.2877
14066TIP3    H263614   2.394   2.861  11.559 -0.6345 -1.0906 -1.2609
14067TIP3   OH263615   6.615   0.918   5.195 -0.2829  0.2187 -0.4282
14067TIP3    H163616   6.533   0.890   5.154 -0.0896  1.4702 -1.7594
14067TIP3    H263617   6.613   1.013   5.189  0.2486  0.3835  1.5968
14068TIP3   OH263618   2.340   5.311  16.669  0.1478  0.7863 -0.0900
14068TIP3    H163619   2.376   5.308  16.580  0.6090 -1.0245  0.1241
14068TIP3    H263620   2.400   5.369  16.717  0.0193  1.6028 -0.8745
14069TIP3   OH263621   1.022   4.990  16.782 -0.1701 -0.7319 -0.0775
14069TIP3    H163622   0.994   5.059  16.722 -0.4825 -0.3896  0.4560
14069TIP3    H263623   1.026   4.911  16.728  0.6809 -0.2050 -0.8058
14070TIP3   OH263624   2.331   4.497   5.264  0.2874 -0.3335  0.0951
14070TIP3    H163625   2.322   4.570   5.203 -1.5239  0.0420  0.7628
14070TIP3    H263626   2.324   4.538   5.351  2.3724 -0.9125  0.5973
14071TIP3   OH263627   6.310   5.641   4.676  0.3800  0.0540 -0.0655
14071TIP3    H163628   6.372   5.616   4.746 -0.5369 -1.3344  0.3034
14071TIP3    H263629   6.247   5.569   4.675 -1.1691  1.3881 -0.5072
14072TIP3   OH263630   0.898   5.944  16.369 -0.4982  0.6465  0.8814
14072TIP3    H163631   0.911   5.952  16.464  1.2112 -0.8552  0.8141
14072TIP3    H263632   0.959   6.007  16.331 -2.0890  2.1877  0.7430
14073TIP3   OH263633   1.002   5.612  15.057 -0.4720  0.0245 -0.5570
14073TIP3    H163634   0.983   5.560  14.979 -1.2563  0.8105 -0.9027
14073TIP3    H263635   1.080   5.571  15.095  0.2202 -0.0663 -2.0273
14074TIP3   OH263636   3.825   4.706  14.798  0.6470  0.5803  0.4832
14074TIP3    H163637   3.841   4.732  14.888  0.0527 -1.4051  1.2104
14074TIP3    H263638   3.729   4.707  14.789  0.6328 -0.7379  0.3693
14075TIP3   OH263639   1.311   5.173   3.015 -0.7211  0.1311 -0.0076
14075TIP3    H163640   1.263   5.228   3.078 -2.4605 -0.1276 -1.0500
14075TIP3    H263641   1.306   5.085   3.052  1.7307  0.4951  1.4618
14076TIP3   OH263642   1.704   6.444   2.265 -0.0628  0.0814 -0.4266
14076TIP3    H163643   1.735   6.530   2.294 -0.8358  0.0522  0.5326
14076TIP3    H263644   1.678   6.457   2.174 -0.1300  0.8443 -0.3038
14077TIP3   OH263645   3.864   2.530   3.331  0.0805  0.3787 -0.0451
14077TIP3    H163646   3.844   2.570   3.246  0.9635 -1.0093 -0.9438
14077TIP3    H263647   3.779   2.502   3.365 -0.1497 -0.3537 -1.1663
14078TIP3   OH263648   4.484   3.532  14.782 -0.0287 -0.0057  0.1098
14078TIP3    H163649   4.478   3.568  14.693 -1.9434 -0.8506 -0.1512
14078TIP3    H263650   4.407   3.476  14.790  0.3092 -0.2362  2.2000
14079TIP3   OH263651   3.647   0.319   4.993  0.1008  0.0540 -0.1456
14079TIP3    H163652   3.558   0.320   5.028 -0.5282  0.2043 -1.6613
14079TIP3    H263653   3.657   0.404   4.949  0.9322 -0.0367 -0.1564
14080TIP3   OH263654   0.178   2.858   2.547  0.2560  0.6250 -0.4275
14080TIP3    H163655   0.258   2.854   2.496  0.0662  0.9671 -0.7587
14080TIP3    H263656   0.207   2.877   2.637  0.5960 -0.1281 -0.3740
14081TIP3   OH263657   2.330   1.278   5.447 -0.3847 -1.0304  0.4377
14081TIP3    H163658   2.294   1.213   5.387  0.1977 -0.2684 -0.7642
14081TIP3    H263659   2.395   1.326   5.396 -2.7723  2.4687  0.3315
14082TIP3   OH263660   1.818   5.110  16.855 -0.3473 -0.8264 -0.2294
14082TIP3    H163661   1.752   5.087  16.789 -1.3221  0.5207  0.2186
14082TIP3    H263662   1.863   5.186  16.817 -0.6824 -0.2630  0.4777
14083TIP3   OH263663   6.215   2.417  15.818 -0.4951  0.0758  0.4241
14083TIP3    H163664   6.201   2.479  15.890 -0.5163  1.4096 -0.6761
14083TIP3    H263665   6.296   2.372  15.840  0.5314  1.8049  0.4069
14084TIP3   OH263666   3.293   1.280   3.421 -0.7989  0.1357  0.5310
14084TIP3    H163667   3.227   1.348   3.407  0.0148  0.6703 -0.8705
14084TIP3    H263668   3.357   1.294   3.352 -0.2213 -1.6113  0.6670
14085TIP3   OH263669   0.234   2.584  10.538 -0.3207  0.9213  0.4401
14085TIP3    H163670   0.173   2.580  10.612  1.2773 -0.2672  1.7454
14085TIP3    H263671   0.321   2.574  10.577  0.5351 -0.4488 -1.6371
14086TIP3   OH263672   5.943   3.504  15.723  0.6092  0.4431 -0.8344
14086TIP3    H163673   5.918   3.560  15.796 -4.1945 -1.6603 -0.5042
14086TIP3    H263674   5.931   3.415  15.756  1.1606 -0.6508 -3.3355
14087TIP3   OH263675   4.688   0.491  14.099  0.4084  0.0492  0.1929
14087TIP3    H163676   4.616   0.432  14.121  1.8125 -1.7690  0.2168
14087TIP3    H263677   4.674   0.515  14.007 -0.6294  0.3701  0.4279
14088TIP3   OH263678   1.526   1.984  14.837 -0.5797  0.3201  0.2316
14088TIP3    H163679   1.436   1.954  14.853 -0.6382 -0.2309 -0.9782
14088TIP3    H263680   1.552   2.027  14.918 -1.1056 -1.5831  1.4874
14089TIP3   OH263681   1.592   4.785   0.702 -0.5114  1.0113 -0.1497
14089TIP3    H163682   1.574   4.765   0.610 -1.6776 -2.7630  0.7160
14089TIP3    H263683   1.654   4.718   0.730 -0.6304  1.6893  1.9579
14090TIP3   OH263684   2.382   3.778   3.284 -0.0685  0.3595  0.8922
14090TIP3    H163685   2.437   3.709   3.320  0.7906  2.0569  3.0439
14090TIP3    H263686   2.421   3.798   3.199 -0.3596 -1.7627  0.2068
14091TIP3   OH263687   2.358   4.449   4.483  0.2203  0.1516 -0.2300
14091TIP3    H163688   2.438   4.444   4.535  0.8591 -1.4838 -1.2785
14091TIP3    H263689   2.380   4.507   4.411 -0.0209  0.8502  0.2530
14092TIP3   OH263690   2.475   1.844  16.807 -0.4055  0.3958 -0.6428
14092TIP3    H163691   2.488   1.901  16.883 -0.7304 -0.8073  0.3480
14092TIP3    H263692   2.411   1.779  16.837  0.7299 -1.1136 -1.3833
14093TIP3   OH263693   2.562   4.487   1.578  0.2030  0.2536  0.5543
14093TIP3    H163694   2.512   4.467   1.658 -2.3436  0.7627 -0.7929
14093TIP3    H263695   2.570   4.582   1.578  0.7971  0.2050  0.5379
14094TIP3   OH263696   1.266   5.957   3.485 -0.3254  0.7119  0.2907
14094TIP3    H163697   1.307   5.877   3.517 -0.5542  0.6578  0.4436
14094TIP3    H263698   1.247   5.939   3.393  1.0907  1.1602 -0.1202
14095TIP3   OH263699   0.628   0.024   0.529  0.3156  0.4061 -0.7829
14095TIP3    H163700   0.689   0.063   0.466 -0.4277 -0.2319 -1.9135
14095TIP3    H263701   0.549   0.005   0.479 -0.4442  0.2220  0.4258
14096TIP3   OH263702   3.325   0.134   2.975 -0.1275 -0.0282  0.0409
14096TIP3    H163703   3.386   0.060   2.976  0.4885  0.4794  0.3260
14096TIP3    H263704   3.359   0.193   2.909 -0.1764  0.3686  0.3670
14097TIP3   OH263705   4.831   4.946   2.486  0.0223 -0.2453  0.0721
14097TIP3    H163706   4.781   5.017   2.525 -1.0389  0.8177 -2.9408
14097TIP3    H263707   4.922   4.976   2.486 -0.3254  0.8380 -0.5604
14098TIP3   OH263708   4.417   3.510  16.434 -0.1881  0.6712 -0.8417
14098TIP3    H163709   4.485   3.480  16.495 -1.5885  2.5385  1.8823
14098TIP3    H263710   4.409   3.604  16.451 -1.7349  0.9858 -2.8741
14099TIP3   OH263711   0.192   1.098  16.373  0.2727 -0.0449  0.1569
14099TIP3    H163712   0.220   1.030  16.434  0.7019  0.1118  0.1384
14099TIP3    H263713   0.162   1.169  16.429 -0.4920 -0.3767  0.1738
14100TIP3   OH263714   5.297   3.106  16.963 -0.4226 -0.1317 -0.0084
14100TIP3    H163715   5.358   3.044  17.001 -1.7209 -0.7992  1.0674
14100TIP3    H263716   5.331   3.123  16.875  2.6521  1.4333  1.3411
14101TIP3   OH263717   5.377   5.458  15.407 -0.0419 -1.0944  0.2466
14101TIP3    H163718   5.299   5.509  15.383 -0.1965 -1.3797  0.1319
14101TIP3    H263719   5.356   5.368  15.380  0.7908 -0.9750 -0.8666
14102TIP3   OH263720   5.951   3.168   5.527 -0.3210  0.4182 -0.2989
14102TIP3    H163721   5.881   3.195   5.467 -1.7560  0.7424  1.4350
14102TIP3    H263722   5.950   3.072   5.523 -0.4808  0.4345 -0.7024
14103TIP3   OH263723   0.329   2.113   2.489 -0.3688  0.1308  0.2714
14103TIP3    H163724   0.276   2.146   2.562 -1.3949  0.6687 -0.6875
14103TIP3    H263725   0.317   2.018   2.491 -0.5641  0.1636  0.6700
14104TIP3   OH263726   1.757   4.707   1.328  0.3207 -0.0973 -0.2864
14104TIP3    H163727   1.828   4.698   1.392  0.5172  0.5006 -0.4134
14104TIP3    H263728   1.696   4.769   1.367  1.5348  2.0365 -1.5882
14105TIP3   OH263729   2.731   5.639   3.126  1.3119 -0.3689 -0.1362
14105TIP3    H163730   2.678   5.565   3.156 -0.1262  0.3477 -0.7808
14105TIP3    H263731   2.821   5.607   3.128  0.6558 -2.4641 -1.3034
14106TIP3   OH263732   1.641   1.621   4.093 -0.2803 -0.0396 -0.3370
14106TIP3    H163733   1.572   1.687   4.091 -0.3932 -0.0846  1.3712
14106TIP3    H263734   1.707   1.654   4.033 -1.6243  0.1444 -1.8080
14107TIP3   OH263735   5.817   2.714   4.961 -0.5535  0.4805  0.0118
14107TIP3    H163736   5.802   2.808   4.963 -1.2551  0.4110 -1.1783
14107TIP3    H263737   5.853   2.697   4.874  0.0984 -0.2753  0.4194
14108TIP3   OH263738   6.697   0.450  13.317  0.4764 -0.2808 -0.3574
14108TIP3    H163739   6.762   0.385  13.294  0.8640 -0.0624  0.0955
14108TIP3    H263740   6.718   0.474  13.407  0.0870  0.1667 -0.3803
14109TIP3   OH263741   1.197   5.927   2.435  0.4632 -0.2136 -0.6419
14109TIP3    H163742   1.154   6.012   2.425 -0.7389 -0.8915 -1.5393
14109TIP3    H263743   1.279   5.947   2.480  0.4439  1.4768 -1.2681
14110TIP3   OH263744   0.561   6.092   5.437  0.3435 -0.5548  0.4901
14110TIP3    H163745   0.552   6.175   5.484 -0.2081 -0.0402 -0.4751
14110TIP3    H263746   0.564   6.118   5.345  0.7333 -1.5784  0.2013
14111TIP3   OH263747   5.097   0.081  15.407  0.0274 -0.5743  0.1802
14111TIP3    H163748   5.015   0.043  15.376  0.9637 -2.5693  0.0287
14111TIP3    H263749   5.165   0.035  15.359  1.3554 -0.9424  2.2587
14112TIP3   OH263750   6.817   6.801  11.600  0.2909  0.0965 -0.0440
14112TIP3    H163751   6.817   6.745  11.522  0.0035  1.0225 -0.7330
14112TIP3    H263752   6.725   6.821  11.616  0.4789  2.5556 -1.4762
14113TIP3   OH263753   2.104   0.017   0.245 -0.3437  0.3158  0.1132
14113TIP3    H163754   2.127  -0.056   0.188  0.1389  0.9246 -0.5024
14113TIP3    H263755   2.122   0.095   0.192 -1.7339  0.8693  0.4161
14114TIP3   OH263756   0.386   6.550   3.431 -0.4142  0.0031 -0.2028
14114TIP3    H163757   0.355   6.473   3.382  1.1797 -0.7329 -0.1300
14114TIP3    H263758   0.306   6.591   3.463 -1.3709 -1.0043 -1.1711
14115TIP3   OH263759   4.800   1.301  13.539  0.6065  0.0221 -0.1438
14115TIP3    H163760   4.805   1.244  13.463  1.4859 -0.2491  0.1053
14115TIP3    H263761   4.758   1.381  13.507  0.7479 -0.1799 -0.8489
14116TIP3   OH263762   1.562   5.213   3.814  0.3204  0.1739 -0.6259
14116TIP3    H163763   1.637   5.197   3.871  0.9430  3.2933 -0.3731
14116TIP3    H263764   1.596   5.199   3.726  0.3276 -1.2684 -0.4183
14117TIP3   OH263765   1.470   0.234   5.009  0.4672  0.4170  0.3658
14117TIP3    H163766   1.377   0.245   5.032 -0.1364 -3.5381  0.5951
14117TIP3    H263767   1.512   0.212   5.092  1.4271  1.0840  0.0698
14118TIP3   OH263768   5.507   2.400   2.005  0.0603 -0.0141  0.2633
14118TIP3    H163769   5.531   2.384   1.914  1.8009  2.4624  0.1800
14118TIP3    H263770   5.412   2.386   2.009  0.4386 -3.7359 -1.0012
14119TIP3   OH263771   4.316   0.929  16.958 -0.5934  0.3856  0.1082
14119TIP3    H163772   4.373   0.872  16.907  0.2640  0.3243  1.0813
14119TIP3    H263773   4.240   0.945  16.902 -1.4248 -2.6174  0.2111
14120TIP3   OH263774   2.364   1.574   3.419 -0.0827 -0.4723  0.0908
14120TIP3    H163775   2.372   1.516   3.495  2.6200 -1.2065 -0.6412
14120TIP3    H263776   2.319   1.520   3.354  1.6311 -1.5050 -0.2908
14121TIP3   OH263777   3.344   3.511  14.257  0.0280  0.6077 -0.4404
14121TIP3    H163778   3.392   3.593  14.249 -0.3090  1.0162  1.1841
14121TIP3    H263779   3.295   3.503  14.176  0.1312  1.9823 -0.6585
14122TIP3   OH263780   4.708   1.217   1.974 -0.6535  0.0550 -0.0363
14122TIP3    H163781   4.757   1.250   2.049 -2.4062  5.3937 -0.8072
14122TIP3    H263782   4.617   1.212   2.006 -0.8276 -1.8898 -0.7301
14123TIP3   OH263783   2.771   2.450   4.240 -0.3460 -0.4821  0.5019
14123TIP3    H163784   2.768   2.364   4.198 -1.1722  0.5457 -1.7411
14123TIP3    H263785   2.698   2.498   4.201 -0.0084  1.1872  1.8093
14124TIP3   OH263786   5.978   3.939   0.907  0.3205 -0.2172  0.1978
14124TIP3    H163787   6.040   3.992   0.956 -1.2412  2.3471 -0.3698
14124TIP3    H263788   6.031   3.872   0.865  2.1827 -0.2504  2.4080
14125TIP3   OH263789   4.357   2.382  16.497 -0.2631  0.2248 -0.4945
14125TIP3    H163790   4.428   2.387  16.432 -1.5624  0.5546 -1.9489
14125TIP3    H263791   4.321   2.294  16.485 -1.1049  0.6150 -0.8909
14126TIP3   OH263792   1.142   6.045  16.923 -0.3891  0.1154  0.0966
14126TIP3    H163793   1.233   6.054  16.894 -0.6976  0.0127 -0.9602
14126TIP3    H263794   1.110   6.135  16.931  0.0407  0.1765  1.3028
14127TIP3   OH263795   2.769   3.339   3.034  0.4730  0.3784 -0.0091
14127TIP3    H163796   2.721   3.406   2.987  0.8147  0.5671 -0.0900
14127TIP3    H263797   2.793   3.379   3.117  2.7591  1.2265 -0.9796
14128TIP3   OH263798   5.552   5.372  16.472 -0.0701  0.5108  0.0556
14128TIP3    H163799   5.567   5.345  16.382 -0.7821 -0.1648  0.1382
14128TIP3    H263800   5.617   5.441  16.487  0.7389 -0.0821 -0.6363
14129TIP3   OH263801   2.599   5.222  14.157 -0.3795 -0.4389  0.0362
14129TIP3    H163802   2.593   5.219  14.252 -2.3433  0.2453 -0.0158
14129TIP3    H263803   2.673   5.281  14.139 -0.4435 -0.0054  1.1287
14130TIP3   OH263804   4.995   0.299   6.194 -0.4330 -0.6015 -0.7441
14130TIP3    H163805   4.924   0.236   6.210 -0.1504 -0.4224  1.5591
14130TIP3    H263806   4.986   0.363   6.264  0.2062  1.1274 -2.1850
14131TIP3   OH263807   5.965   6.140   4.390 -0.0026  0.7698 -0.2431
14131TIP3    H163808   5.930   6.158   4.477 -2.5719  1.1249 -1.2738
14131TIP3    H263809   5.895   6.093   4.345  1.0015  1.1475 -2.3263
14132TIP3   OH263810   3.685   4.665   2.778 -0.2969 -0.6706 -0.4681
14132TIP3    H163811   3.740   4.618   2.715  1.0218 -0.4257  0.4605
14132TIP3    H263812   3.640   4.595   2.827 -2.0210 -0.8524 -2.2155
14133TIP3   OH263813   3.626   0.580   5.336  0.0697 -0.1564 -0.1312
14133TIP3    H163814   3.711   0.579   5.292 -0.1938 -0.0104 -0.6528
14133TIP3    H263815   3.608   0.673   5.350  0.6340 -0.2367  1.2454
14134TIP3   OH263816   6.707   1.659   5.405  0.2708  0.1298  0.1929
14134TIP3    H163817   6.626   1.615   5.429  0.4038  1.2993  3.2132
14134TIP3    H263818   6.694   1.685   5.314 -1.4683 -2.3406 -0.3691
14135TIP3   OH263819   2.469   3.893   0.282 -0.1462  0.0662  0.1874
14135TIP3    H163820   2.449   3.973   0.330 -0.5442 -0.3082  0.6639
14135TIP3    H263821   2.510   3.836   0.347 -0.4552 -0.3540  0.0175
14136TIP3   OH263822   3.493   5.311  13.311  0.2979  0.0850  0.4621
14136TIP3    H163823   3.466   5.277  13.225  0.2352  2.5538 -0.5953
14136TIP3    H263824   3.587   5.295  13.314  0.1751 -0.7015  0.2711
14137TIP3   OH263825   2.070   3.483  10.854 -0.1096  0.3840  0.0309
14137TIP3    H163826   2.144   3.534  10.822  0.8739 -0.8618  0.2316
14137TIP3    H263827   1.993   3.526  10.818  0.7618  1.2520 -0.8323
14138TIP3   OH263828   1.848   2.886   2.309  0.2684  0.2463 -0.3123
14138TIP3    H163829   1.804   2.971   2.309  0.9340  0.6047 -0.1316
14138TIP3    H263830   1.928   2.901   2.258  1.2966  0.2320  1.2092
14139TIP3   OH263831   0.620   3.908   2.764 -0.2987  0.1550  0.0092
14139TIP3    H163832   0.678   3.974   2.727 -0.2850  0.9393  1.3529
14139TIP3    H263833   0.606   3.936   2.854 -2.3621 -0.2969 -0.1146
14140TIP3   OH263834   2.995   1.263   0.922  0.1913 -0.3011 -0.5289
14140TIP3    H163835   2.913   1.220   0.897  0.0318 -0.4320  0.1945
14140TIP3    H263836   3.059   1.231   0.859 -0.7695  1.6184 -2.6188
14141TIP3   OH263837   2.133   3.129   6.037  0.9240 -0.1951 -0.5073
14141TIP3    H163838   2.161   3.077   6.112  0.0534  1.0028  0.7045
14141TIP3    H263839   2.178   3.213   6.048 -1.1838  0.9224  0.1734
14142TIP3   OH263840   5.276   0.453  11.967 -0.0683 -0.2409  0.7761
14142TIP3    H163841   5.192   0.445  11.921  0.4963  1.7519 -0.7143
14142TIP3    H263842   5.266   0.530  12.023  0.6862 -0.1243  0.7639
14143TIP3   OH263843   6.721   6.189   4.481 -1.1035  0.0538 -0.2231
14143TIP3    H163844   6.771   6.185   4.562  0.2543 -2.1260 -1.0712
14143TIP3    H263845   6.633   6.162   4.505 -0.8612  0.0048  0.6289
14144TIP3   OH263846   1.540   2.627  13.384 -0.0773 -0.0406 -0.9257
14144TIP3    H163847   1.532   2.618  13.289  0.2924  0.9901 -1.0569
14144TIP3    H263848   1.592   2.706  13.397  1.5455 -1.2033  0.1028
14145TIP3   OH263849   5.726   4.976  14.534  0.0633  0.0708  0.6290
14145TIP3    H163850   5.789   4.980  14.462  0.4391 -0.5142  0.9232
14145TIP3    H263851   5.669   5.052  14.520 -0.3042 -0.4334 -0.6763
14146TIP3   OH263852   3.989   0.509   1.272  0.4368 -0.1038  0.4860
14146TIP3    H163853   3.975   0.592   1.316 -1.5327  0.0405 -0.3219
14146TIP3    H263854   4.071   0.521   1.223  1.4797  0.4671  2.2739
14147TIP3   OH263855   5.630   0.882   6.447 -0.4475 -0.5100  0.0328
14147TIP3    H163856   5.560   0.875   6.512 -0.1927  0.7550  0.4682
14147TIP3    H263857   5.705   0.916   6.495  0.4077 -1.6094 -0.4860
14148TIP3   OH263858   4.079   6.282  16.350 -0.0717 -0.3903 -0.2359
14148TIP3    H163859   4.113   6.352  16.294  0.2421 -0.5541 -0.2534
14148TIP3    H263860   4.015   6.237  16.295  0.0676 -0.4089 -0.3819
14149TIP3   OH263861   1.396   2.855   1.731  0.3834  0.2807  0.2482
14149TIP3    H163862   1.398   2.825   1.822 -0.2728 -0.5480  0.0020
14149TIP3    H263863   1.484   2.838   1.698  0.3448 -0.3318  0.4488
14150TIP3   OH263864   2.455   5.822   3.315 -0.0451 -0.3827  0.0104
14150TIP3    H163865   2.444   5.833   3.221 -1.0531 -0.9532  0.0484
14150TIP3    H263866   2.548   5.805   3.327  0.1331 -0.0254 -0.8520
14151TIP3   OH263867   1.985   2.829   1.516 -0.5561 -0.8295  0.3469
14151TIP3    H163868   2.066   2.779   1.527 -0.2802 -0.2998  0.8000
14151TIP3    H263869   1.957   2.849   1.606 -1.0558 -0.7855  0.1882
14152TIP3   OH263870   2.234   5.996  11.147  0.6577 -0.2840 -0.1725
14152TIP3    H163871   2.227   6.092  11.148 -0.2592 -0.3524  0.6022
14152TIP3    H263872   2.175   5.969  11.077  1.8010 -0.2407 -1.1958
14153TIP3   OH263873   3.395   2.942  10.812  0.1263 -0.2428  0.0026
14153TIP3    H163874   3.435   2.928  10.898  0.3043  0.9830  0.1302
14153TIP3    H263875   3.301   2.939  10.829  0.1608 -0.1707  0.2130
14154TIP3   OH263876   0.235   4.642  16.947  0.3717 -0.3479 -0.3570
14154TIP3    H163877   0.142   4.655  16.925 -0.0489 -2.1032  0.2011
14154TIP3    H263878   0.271   4.595  16.871  0.4273 -0.9698  0.0463
14155TIP3   OH263879   5.524   2.719   4.695  0.5057  0.7847 -0.3520
14155TIP3    H163880   5.582   2.644   4.685  2.2164  1.4551  3.0384
14155TIP3    H263881   5.459   2.692   4.760 -0.7326  1.2945 -1.3293
14156TIP3   OH263882   2.045   2.766   3.899  0.5126 -0.1772 -0.1435
14156TIP3    H163883   2.053   2.671   3.909  1.2887 -0.0281  0.7686
14156TIP3    H263884   2.036   2.779   3.805 -2.9268 -1.3651 -0.1137
14157TIP3   OH263885   3.974   4.943  14.477 -0.0837 -0.2224 -0.5492
14157TIP3    H163886   3.927   4.887  14.415  1.2654 -0.2133 -1.6268
14157TIP3    H263887   4.066   4.917  14.468  0.2811  0.5814  0.6254
14158TIP3   OH263888   2.312   1.766   5.255 -0.0620 -0.1971  0.0620
14158TIP3    H163889   2.293   1.705   5.327 -0.5776  1.1775  1.1413
14158TIP3    H263890   2.367   1.716   5.195  0.9400 -1.1995  1.7255
14159TIP3   OH263891   0.438   6.625  10.631  0.1635 -0.0165 -0.1767
14159TIP3    H163892   0.387   6.704  10.652  0.3402 -0.0559  0.4116
14159TIP3    H263893   0.372   6.559  10.611  0.0213  0.4243 -1.2360
14160TIP3   OH263894   2.444   3.523   2.758  0.7079  0.4502  0.3787
14160TIP3    H163895   2.521   3.486   2.715  1.1488  2.7533 -0.9842
14160TIP3    H263896   2.462   3.514   2.851  1.2848 -1.6085  0.1303
14161TIP3   OH263897   6.432   6.688   5.297 -0.0592  0.4573  0.1109
14161TIP3    H163898   6.357   6.735   5.335 -1.7296 -1.5002 -0.5643
14161TIP3    H263899   6.409   6.677   5.205  1.5899  0.7306 -0.3556
14162TIP3   OH263900   6.506   3.294  11.260  0.1432 -0.0916 -0.0484
14162TIP3    H163901   6.558   3.233  11.312 -0.4373 -1.2601 -0.8019
14162TIP3    H263902   6.546   3.291  11.173 -1.0992 -0.9210 -0.6096
14163TIP3   OH263903   5.471   5.172  12.298  0.7262  0.0506 -0.1422
14163TIP3    H163904   5.514   5.251  12.332 -1.7092  1.0613  0.8204
14163TIP3    H263905   5.506   5.162  12.210  0.9853  2.3242 -0.3641
14164TIP3   OH263906   1.607   3.146  15.274  0.6839 -0.2762 -0.4850
14164TIP3    H163907   1.615   3.145  15.369  0.1123  1.1179 -0.3897
14164TIP3    H263908   1.514   3.137  15.257  0.6555  0.5563 -0.8505
14165TIP3   OH263909   1.220   0.120  16.731  0.2523  0.4713  0.0965
14165TIP3    H163910   1.219   0.040  16.679  0.1445  0.0361  0.7675
14165TIP3    H263911   1.130   0.152  16.728  0.2916  0.5627 -0.1557
14166TIP3   OH263912   1.133   6.132  11.517 -0.0900  0.0639 -0.3249
14166TIP3    H163913   1.215   6.117  11.564 -0.0006 -0.0282 -0.5094
14166TIP3    H263914   1.082   6.187  11.576  1.1351  2.3838 -1.2575
14167TIP3   OH263915   0.245   3.689  12.670  0.0479 -0.1739 -0.4453
14167TIP3    H163916   0.199   3.771  12.689 -1.1024 -0.6488 -1.0414
14167TIP3    H263917   0.322   3.715  12.619  0.8769  0.7138  1.2104
14168TIP3   OH263918   5.702   6.336   1.971 -0.3245  0.2291  0.2457
14168TIP3    H163919   5.729   6.375   2.054 -0.2253  0.9407 -0.1106
14168TIP3    H263920   5.761   6.262   1.959 -0.4961 -0.0248  0.9221
14169TIP3   OH263921   5.668   2.714   2.424  0.2530  0.7101 -0.0850
14169TIP3    H163922   5.602   2.783   2.421  0.0418  0.5554  0.8033
14169TIP3    H263923   5.650   2.661   2.347  0.2984  1.5296 -0.6813
14170TIP3   OH263924   1.046   3.892   0.480 -0.4845  0.2113  0.1153
14170TIP3    H163925   1.024   3.985   0.470  2.0402  1.1421  2.1738
14170TIP3    H263926   1.111   3.875   0.412 -0.7932 -0.0264 -0.1269
14171TIP3   OH263927   3.808   1.059   3.958  0.1088  0.3514 -0.4024
14171TIP3    H163928   3.807   1.060   4.054 -0.0004 -0.0051 -0.3992
14171TIP3    H263929   3.744   1.125   3.933 -0.0371  0.2781 -0.2277
14172TIP3   OH263930   5.818   1.275   1.411 -0.1022  0.3970 -0.9896
14172TIP3    H163931   5.750   1.276   1.344 -0.5257  1.8107 -0.5615
14172TIP3    H263932   5.899   1.294   1.364 -0.5741  2.7218 -0.9620
14173TIP3   OH263933   1.290   0.629  13.136 -0.3426 -0.2340 -0.0357
14173TIP3    H163934   1.227   0.668  13.196  0.6393 -0.6374  1.3124
14173TIP3    H263935   1.247   0.631  13.051 -1.8566  0.1936  0.7079
14174TIP3   OH263936   4.417   2.690  12.897 -0.0634 -0.4551 -0.1951
14174TIP3    H163937   4.396   2.762  12.838  1.1481  0.9930  1.0639
14174TIP3    H263938   4.369   2.615  12.862 -2.3066  1.2084 -0.8907
14175TIP3   OH263939   3.987   4.243  14.268 -0.0427 -0.5591  0.3033
14175TIP3    H163940   3.988   4.216  14.360  1.3843 -0.5576  0.3120
14175TIP3    H263941   3.928   4.180  14.225  1.9449 -2.7694  0.6027
14176TIP3   OH263942   1.971   5.690   4.093  0.1622  0.5072  0.6302
14176TIP3    H163943   1.972   5.674   4.187  1.5936  1.0598  0.7421
14176TIP3    H263944   2.039   5.631   4.059 -1.2558 -0.6705 -0.2536
14177TIP3   OH263945   1.045   1.149   5.425 -0.0749 -0.1210  0.0827
14177TIP3    H163946   1.071   1.222   5.482  1.1712 -0.5994  0.1526
14177TIP3    H263947   1.004   1.085   5.484  2.4372 -1.2243  0.7353
14178TIP3   OH263948   6.567   2.781  13.968  0.1534 -0.0810 -0.0458
14178TIP3    H163949   6.654   2.820  13.972  0.0234  0.1251  0.8722
14178TIP3    H263950   6.507   2.852  13.993 -0.2132 -0.4465  0.1300
14179TIP3   OH263951   1.572   0.738   3.941  0.4111 -0.0454 -0.1495
14179TIP3    H163952   1.586   0.785   3.860 -0.2823  1.1993  0.4301
14179TIP3    H263953   1.658   0.704   3.965  1.2493  2.1580  0.1501
14180TIP3   OH263954   0.003   4.553   4.449 -0.0342  0.0186  0.5159
14180TIP3    H163955   0.007   4.459   4.470  0.4092 -0.1006 -0.0703
14180TIP3    H263956  -0.091   4.571   4.441 -0.0912 -0.9401 -1.7363
14181TIP3   OH263957   4.380   0.754  11.657  0.2967  0.1899  0.1424
14181TIP3    H163958   4.405   0.741  11.566 -1.2566  0.6329 -0.3717
14181TIP3    H263959   4.402   0.845  11.676  0.0494  0.2741  0.0227
14182TIP3   OH263960   3.169   6.020   2.051 -0.2196  0.1208 -0.2517
14182TIP3    H163961   3.188   5.979   1.967  0.3366  1.1881 -0.6660
14182TIP3    H263962   3.117   6.097   2.029  0.5301  0.8105  0.2879
14183TIP3   OH263963   2.483   1.114   2.389  0.5420  0.2533  0.4349
14183TIP3    H163964   2.447   1.121   2.300 -0.2726 -1.3565  0.6126
14183TIP3    H263965   2.407   1.099   2.445  1.2592 -1.0800  1.0926
14184TIP3   OH263966   2.880   2.974  16.948 -0.0657 -0.0667  0.0529
14184TIP3    H163967   2.819   2.901  16.941 -1.0822  0.6679  0.9010
14184TIP3    H263968   2.919   2.981  16.861 -1.0875 -0.6552 -0.4756
14185TIP3   OH263969   0.259   3.865   3.717  0.6871 -0.0637  0.0755
14185TIP3    H163970   0.311   3.940   3.689  1.5777  0.1355  2.0672
14185TIP3    H263971   0.199   3.900   3.783 -0.6859 -0.6539 -0.8227
14186TIP3   OH263972   6.679   0.423  15.301  0.3858  0.1241  0.4971
14186TIP3    H163973   6.737   0.375  15.360  0.4877 -0.7928 -0.3217
14186TIP3    H263974   6.731   0.496  15.269  1.1186 -0.6916 -0.2323
14187TIP3   OH263975   4.980   6.340   4.784 -0.7041  0.1335 -0.2524
14187TIP3    H163976   5.015   6.257   4.752 -0.7130 -0.1929  0.5540
14187TIP3    H263977   4.912   6.314   4.847 -1.3375  0.7559 -0.6697
14188TIP3   OH263978   5.833   4.537   2.902  0.3410 -0.0103 -0.7936
14188TIP3    H163979   5.889   4.599   2.856  0.7936  1.3596  1.4246
14188TIP3    H263980   5.765   4.591   2.943 -0.0847 -1.1264  0.0313
14189TIP3   OH263981   1.090   3.945   4.070  0.4291  0.5950 -0.2787
14189TIP3    H163982   1.097   3.862   4.118  1.9551  1.2997  0.7951
14189TIP3    H263983   1.164   3.944   4.009  0.9146  1.4879  0.2838
14190TIP3   OH263984   5.566   5.402  11.447 -0.1476  0.1059 -0.2976
14190TIP3    H163985   5.543   5.354  11.368  0.3318  0.6700 -0.7903
14190TIP3    H263986   5.605   5.337  11.505 -0.6131 -0.3344 -0.4739
14191TIP3   OH263987   6.661   1.625   2.159  0.2722  0.3210 -0.2250
14191TIP3    H163988   6.579   1.653   2.200  0.5140 -0.7689  1.0679
14191TIP3    H263989   6.722   1.697   2.176 -0.6232  1.6130 -2.0775
14192TIP3   OH263990   4.698   2.955   2.907 -0.6534 -0.9694 -0.0405
14192TIP3    H163991   4.643   2.932   2.832 -1.0406  0.2004 -0.1353
14192TIP3    H263992   4.651   2.919   2.982 -1.2499 -0.5089 -0.1795
14193TIP3   OH263993   5.874   1.284   2.704  0.5285  0.2055  0.1134
14193TIP3    H163994   5.932   1.272   2.629  1.3910  2.1422  0.4062
14193TIP3    H263995   5.911   1.230   2.773  1.6880  0.9559  0.1116
14194TIP3   OH263996   5.568   5.968  15.112  0.5002  0.1483 -0.5385
14194TIP3    H163997   5.630   6.003  15.047 -1.1335  1.4234 -1.5119
14194TIP3    H263998   5.559   6.039  15.176  0.6440 -0.3403  0.0208
14195TIP3   OH263999   1.587   3.009  13.714  0.0537  0.4148  0.1474
14195TIP3    H164000   1.533   2.950  13.766 -1.9022  0.4467 -1.7296
14195TIP3    H264001   1.677   2.991  13.744 -0.9326  0.7467  3.7454
14196TIP3   OH264002   2.292   3.305   6.124 -0.4618 -0.2098  0.6141
14196TIP3    H164003   2.237   3.361   6.179  1.1144  0.6531  1.3898
14196TIP3    H264004   2.312   3.360   6.047  1.6933  0.6616  1.7182
14197TIP3   OH264005   6.267   4.686   6.203  0.0662 -0.3482 -0.1647
14197TIP3    H164006   6.223   4.657   6.283 -0.7285  0.3539 -0.3335
14197TIP3    H264007   6.203   4.743   6.160  0.9377  0.2460 -0.7037
14198TIP3   OH264008   5.884   0.663  11.818 -0.2608  0.2242 -0.4679
14198TIP3    H164009   5.917   0.647  11.906 -1.0578  0.4044 -0.1359
14198TIP3    H264010   5.954   0.630  11.760 -0.3859 -1.3049  0.2085
14199TIP3   OH264011   6.161   0.314   2.829  0.3202 -0.0714 -0.2659
14199TIP3    H164012   6.074   0.308   2.868  1.1450  1.5691  2.0990
14199TIP3    H264013   6.169   0.235   2.776 -1.9881 -1.0852  0.7350
14200TIP3   OH264014   1.185   3.607   1.165  0.5523 -0.3139 -0.3162
14200TIP3    H164015   1.171   3.551   1.242 -4.1254  0.2606 -0.4671
14200TIP3    H264016   1.177   3.547   1.091 -1.6415 -0.0123 -0.3968
14201TIP3   OH264017   0.781   1.161   5.259 -0.1968  0.1300 -0.4075
14201TIP3    H164018   0.727   1.121   5.327  0.2377 -3.6667 -2.0745
14201TIP3    H264019   0.717   1.190   5.193 -0.5275  2.7525  0.9037
14202TIP3   OH264020   2.663   1.474   4.234  0.5187  0.7822  0.7166
14202TIP3    H164021   2.609   1.469   4.312 -0.2658  2.3964  0.3328
14202TIP3    H264022   2.712   1.556   4.244  1.6784  0.1656  0.2894
14203TIP3   OH264023   0.331   4.402   6.514  0.2810 -0.3801 -0.1688
14203TIP3    H164024   0.405   4.354   6.476  0.3501  0.3078 -0.9488
14203TIP3    H264025   0.371   4.465   6.574  0.3586  0.1579 -0.7742
14204TIP3   OH264026   5.704   3.713  16.409 -0.3066  0.4252 -0.4346
14204TIP3    H164027   5.746   3.680  16.488 -1.5615  0.0052  0.0882
14204TIP3    H264028   5.756   3.789  16.384  0.6666  0.0009  0.2533
14205TIP3   OH264029   0.560   5.763   1.422  0.3208  0.3954  0.0284
14205TIP3    H164030   0.508   5.696   1.465 -0.7739  0.0422 -1.7787
14205TIP3    H264031   0.597   5.814   1.495  0.6699 -1.7160  1.4306
14206TIP3   OH264032   5.149   2.718  10.351  0.6124  0.2204 -0.5321
14206TIP3    H164033   5.182   2.805  10.327  0.3687  0.2345 -0.8205
14206TIP3    H264034   5.075   2.703  10.293 -1.5920  1.2710  1.8289
14207TIP3   OH264035   4.312   4.141   0.482  0.4203  0.1813 -0.3349
14207TIP3    H164036   4.325   4.233   0.505  1.5688  0.3995 -1.7184
14207TIP3    H264037   4.339   4.135   0.390  2.6293 -1.9613  0.3397
14208TIP3   OH264038   4.694   6.259   0.962 -0.2702  0.0709 -0.9233
14208TIP3    H164039   4.770   6.253   0.904 -0.3767  0.0126 -1.0587
14208TIP3    H264040   4.626   6.210   0.917 -0.0168 -0.9785 -0.2052
14209TIP3   OH264041   2.173   4.530   1.049  0.2687  0.0189  0.0062
14209TIP3    H164042   2.212   4.442   1.044 -1.2362 -0.6740 -0.1928
14209TIP3    H264043   2.211   4.576   0.974  0.0646 -0.9175 -0.7063
14210TIP3   OH264044   3.801   3.312   2.754  0.2180  0.0300 -0.1990
14210TIP3    H164045   3.833   3.360   2.831  0.0660 -1.1100  0.6099
14210TIP3    H264046   3.878   3.266   2.721 -0.1248 -1.0538  0.4819
14211TIP3   OH264047   5.600   2.462  16.698 -0.1899  0.1011  1.1155
14211TIP3    H164048   5.556   2.546  16.680  0.9240  0.3641 -0.5582
14211TIP3    H264049   5.682   2.468  16.650 -0.5706 -2.4122  0.0150
14212TIP3   OH264050   2.501   5.197   5.902  0.7558  0.2895 -0.2252
14212TIP3    H164051   2.556   5.276   5.904 -0.3940  1.1018  0.3754
14212TIP3    H264052   2.490   5.174   5.995  1.0669 -0.5701 -0.3987
14213TIP3   OH264053   4.196   5.056  16.244  0.1081 -0.0926  0.0483
14213TIP3    H164054   4.187   4.964  16.270  1.9359 -0.5519 -0.7613
14213TIP3    H264055   4.255   5.094  16.309  0.7157  0.0547 -0.5786
14214TIP3   OH264056   0.507   2.848   3.978  0.2649  0.4922  0.1167
14214TIP3    H164057   0.474   2.827   4.066  3.1191  2.2177  1.7847
14214TIP3    H264058   0.450   2.918   3.948 -0.8154 -0.1791  0.5344
14215TIP3   OH264059   0.980   2.217  10.551  0.3619 -0.3515 -0.3121
14215TIP3    H164060   0.921   2.219  10.476  2.0779 -2.8198 -1.9030
14215TIP3    H264061   1.016   2.306  10.555  0.8533 -0.3180 -3.0645
14216TIP3   OH264062   3.849   5.805  13.936  0.0112 -0.1325 -0.1124
14216TIP3    H164063   3.787   5.796  14.009  0.2172  1.1031  0.2337
14216TIP3    H264064   3.863   5.715  13.905  0.2038 -0.7266  1.6104
14217TIP3   OH264065   4.972   3.400  14.718 -0.0354 -0.2602  0.7927
14217TIP3    H164066   4.888   3.419  14.761 -0.5128 -2.1038  0.7499
14217TIP3    H264067   4.953   3.327  14.659  1.4891 -0.3536  0.3723
14218TIP3   OH264068   5.941   3.493   0.413 -0.3672 -0.0535 -0.5759
14218TIP3    H164069   5.959   3.582   0.384  0.8654 -0.4706 -1.1497
14218TIP3    H264070   5.948   3.496   0.508 -0.8888  0.5694 -0.5528
14219TIP3   OH264071   3.704   3.419   4.235  0.0350  0.4353  0.1541
14219TIP3    H164072   3.641   3.348   4.249  0.3678 -0.2398 -1.5183
14219TIP3    H264073   3.763   3.414   4.311  0.3591 -1.4440 -0.1789
14220TIP3   OH264074   6.235   5.498   5.455 -0.0574 -0.2563 -0.1758
14220TIP3    H164075   6.144   5.475   5.469 -0.4985  1.1225 -0.6120
14220TIP3    H264076   6.233   5.570   5.391  1.3519 -0.4828 -0.5224
14221TIP3   OH264077   2.112   2.963   3.433 -0.7275 -0.0029  0.3437
14221TIP3    H164078   2.077   3.031   3.375 -1.2742 -0.7777 -0.2461
14221TIP3    H264079   2.153   2.900   3.374  1.3850  0.6854  0.9852
14222TIP3   OH264080   6.559   3.942   6.188 -0.4196 -0.0257 -0.6812
14222TIP3    H164081   6.640   3.895   6.168  0.3675  0.7758  0.4784
14222TIP3    H264082   6.570   3.970   6.279 -1.3114  1.4794 -1.0061
14223TIP3   OH264083   3.130   2.910  14.455  0.1702 -0.1254 -0.4858
14223TIP3    H164084   3.069   2.983  14.470 -0.1139  0.1004 -2.4569
14223TIP3    H264085   3.086   2.834  14.492  0.7299  0.7350  2.1442
14224TIP3   OH264086   5.234   6.240  12.579  0.3821 -0.3690  0.0646
14224TIP3    H164087   5.142   6.237  12.607  0.6701  1.0287  1.3019
14224TIP3    H264088   5.240   6.174  12.511 -1.8692  0.4139 -1.0087
14225TIP3   OH264089   2.629   6.262  12.657 -0.1118  0.7952  0.6904
14225TIP3    H164090   2.589   6.319  12.592  1.2052 -0.2107 -1.0808
14225TIP3    H264091   2.556   6.220  12.702 -1.2566 -1.9360 -3.2449
14226TIP3   OH264092   0.204   2.064  11.647 -0.5120  0.4716  0.0591
14226TIP3    H164093   0.130   2.101  11.598 -1.4779  0.5170  1.5051
14226TIP3    H264094   0.200   1.970  11.628 -1.5230  0.3358  0.8328
14227TIP3   OH264095   6.238   1.758   2.876 -0.0144 -0.2212  0.4724
14227TIP3    H164096   6.178   1.819   2.918  0.9451  2.3623 -1.6134
14227TIP3    H264097   6.325   1.783   2.908  0.2932 -1.5324  0.7244
14228TIP3   OH264098   4.822   5.202  14.450  0.2402 -0.1842 -0.3794
14228TIP3    H164099   4.736   5.243  14.446  0.1224 -0.4490 -0.6293
14228TIP3    H264100   4.883   5.276  14.457  0.0924  0.0927 -1.7308
14229TIP3   OH264101   5.859   1.409   0.709 -0.0951 -0.3311  0.0193
14229TIP3    H164102   5.888   1.488   0.755 -1.2671 -0.2008  0.5852
14229TIP3    H264103   5.852   1.435   0.617 -1.2886  0.4954  0.3188
14230TIP3   OH264104   3.096   3.913   3.883  0.2935 -0.1902  0.1744
14230TIP3    H164105   3.055   3.966   3.951  0.1999  1.1616 -0.8873
14230TIP3    H264106   3.149   3.975   3.833 -0.2799 -0.9770 -1.4813
14231TIP3   OH264107   0.190   2.045   5.099 -0.4393  0.5052  0.7443
14231TIP3    H164108   0.253   1.990   5.052 -0.3065  1.0472  0.2814
14231TIP3    H264109   0.127   1.983   5.135 -0.3979  0.0595  0.0688
14232TIP3   OH264110   4.537   5.081   5.551 -0.2921  0.3569 -0.7512
14232TIP3    H164111   4.580   5.032   5.482 -0.1703 -1.5525  0.5823
14232TIP3    H264112   4.601   5.146   5.579  1.1472 -1.3432  0.0685
14233TIP3   OH264113   4.158   3.658  15.691  0.0669 -0.2301  0.3532
14233TIP3    H164114   4.116   3.743  15.707  0.2580  0.0664 -0.6099
14233TIP3    H264115   4.233   3.657  15.750 -0.7522 -0.3805  1.4380
14234TIP3   OH264116   4.138   5.450  13.335  0.1860  0.2994  0.0646
14234TIP3    H164117   4.212   5.448  13.275 -0.1153 -1.6538 -0.2815
14234TIP3    H264118   4.072   5.503  13.290  0.7398  0.6229 -0.3753
14235TIP3   OH264119   2.524   2.698  13.557 -0.0927  0.6829 -0.6194
14235TIP3    H164120   2.588   2.634  13.529 -0.2196 -2.7276  5.1755
14235TIP3    H264121   2.576   2.770  13.593  0.2986  0.5092 -0.8304
14236TIP3   OH264122   5.796   0.944  15.143 -0.2011 -0.2357 -0.0457
14236TIP3    H164123   5.763   0.909  15.225  1.0534  0.6636  0.8757
14236TIP3    H264124   5.733   1.012  15.119 -0.0182  0.2199  0.7354
14237TIP3   OH264125   2.361   3.299   5.098  0.2594 -0.1020 -0.7145
14237TIP3    H164126   2.346   3.393   5.094  0.4239 -0.0594 -0.4014
14237TIP3    H264127   2.321   3.271   5.180 -0.5664 -0.4595 -1.2306
14238TIP3   OH264128   2.449   4.724  11.231  0.0443 -0.1758  0.0248
14238TIP3    H164129   2.502   4.791  11.274 -0.0723 -0.2412  0.2708
14238TIP3    H264130   2.476   4.728  11.139  2.4100 -2.0199  0.5615
14239TIP3   OH264131   1.930   4.650  10.212 -0.2354  0.1285 -0.5566
14239TIP3    H164132   1.893   4.737  10.197 -0.8583 -0.3578 -2.0338
14239TIP3    H264133   2.008   4.666  10.265 -0.7477  1.5092 -0.1845
14240TIP3   OH264134   5.556   1.913  14.471 -0.4791  0.3552 -0.5377
14240TIP3    H164135   5.632   1.890  14.418 -1.6172  0.5689 -2.3376
14240TIP3    H264136   5.562   2.009  14.481  1.5080  0.0656  2.6591
14241TIP3   OH264137   0.654   1.344  15.306 -0.0249  0.0125  0.3504
14241TIP3    H164138   0.723   1.278  15.309  0.9360  1.0322  3.0495
14241TIP3    H264139   0.701   1.427  15.295 -0.8947  0.6239  1.1643
14242TIP3   OH264140   1.031   3.168   1.444 -0.2442 -0.6039  0.4813
14242TIP3    H164141   0.986   3.098   1.397 -0.3845 -1.3269  1.6341
14242TIP3    H264142   1.115   3.129   1.469  0.6550  0.4070 -0.8020
14243TIP3   OH264143   6.807   1.799  13.550 -0.0127  0.6317  0.6492
14243TIP3    H164144   6.729   1.807  13.496  0.8524 -2.1608 -1.2065
14243TIP3    H264145   6.798   1.714  13.593  1.6530  0.5759  0.9563
14244TIP3   OH264146   5.423   1.341   0.682 -0.2868 -0.0390  0.2369
14244TIP3    H164147   5.442   1.419   0.734 -1.4767 -0.2028  0.9599
14244TIP3    H264148   5.331   1.323   0.699 -0.0770 -1.5130 -0.0263
14245TIP3   OH264149   6.794   0.315  16.990  0.2547 -0.1073 -0.2296
14245TIP3    H164150   6.724   0.313  17.054 -0.6563 -0.5935 -1.2071
14245TIP3    H264151   6.809   0.223  16.967  0.9638  0.0160 -0.3078
14246TIP3   OH264152   2.398   3.440  16.269  0.3832 -0.6159 -0.2880
14246TIP3    H164153   2.310   3.477  16.270  1.2846  1.7461 -0.6378
14246TIP3    H264154   2.452   3.507  16.227  2.6376 -1.2808  1.3154
14247TIP3   OH264155   2.818   0.165  15.561  0.0013  0.3325 -0.4781
14247TIP3    H164156   2.868   0.230  15.609 -0.3821 -0.3764  0.9274
14247TIP3    H264157   2.778   0.213  15.488  1.9457  1.0961 -1.1110
14248TIP3   OH264158   1.374   3.493   5.156 -0.0419 -0.5661  0.2746
14248TIP3    H164159   1.283   3.488   5.186  0.0161 -2.5814  0.2725
14248TIP3    H264160   1.368   3.512   5.063 -0.3317  1.9617  0.7297
14249TIP3   OH264161   4.209   4.422   5.424  0.2589 -0.1558 -0.2980
14249TIP3    H164162   4.270   4.386   5.360 -0.9538  0.2700 -1.7714
14249TIP3    H264163   4.139   4.358   5.429 -1.1889  1.1956 -1.8250
14250TIP3   OH264164   0.948   5.773   5.379  0.1964  0.3284 -0.4485
14250TIP3    H164165   0.878   5.815   5.429 -0.1790 -0.6936 -0.0911
14250TIP3    H264166   1.024   5.777   5.437  0.4903  1.5220 -0.8740
14251TIP3   OH264167   1.737   3.406   0.100 -0.2681  0.4849 -0.5095
14251TIP3    H164168   1.803   3.433   0.036 -0.1063  0.2925 -0.4218
14251TIP3    H264169   1.726   3.312   0.085 -0.2613  0.4494 -0.2827
14252TIP3   OH264170   1.290   4.723  12.497  0.2781 -0.1064 -0.0086
14252TIP3    H164171   1.197   4.741  12.509  0.4997  1.8900 -0.8282
14252TIP3    H264172   1.296   4.628  12.493 -1.6642 -0.2924  0.4357
14253TIP3   OH264173   1.368   2.267  14.902  0.4228  0.4502 -0.4627
14253TIP3    H164174   1.344   2.226  14.819 -0.0308 -0.3600  0.0549
14253TIP3    H264175   1.333   2.208  14.968 -1.0653  2.1201  0.3157
14254TIP3   OH264176   1.880   2.137   4.229 -0.5504 -0.0210 -0.2449
14254TIP3    H164177   1.808   2.194   4.256  0.2796  1.1439 -0.4255
14254TIP3    H264178   1.957   2.193   4.230  0.3078 -1.1591 -0.3996
14255TIP3   OH264179   4.862   2.009   1.409  0.0151  0.1300  0.2336
14255TIP3    H164180   4.772   1.982   1.392 -0.0889  0.5159  0.1819
14255TIP3    H264181   4.867   2.018   1.504  0.0672 -0.1201  0.2572
14256TIP3   OH264182   0.983   5.816   5.898 -0.1853 -0.5225  0.2633
14256TIP3    H164183   1.025   5.896   5.867 -0.4911 -0.4228  0.1028
14256TIP3    H264184   1.054   5.766   5.940 -0.4660  0.9869  2.7396
14257TIP3   OH264185   6.721   3.520  16.486  0.3818 -0.2479  0.6293
14257TIP3    H164186   6.745   3.609  16.459  0.2446 -0.1978  0.6710
14257TIP3    H264187   6.783   3.498  16.555  1.9931 -1.1138 -1.0197
14258TIP3   OH264188   5.952   5.905   5.227 -0.3239  0.1282 -0.2613
14258TIP3    H164189   5.860   5.896   5.253 -0.0842 -0.9273  0.2679
14258TIP3    H264190   5.996   5.940   5.304 -0.4366  1.6288 -0.8425
14259TIP3   OH264191   6.747   1.211   2.685  0.0096  0.0519 -0.2399
14259TIP3    H164192   6.721   1.125   2.651 -1.1888 -0.0111  0.7651
14259TIP3    H264193   6.665   1.258   2.694  0.5965  1.0627 -0.1071
14260TIP3   OH264194   4.400   4.519   2.942 -0.0600 -0.1449 -0.2194
14260TIP3    H164195   4.408   4.468   3.023 -2.5869  0.7093  0.6635
14260TIP3    H264196   4.333   4.584   2.961  0.1818  0.9290 -2.6293
14261TIP3   OH264197   5.879   4.378  16.519 -0.0978  0.0153 -0.4773
14261TIP3    H164198   5.861   4.445  16.585  1.8604  0.4796 -0.3740
14261TIP3    H264199   5.871   4.424  16.436  0.2379  0.1390 -0.4438
14262TIP3   OH264200   1.638   0.091  16.808 -0.2499 -0.3568  0.2085
14262TIP3    H164201   1.586   0.117  16.733  0.3200 -1.1429 -0.4784
14262TIP3    H264202   1.618  -0.002  16.821 -0.7646 -0.1015  1.3847
14263TIP3   OH264203   0.291   2.314   5.667 -0.3484 -0.1594  0.3239
14263TIP3    H164204   0.253   2.258   5.599  1.7411 -0.9056 -0.3126
14263TIP3    H264205   0.337   2.382   5.619 -0.3658  0.3611  1.0399
14264TIP3   OH264206   3.625   3.912   0.495 -0.5225  0.5849 -0.9185
14264TIP3    H164207   3.702   3.905   0.439 -0.5119 -1.4090 -0.7406
14264TIP3    H264208   3.557   3.862   0.450 -0.3070 -1.7102  1.0626
14265TIP3   OH264209   1.177   4.117  12.019 -0.0032  0.1458  0.5739
14265TIP3    H164210   1.116   4.056  11.978  1.6388 -1.5750  0.5557
14265TIP3    H264211   1.169   4.197  11.967 -1.0704 -0.5574 -0.4020
14266TIP3   OH264212   1.275   1.203  15.626  0.2613 -0.2275 -0.2877
14266TIP3    H164213   1.365   1.172  15.621  0.8648  1.5432 -1.9987
14266TIP3    H264214   1.233   1.168  15.547 -0.1558  0.0400 -0.1880
14267TIP3   OH264215   1.188   2.985   3.588  0.2336  0.6557 -0.4307
14267TIP3    H164216   1.260   3.046   3.604  2.3621 -1.6611 -0.5646
14267TIP3    H264217   1.137   2.986   3.669  0.6862  1.9653 -0.1351
14268TIP3   OH264218   6.518   6.138  13.345  0.2766  0.1819 -0.1355
14268TIP3    H164219   6.497   6.077  13.416 -0.0589  1.2200  0.6699
14268TIP3    H264220   6.600   6.179  13.374 -1.7468  3.3981  1.5857
14269TIP3   OH264221   6.119   3.469   5.140  0.2791 -0.4380 -0.2260
14269TIP3    H164222   6.127   3.397   5.202  0.8877 -0.4712 -0.3341
14269TIP3    H264223   6.133   3.548   5.193 -0.0175 -0.4205 -0.1738
14270TIP3   OH264224   1.325   4.597   0.004 -0.2684 -0.0409  0.2014
14270TIP3    H164225   1.386   4.668  -0.017  0.6261 -0.2666  1.9161
14270TIP3    H264226   1.371   4.517  -0.021  0.4287 -0.2508  2.0247
14271TIP3   OH264227   2.371   4.981  16.584  0.3639  0.0255 -0.0031
14271TIP3    H164228   2.443   5.040  16.608  0.4143  0.5911 -1.4411
14271TIP3    H264229   2.407   4.894  16.599  1.5944  0.2781 -1.2657
14272TIP3   OH264230   5.481   3.786   5.909  0.5562 -0.8359  0.1604
14272TIP3    H164231   5.445   3.862   5.954 -0.9284 -1.0738 -0.5686
14272TIP3    H264232   5.540   3.746   5.973  0.9891  0.6396  0.7205
14273TIP3   OH264233   6.072   6.248  15.235  0.5331 -0.1664  0.1739
14273TIP3    H164234   5.987   6.234  15.195 -0.2704  2.6604  0.6505
14273TIP3    H264235   6.135   6.243  15.163 -0.4541  0.9994 -0.8091
14274TIP3   OH264236   1.101   4.281  11.396  0.0184 -0.3444  0.4458
14274TIP3    H164237   1.096   4.323  11.482 -0.4431  0.9496 -0.1810
14274TIP3    H264238   1.161   4.335  11.345 -0.5030 -0.4923 -0.3584
14275TIP3   OH264239   4.245   3.101  14.231  0.3069 -0.1387 -0.4272
14275TIP3    H164240   4.267   3.033  14.168 -2.8689 -0.9838 -0.7691
14275TIP3    H264241   4.234   3.180  14.178 -4.4167 -1.2570 -1.5511
14276TIP3   OH264242   5.825   2.344  11.720  0.1190  0.5065 -0.6127
14276TIP3    H164243   5.859   2.267  11.764 -1.4576  0.2830  0.2885
14276TIP3    H264244   5.833   2.324  11.627 -1.4122 -1.3209 -0.4154
14277TIP3   OH264245   0.740   2.668   0.858 -0.7358  0.2254 -0.2324
14277TIP3    H164246   0.739   2.638   0.949 -1.3246 -2.2832 -0.9762
14277TIP3    H264247   0.793   2.748   0.860  0.4867 -0.5275  2.0964
14278TIP3   OH264248   2.009   5.651  16.203 -0.0382  0.4518  0.0871
14278TIP3    H164249   1.945   5.722  16.205  0.1765  0.6430  1.1184
14278TIP3    H264250   1.958   5.571  16.213 -0.0386  0.7101  3.4037
14279TIP3   OH264251   6.077   5.760   3.260 -0.4381  0.3818  0.3044
14279TIP3    H164252   6.050   5.672   3.236  0.6836  0.6313 -2.1681
14279TIP3    H264253   6.000   5.815   3.242 -0.1861  0.3010 -1.0848
14280TIP3   OH264254   0.004   0.058  10.895  0.7647  0.3526  0.3841
14280TIP3    H164255   0.100   0.052  10.901  1.1250  0.9092 -2.6888
14280TIP3    H264256  -0.012   0.083  10.804 -2.5097 -4.0441 -0.5658
14281TIP3   OH264257   4.548   4.025   5.441  0.2474 -0.2096  0.6589
14281TIP3    H164258   4.634   4.059   5.415 -0.1508  0.8935  0.7121
14281TIP3    H264259   4.564   3.933   5.462  1.1448 -0.3779 -0.6379
14282TIP3   OH264260   0.853   1.561   1.862 -0.2206  0.4406 -0.1096
14282TIP3    H164261   0.846   1.496   1.792 -1.8244  1.3045 -0.8031
14282TIP3    H264262   0.807   1.521   1.936 -2.1151  1.1463 -0.8541
14283TIP3   OH264263   6.014   3.516   2.018 -0.3987  0.0782 -0.2962
14283TIP3    H164264   6.050   3.448   2.075 -1.2920  0.8437  1.2293
14283TIP3    H264265   6.078   3.524   1.947  1.6311  0.2318  1.4529
14284TIP3   OH264266   0.775   0.088   5.122 -0.2632  0.5701 -0.4303
14284TIP3    H164267   0.754   0.041   5.202 -1.4112 -1.6010 -1.8949
14284TIP3    H264268   0.705   0.153   5.114  0.3073  1.3491  0.6939
14285TIP3   OH264269   2.582   2.050  15.856  0.2262 -0.3681  0.3116
14285TIP3    H164270   2.499   2.053  15.808  0.9399  0.6455 -0.9356
14285TIP3    H264271   2.565   2.099  15.936 -0.3435 -0.0366 -0.0058
14286TIP3   OH264272   4.298   4.902  12.198 -0.2669 -0.0205  0.0012
14286TIP3    H164273   4.389   4.923  12.175 -0.1767  0.0745  0.4375
14286TIP3    H264274   4.270   4.840  12.130 -0.0865  0.4415 -0.5014
14287TIP3   OH264275   6.000   3.850  12.789 -0.2819 -0.1489  0.2134
14287TIP3    H164276   6.028   3.920  12.848 -0.4696  0.8728 -0.8727
14287TIP3    H264277   5.999   3.891  12.702 -1.6782 -1.1420 -0.2633
14288TIP3   OH264278   1.876   2.396  13.971 -0.3496 -0.2644  0.2345
14288TIP3    H164279   1.885   2.356  14.058  0.9187  0.3857  0.4343
14288TIP3    H264280   1.797   2.449  13.976 -0.0450  0.1129  1.1372
14289TIP3   OH264281   0.199   4.423   2.856  0.3841 -0.5771  0.5740
14289TIP3    H164282   0.164   4.433   2.945 -0.1553 -0.7626  0.3838
14289TIP3    H264283   0.266   4.491   2.849 -1.5324  1.3669  0.1453
14290TIP3   OH264284   1.719   6.658   1.577  0.6153  0.2722 -0.3057
14290TIP3    H164285   1.740   6.695   1.491  1.6883  1.6415  0.4890
14290TIP3    H264286   1.712   6.735   1.634  0.4464 -0.6378  0.9300
14291TIP3   OH264287   4.308   4.259  14.589  0.0760  0.1385  0.1002
14291TIP3    H164288   4.213   4.268  14.595 -0.1671 -1.0962 -1.1959
14291TIP3    H264289   4.328   4.178  14.636  0.5665  0.6866  0.8495
14292TIP3   OH264290   0.620   0.411  12.318  0.2547 -1.0159  0.0316
14292TIP3    H164291   0.570   0.330  12.314  0.5425 -1.1390 -1.3371
14292TIP3    H264292   0.598   0.457  12.237 -0.0931  0.3930  0.8920
14293TIP3   OH264293   0.782   0.763  17.025  0.0220 -0.6411 -0.1972
14293TIP3    H164294   0.840   0.691  17.047 -0.6569 -0.9917  0.5015
14293TIP3    H264295   0.775   0.814  17.106 -0.6247 -0.5962 -0.2739
14294TIP3   OH264296   4.247   3.217   5.450 -0.2858  0.0158 -0.1500
14294TIP3    H164297   4.198   3.189   5.373 -1.1432  0.4393  0.2214
14294TIP3    H264298   4.192   3.192   5.524  0.5152 -0.3628  0.3281
14295TIP3   OH264299   6.682   2.553   1.664  0.4717 -0.2320 -0.1300
14295TIP3    H164300   6.711   2.630   1.614  1.0211  0.4036  1.1289
14295TIP3    H264301   6.610   2.517   1.612  1.0984  0.3318 -1.4385
14296TIP3   OH264302   0.296   3.091   2.269  0.3509 -0.5136 -0.5429
14296TIP3    H164303   0.205   3.061   2.276  0.8678 -2.0744 -0.2501
14296TIP3    H264304   0.321   3.111   2.359  1.0396 -2.4155 -0.2839
14297TIP3   OH264305   2.595   2.201  14.328 -0.4403 -0.1826 -0.1848
14297TIP3    H164306   2.673   2.152  14.301 -0.7138 -0.6615 -0.1029
14297TIP3    H264307   2.522   2.141  14.313 -1.0866  1.0202 -2.4370
14298TIP3   OH264308   6.801   6.485  14.121  0.7632 -0.3669 -0.3289
14298TIP3    H164309   6.741   6.467  14.049  1.0265 -0.4733 -0.5222
14298TIP3    H264310   6.854   6.405  14.129  1.3552 -0.0124 -0.6246
14299TIP3   OH264311   0.943   6.580  12.605 -0.1560  0.1500 -0.3714
14299TIP3    H164312   0.949   6.489  12.636 -0.8439 -0.2341 -1.3130
14299TIP3    H264313   1.034   6.610  12.602  0.2017 -0.9091 -1.1738
14300TIP3   OH264314   5.701   2.702   2.837  0.2410  0.3428  0.2318
14300TIP3    H164315   5.675   2.733   2.924 -0.0055  0.1823  0.2153
14300TIP3    H264316   5.636   2.742   2.778  0.2505  0.2370  0.1510
14301TIP3   OH264317   4.129   4.384   0.382  0.1257  0.2448  0.0031
14301TIP3    H164318   4.106   4.454   0.443  0.4929 -0.0047  0.4348
14301TIP3    H264319   4.223   4.396   0.366  0.2546 -0.3097  0.2969
14302TIP3   OH264320   2.501   0.191   0.650  0.2330 -0.1370 -0.3346
14302TIP3    H164321   2.553   0.268   0.625  0.7408 -0.8273 -1.4922
14302TIP3    H264322   2.508   0.132   0.575  0.9290 -1.8724  1.0210
14303TIP3   OH264323   2.686   1.318   2.391 -0.3698  0.3357 -0.7438
14303TIP3    H164324   2.622   1.249   2.407 -0.3300  0.3691 -0.4233
14303TIP3    H264325   2.734   1.326   2.474 -0.1856  0.5518 -0.8685
14304TIP3   OH264326   2.796   6.113   1.176  0.7931  0.2111  0.4264
14304TIP3    H164327   2.747   6.176   1.230  0.0399 -0.4828  0.5682
14304TIP3    H264328   2.741   6.100   1.099  1.2726  0.2386  0.0743
14305TIP3   OH264329   3.397   1.833  14.461 -0.6592  0.0341 -0.2452
14305TIP3    H164330   3.492   1.826  14.466 -0.4475  2.6180  1.8303
14305TIP3    H264331   3.374   1.796  14.375  2.1744 -0.7255 -0.7649
14306TIP3   OH264332   0.090   4.939   0.777 -0.8471  0.2202 -0.2454
14306TIP3    H164333   0.000   4.972   0.773 -0.3671  1.6462 -0.0257
14306TIP3    H264334   0.109   4.908   0.689 -0.6827  2.4643 -1.0827
14307TIP3   OH264335   6.098   5.782  13.375 -0.4559  0.0466 -0.5453
14307TIP3    H164336   6.121   5.874  13.362  2.3972  0.0078  2.8350
14307TIP3    H264337   6.007   5.784  13.406 -0.6885  1.6322 -1.2438
14308TIP3   OH264338   3.037   4.389   0.621  0.4476  0.3332  0.9790
14308TIP3    H164339   3.125   4.352   0.629 -0.0318 -0.5385  2.8916
14308TIP3    H264340   3.023   4.434   0.705 -0.0305  2.5913 -0.2366
14309TIP3   OH264341   0.059   5.976  14.025  0.7112 -0.0196 -0.3197
14309TIP3    H164342   0.119   6.048  14.006  1.2143 -0.0016  1.1736
14309TIP3    H264343  -0.025   6.019  14.040  0.5116  0.0387 -1.5469
14310TIP3   OH264344   0.964   5.223   2.463  0.1890 -0.7470 -0.3753
14310TIP3    H164345   1.050   5.256   2.439  0.4750 -0.5226  0.9011
14310TIP3    H264346   0.905   5.297   2.452  0.6820 -0.0180  1.6461
14311TIP3   OH264347   0.093   4.167  11.193 -0.0373 -0.2640 -0.6364
14311TIP3    H164348   0.128   4.153  11.281 -0.0872 -0.0675 -0.5850
14311TIP3    H264349   0.003   4.135  11.197 -0.1594  0.0918 -0.5128
14312TIP3   OH264350   0.257   1.103  12.401  0.6232  0.1123  0.2501
14312TIP3    H164351   0.273   1.194  12.376 -0.3133  0.2513  0.1186
14312TIP3    H264352   0.168   1.085  12.370  1.6011 -1.5845 -1.7642
14313TIP3   OH264353   3.319   2.944  13.000 -0.1434 -0.0023  0.2196
14313TIP3    H164354   3.335   3.033  12.970  0.6542 -0.6377 -1.4033
14313TIP3    H264355   3.397   2.921  13.050 -0.9280  0.6251  1.8098
14314TIP3   OH264356   5.582   0.282  10.776 -0.4374  0.5322 -0.0405
14314TIP3    H164357   5.556   0.374  10.783 -2.1641  0.0176  0.8575
14314TIP3    H264358   5.523   0.245  10.711 -0.2637 -0.1201  0.1658
14315TIP3   OH264359   6.672   0.268   0.641 -0.1594 -0.0812 -0.2596
14315TIP3    H164360   6.640   0.243   0.554 -1.8039 -0.8417  0.5169
14315TIP3    H264361   6.666   0.364   0.642  1.2575  0.0546 -1.4596
14316TIP3   OH264362   4.432   1.697   4.881 -0.2193  0.1863  0.7096
14316TIP3    H164363   4.365   1.631   4.894 -0.2259 -0.0753 -0.5210
14316TIP3    H264364   4.461   1.685   4.790 -1.1122  2.6659 -0.0067
14317TIP3   OH264365   5.366   6.691  17.018 -0.0164  0.3831 -0.1799
14317TIP3    H164366   5.387   6.705  16.925 -0.2958  0.4742 -0.2308
14317TIP3    H264367   5.284   6.737  17.031 -0.5452 -0.5501 -0.1515
14318TIP3   OH264368   2.800   0.600   0.447  0.0162 -0.0091 -0.1537
14318TIP3    H164369   2.882   0.551   0.437  0.1787  0.1372  0.4524
14318TIP3    H264370   2.733   0.544   0.408  0.3975 -0.1522 -0.6050
14319TIP3   OH264371   0.036   5.859  10.449 -0.3941 -1.1477  0.1327
14319TIP3    H164372   0.120   5.902  10.433 -1.4848  0.3906 -1.7975
14319TIP3    H264373   0.060   5.775  10.489  1.8930  0.5336  2.6671
14320TIP3   OH264374   1.329   5.380  13.256 -0.0217  0.1645 -0.2180
14320TIP3    H164375   1.339   5.393  13.350 -0.8769 -0.4493 -0.0382
14320TIP3    H264376   1.303   5.466  13.222 -3.5902 -0.4105  0.6775
14321TIP3   OH264377   1.123   4.577  15.434 -0.3174  0.2010  0.6750
14321TIP3    H164378   1.156   4.501  15.387 -3.0580  0.2836 -1.5956
14321TIP3    H264379   1.156   4.653  15.385 -1.8308  0.3248 -0.1898
14322TIP3   OH264380   3.457   1.203  12.206 -0.3233  0.7698 -0.0348
14322TIP3    H164381   3.535   1.209  12.261 -1.5009 -0.1873  1.8491
14322TIP3    H264382   3.441   1.109  12.199 -1.7155  0.9599  0.2613
14323TIP3   OH264383   5.191   4.132   2.187  0.2711 -0.7248 -0.5921
14323TIP3    H164384   5.242   4.096   2.260  0.5956  0.1105 -0.3998
14323TIP3    H264385   5.116   4.175   2.228  1.4041  1.3436 -0.5933
14324TIP3   OH264386   3.070   3.777   5.695 -0.1282 -0.7785  0.3426
14324TIP3    H164387   3.023   3.852   5.732 -0.7934 -0.5563 -0.9142
14324TIP3    H264388   3.100   3.728   5.772  1.2020  1.2653  1.2206
14325TIP3   OH264389   5.172   5.648   0.303  0.4395 -0.4625 -0.0912
14325TIP3    H164390   5.133   5.732   0.279  1.7541 -0.1216 -1.1285
14325TIP3    H264391   5.099   5.586   0.296 -0.2052  0.3446 -0.8374
14326TIP3   OH264392   5.694   0.505  13.484  0.4088 -0.1512 -0.0982
14326TIP3    H164393   5.722   0.453  13.560  2.6150 -0.2920 -0.9172
14326TIP3    H264394   5.643   0.444  13.431 -0.5537 -0.2521  0.9081
14327TIP3   OH264395   3.313   1.117   0.107  0.5933  0.4505  0.3933
14327TIP3    H164396   3.323   1.203   0.066 -1.5634  1.2983  1.5019
14327TIP3    H264397   3.270   1.135   0.190 -0.7587 -1.7831  0.2581
14328TIP3   OH264398   4.365   2.827   2.001  0.0717  0.0025 -0.3512
14328TIP3    H164399   4.409   2.900   2.045  0.2098 -0.1604 -0.2184
14328TIP3    H264400   4.436   2.767   1.977  0.2581  0.9782 -2.5133
14329TIP3   OH264401   1.908   4.098   4.682  0.3479  0.2281 -0.4956
14329TIP3    H164402   1.897   4.155   4.606  2.3150 -0.1830 -1.1429
14329TIP3    H264403   1.993   4.123   4.718 -0.2884  0.0078  1.2577
14330TIP3   OH264404   4.537   1.922  11.174  0.1381  0.7984  0.2727
14330TIP3    H164405   4.625   1.896  11.148  0.7354  2.3542  0.5994
14330TIP3    H264406   4.499   1.844  11.214  0.7645 -0.3627 -1.3059
14331TIP3   OH264407   3.000   3.964   1.728 -0.1143  0.6509 -0.3187
14331TIP3    H164408   3.047   3.889   1.690  1.5182  1.7176 -0.4991
14331TIP3    H264409   2.909   3.947   1.706  0.4198 -0.3218 -2.0828
14332TIP3   OH264410   3.126   4.149   1.079  0.0405  0.2556  0.8917
14332TIP3    H164411   3.203   4.206   1.077  1.4908 -1.5396  2.1440
14332TIP3    H264412   3.088   4.163   1.166 -0.6049  0.5301  0.5767
14333TIP3   OH264413   4.844   3.734  16.764 -0.3617  0.5761 -0.4192
14333TIP3    H164414   4.875   3.679  16.836 -1.2587 -0.6462 -0.9365
14333TIP3    H264415   4.771   3.783  16.801 -0.9561 -0.2075 -0.5404
14334TIP3   OH264416   0.777   0.991  13.579 -0.2351 -0.1398  0.0415
14334TIP3    H164417   0.780   0.922  13.646 -0.8571 -0.8850 -0.6819
14334TIP3    H264418   0.712   0.961  13.516 -0.1261  0.8627 -0.5719
14335TIP3   OH264419   3.015   0.627  13.147 -0.2588 -0.6478 -0.4642
14335TIP3    H164420   3.060   0.710  13.163 -0.7235 -0.3794 -0.5276
14335TIP3    H264421   3.080   0.573  13.102 -0.2538  0.0296 -1.3132
14336TIP3   OH264422   2.687   1.884   3.334 -0.1951 -0.2584  0.9148
14336TIP3    H164423   2.676   1.789   3.327  2.4681 -0.5247 -1.3721
14336TIP3    H264424   2.672   1.916   3.245  2.7725  0.9031  0.7376
14337TIP3   OH264425   5.024   0.258  15.042 -0.2340 -0.7331 -0.0910
14337TIP3    H164426   5.063   0.345  15.043 -2.1454  0.1854 -0.2864
14337TIP3    H264427   4.944   0.268  14.990 -1.3196 -2.2092  1.1732
14338TIP3   OH264428   5.945   5.868  11.563 -0.8716  0.2740  0.1317
14338TIP3    H164429   5.905   5.852  11.478 -0.4215 -0.4842  0.0507
14338TIP3    H264430   5.963   5.962  11.564 -2.4071  0.5844  0.0801
14339TIP3   OH264431   0.914   0.428  13.983 -0.0987 -0.4512 -0.1229
14339TIP3    H164432   0.954   0.507  14.020 -0.5751 -0.4678  0.4450
14339TIP3    H264433   0.961   0.356  14.024 -0.6003 -0.4693  0.4316
14340TIP3   OH264434   2.973   5.372   5.799 -0.3956 -0.2149 -0.2127
14340TIP3    H164435   2.978   5.448   5.742 -0.3364  0.2546  0.4150
14340TIP3    H264436   2.951   5.407   5.885  0.6323 -0.7919  0.3035
14341TIP3   OH264437   4.044   4.874  12.539  0.1363 -0.7106  0.0520
14341TIP3    H164438   4.056   4.859  12.633  0.4904 -0.2093  0.0899
14341TIP3    H264439   3.953   4.849  12.523 -0.0470 -0.4365  0.6066
14342TIP3   OH264440   2.895   4.116   6.470 -0.1198  0.3662  0.1257
14342TIP3    H164441   2.967   4.090   6.414 -2.7355 -2.2884 -2.3591
14342TIP3    H264442   2.902   4.059   6.547  0.5657  0.3103  0.0254
14343TIP3   OH264443   1.699   4.271  12.354 -0.6488 -0.0364  0.7421
14343TIP3    H164444   1.770   4.212  12.329 -1.1331 -0.1974 -0.2811
14343TIP3    H264445   1.643   4.276  12.277 -1.9233 -0.1391  1.6413
14344TIP3   OH264446   3.289   4.165  16.928  0.0827 -0.4896  0.3042
14344TIP3    H164447   3.368   4.220  16.932  0.7442 -1.4553  1.0403
14344TIP3    H264448   3.224   4.213  16.980  0.5606 -0.2526  0.6918
14345TIP3   OH264449   1.076   1.481   4.763  0.1104 -0.1374  0.2708
14345TIP3    H164450   1.054   1.401   4.811 -1.1299 -0.0135 -0.0716
14345TIP3    H264451   1.154   1.457   4.712  0.2345 -0.8730  0.7905
14346TIP3   OH264452   5.686   1.461  11.152 -0.2014 -1.0367  0.1045
14346TIP3    H164453   5.707   1.553  11.171  0.1365 -1.3074  1.0686
14346TIP3    H264454   5.641   1.465  11.068 -1.1147  0.1389  0.6049
14347TIP3   OH264455   2.837   4.583  17.099 -0.1629  0.2663  0.1714
14347TIP3    H164456   2.803   4.517  17.160  0.5508  0.6999  1.0615
14347TIP3    H264457   2.762   4.608  17.046 -0.7200 -0.3902  0.6328
14348TIP3   OH264458   4.915   3.434   0.229  0.0875 -0.3491 -0.2801
14348TIP3    H164459   4.926   3.341   0.213 -0.7034 -1.1363  3.0251
14348TIP3    H264460   5.001   3.464   0.260  0.1321 -0.1424 -0.5951
14349TIP3   OH264461   0.102   4.996  15.277  0.6570  0.1710 -0.0787
14349TIP3    H164462   0.187   4.977  15.237  0.5861 -1.2301  0.3705
14349TIP3    H264463   0.077   5.081  15.241  2.0499  0.4139 -0.5433
14350TIP3   OH264464   0.892   4.161   3.472  0.3563 -0.1310 -0.0074
14350TIP3    H164465   0.933   4.245   3.451  0.6528 -0.2052  0.2651
14350TIP3    H264466   0.884   4.162   3.568  1.8835 -1.1108  0.1493
14351TIP3   OH264467   2.864   5.941   0.121 -0.7639 -0.3786 -0.0524
14351TIP3    H164468   2.839   5.900   0.038 -1.2497  1.5593 -0.9034
14351TIP3    H264469   2.846   6.034   0.109  1.2215  0.2627  1.4678
14352TIP3   OH264470   3.179   3.357  11.087 -0.1245  0.2196  0.2234
14352TIP3    H164471   3.128   3.410  11.026  0.7588 -0.7131 -1.3691
14352TIP3    H264472   3.159   3.266  11.064 -0.2774 -0.1768  1.7701
14353TIP3   OH264473   4.750   2.855  14.642  0.0002  0.2566 -0.0575
14353TIP3    H164474   4.821   2.860  14.706  1.6345 -0.8436 -1.6787
14353TIP3    H264475   4.794   2.853  14.557 -1.9954 -0.1242 -1.1520
14354TIP3   OH264476   3.429   5.538   5.916  0.3899 -0.1385 -0.0268
14354TIP3    H164477   3.365   5.575   5.976  1.9553  0.4158  1.3934
14354TIP3    H264478   3.432   5.445   5.939  0.1259 -0.1575 -0.0691
14355TIP3   OH264479   5.585   4.856   3.435  0.1826  0.1701  0.5234
14355TIP3    H164480   5.548   4.769   3.446  0.0995 -0.0094 -1.0113
14355TIP3    H264481   5.540   4.910   3.500 -0.2928 -0.7653  0.9824
14356TIP3   OH264482   5.468   1.108   3.966 -0.0195 -0.3675 -0.0045
14356TIP3    H164483   5.436   1.181   3.913 -0.2507 -0.0353  0.5776
14356TIP3    H264484   5.421   1.031   3.934 -1.5924  0.1354  0.9656
14357TIP3   OH264485   6.456   0.962   3.984  0.4764 -1.1648  1.0607
14357TIP3    H164486   6.413   0.995   3.905  1.3964 -1.2462  0.5083
14357TIP3    H264487   6.398   0.894   4.017 -0.4419 -0.3889  1.0613
14358TIP3   OH264488   2.354   4.380  11.437 -0.1249 -0.2180  0.0617
14358TIP3    H164489   2.386   4.333  11.514  1.5790 -0.6175 -0.8402
14358TIP3    H264490   2.322   4.311  11.378  0.0887 -0.0633 -0.2431
14359TIP3   OH264491   1.184   4.097  14.820 -0.6297  0.0116 -0.2456
14359TIP3    H164492   1.145   4.153  14.754 -1.1726  1.5190  1.2902
14359TIP3    H264493   1.264   4.142  14.846 -0.0068 -0.9671 -0.4165
14360TIP3   OH264494   4.273   3.603   1.389 -0.2447  0.0046 -0.0341
14360TIP3    H164495   4.249   3.625   1.480 -2.4596  0.5446 -0.6844
14360TIP3    H264496   4.343   3.539   1.398 -0.4031  0.0506  2.0700
14361TIP3   OH264497   2.495   2.098   1.984 -0.1474 -0.2292 -0.3885
14361TIP3    H164498   2.553   2.161   2.026 -1.5568  0.4312  0.6423
14361TIP3    H264499   2.457   2.048   2.056 -0.9160 -0.5917 -1.0280
14362TIP3   OH264500   6.584   2.092  16.466 -0.1099  0.1705 -0.9013
14362TIP3    H164501   6.603   1.998  16.459  1.6149  0.3860  0.2528
14362TIP3    H264502   6.571   2.107  16.559  1.0382  1.2987 -0.8993
14363TIP3   OH264503   6.543   1.496  15.303 -0.4114  0.5454 -0.2162
14363TIP3    H164504   6.580   1.583  15.314 -1.6712  0.9331  1.3502
14363TIP3    H264505   6.551   1.456  15.390 -1.9070 -0.0345 -0.3268
14364TIP3   OH264506   2.509   3.551   5.517 -0.3588  0.0794  0.3539
14364TIP3    H164507   2.555   3.476   5.553  1.6179  0.6415 -0.8433
14364TIP3    H264508   2.530   3.624   5.575  0.4782  0.3801 -0.3040
14365TIP3   OH264509   5.918   2.464   4.518  0.0363  0.5321 -0.0570
14365TIP3    H164510   5.934   2.405   4.444  0.9807  0.0984  0.4691
14365TIP3    H264511   5.832   2.439   4.550  0.5999 -0.9128  0.4399
14366TIP3   OH264512   5.348   5.015   5.589  0.4059  0.1242 -0.2170
14366TIP3    H164513   5.304   4.936   5.557 -0.9420 -0.0843  1.9688
14366TIP3    H264514   5.440   4.992   5.591  0.0336 -1.4029  0.3462
14367TIP3   OH264515   4.014   3.508   1.961 -0.1014 -0.3297  0.6079
14367TIP3    H164516   4.079   3.501   2.030  0.2652 -2.5782  0.1199
14367TIP3    H264517   4.047   3.452   1.891 -2.3007 -1.1526  0.1397
14368TIP3   OH264518   6.566   0.409   4.695 -0.2497  0.0410  0.3148
14368TIP3    H164519   6.487   0.417   4.747  0.1914 -1.4103  1.2815
14368TIP3    H264520   6.579   0.314   4.684 -0.3053  0.2594 -2.4622
14369TIP3   OH264521   0.007   5.221   4.708 -0.4426 -0.4311 -0.1174
14369TIP3    H164522   0.099   5.208   4.731 -0.2251 -0.4870 -1.0060
14369TIP3    H264523  -0.032   5.134   4.714 -1.0856 -0.0430  2.9042
14370TIP3   OH264524   5.865   1.352   2.147  0.2868 -0.4720 -0.3515
14370TIP3    H164525   5.841   1.436   2.110 -0.2104 -0.1542  0.6437
14370TIP3    H264526   5.960   1.355   2.154  0.2097  0.3832  0.5070
14371TIP3   OH264527   3.860   0.292  12.255 -0.3126  0.0464 -0.1317
14371TIP3    H164528   3.805   0.293  12.176 -0.3834  0.7334 -0.0796
14371TIP3    H264529   3.839   0.374  12.300  0.6232  0.2358 -0.0205
14372TIP3   OH264530   4.950   2.386   1.140 -0.2853 -0.9313 -0.1022
14372TIP3    H164531   4.856   2.389   1.122 -0.3788 -0.6542  0.4060
14372TIP3    H264532   4.960   2.314   1.202 -0.0178 -1.6227 -0.9170
14373TIP3   OH264533   5.784   4.716  14.568 -0.4810 -0.0750  0.6432
14373TIP3    H164534   5.778   4.811  14.560  0.4916  0.0988  1.7924
14373TIP3    H264535   5.795   4.700  14.661 -1.7019 -1.4030  0.6014
14374TIP3   OH264536   0.437   0.003   6.101  0.2783 -0.1348 -0.6905
14374TIP3    H164537   0.461   0.084   6.056 -0.6356 -0.4602 -1.8116
14374TIP3    H264538   0.440  -0.065   6.033 -0.2956 -0.7944 -0.0824
14375TIP3   OH264539   0.872   2.694   3.586 -0.6428  0.8005 -0.1385
14375TIP3    H164540   0.878   2.647   3.503  0.2187  1.2413 -0.3403
14375TIP3    H264541   0.926   2.772   3.573  1.4596 -0.2551  1.5960
14376TIP3   OH264542   5.609   0.259  13.349 -0.3863 -0.3473 -0.7608
14376TIP3    H164543   5.685   0.288  13.298  0.0323  2.0450  1.0080
14376TIP3    H264544   5.536   0.260  13.287  0.5727 -0.1398 -1.9096
14377TIP3   OH264545   2.831   5.009  16.179  0.0673  0.3117  0.4924
14377TIP3    H164546   2.781   5.036  16.102  0.2894 -0.1511  0.1808
14377TIP3    H264547   2.768   5.014  16.251 -0.6865 -1.1272 -0.0371
14378TIP3   OH264548   3.283   4.016  11.719  0.4150  0.2010  0.2737
14378TIP3    H164549   3.320   3.958  11.652 -1.6734 -0.8667 -0.0396
14378TIP3    H264550   3.355   4.028  11.781  1.0614 -2.6080  0.2418
14379TIP3   OH264551   3.173   3.089  15.014 -0.5175  0.5444  0.5823
14379TIP3    H164552   3.202   2.998  15.007 -1.1497  0.2747  1.3562
14379TIP3    H264553   3.078   3.083  15.020 -0.5327  1.2345  1.0875
14380TIP3   OH264554   3.267   0.851  11.901 -0.3247 -0.9338 -0.0943
14380TIP3    H164555   3.187   0.862  11.850 -0.0068  2.6098 -0.1038
14380TIP3    H264556   3.331   0.909  11.858  1.4983 -1.7351  1.3838
14381TIP3   OH264557   2.689   3.004   3.834  0.0825  0.3820 -0.1396
14381TIP3    H164558   2.686   2.920   3.880 -1.2339  0.9294  0.8319
14381TIP3    H264559   2.662   2.983   3.744  0.5906 -0.3539 -0.1286
14382TIP3   OH264560   3.926   1.637   1.629  0.3696  0.0127 -0.1623
14382TIP3    H164561   3.929   1.710   1.691  0.0924  0.6351 -0.8754
14382TIP3    H264562   3.846   1.589   1.652  0.5471 -0.0703  0.2992
14383TIP3   OH264563   1.907   4.372  11.865  0.1495  0.5166  0.0709
14383TIP3    H164564   1.982   4.346  11.813 -0.3869 -0.7046 -0.1181
14383TIP3    H264565   1.831   4.355  11.809 -0.3667  0.1762  0.8559
14384TIP3   OH264566   4.216   6.819  16.354 -0.1430 -0.1237 -0.6142
14384TIP3    H164567   4.139   6.825  16.410 -1.7212 -1.2132 -2.5591
14384TIP3    H264568   4.188   6.853  16.269  3.2433  5.3147 -0.0365
14385TIP3   OH264569   6.709   1.056   0.497  0.1447 -0.8374  0.0839
14385TIP3    H164570   6.678   1.089   0.412  1.1668 -1.1752 -0.4390
14385TIP3    H264571   6.700   1.131   0.556  0.5896 -0.2102 -0.6274
14386TIP3   OH264572   0.813   3.795   5.281  0.0117 -0.1718  0.1148
14386TIP3    H164573   0.769   3.838   5.355  0.1495 -0.3548  0.3065
14386TIP3    H264574   0.900   3.773   5.315  0.6445  1.1594 -0.6006
14387TIP3   OH264575   0.155   4.835   0.523 -0.6992  0.2839  0.0117
14387TIP3    H164576   0.087   4.804   0.463  0.7323 -0.8031 -1.1276
14387TIP3    H264577   0.169   4.926   0.499 -0.2251 -0.1050 -1.2966
14388TIP3   OH264578   2.950   5.373   4.601  0.0672  0.2575  0.1709
14388TIP3    H164579   2.993   5.449   4.561  1.2653  0.0339  0.9982
14388TIP3    H264580   2.886   5.346   4.535  1.5102  0.3117 -1.3358
14389TIP3   OH264581   5.283   2.495   2.722  0.1669  0.0876 -0.2296
14389TIP3    H164582   5.221   2.549   2.673  0.8517 -0.2372 -1.4964
14389TIP3    H264583   5.326   2.442   2.655  0.6064 -0.9107  0.8233
14390TIP3   OH264584   1.719   0.902   4.717 -0.4616  0.5792 -0.2646
14390TIP3    H164585   1.643   0.846   4.731  1.1711 -1.6192  0.5607
14390TIP3    H264586   1.788   0.862   4.770  1.5054  1.9330 -1.6446
14391TIP3   OH264587   3.973   2.457   4.247 -0.4185 -0.5069 -0.5363
14391TIP3    H164588   4.046   2.443   4.186 -2.0433 -2.2008 -2.2526
14391TIP3    H264589   3.956   2.370   4.284  0.6382  0.5042  2.6381
14392TIP3   OH264590   0.733   2.054  10.794 -0.7617 -0.0225 -0.4615
14392TIP3    H164591   0.820   2.030  10.825 -0.0539  2.1980 -0.5538
14392TIP3    H264592   0.727   2.016  10.706 -1.0587 -2.5752  0.5718
14393TIP3   OH264593   4.247   4.620  13.064 -0.4716 -0.1644 -0.0516
14393TIP3    H164594   4.317   4.588  13.007 -0.5037 -2.4990  1.0877
14393TIP3    H264595   4.187   4.545  13.072 -1.7068  0.9058  1.1283
14394TIP3   OH264596   3.899   3.936  14.831  0.2374 -0.4349 -0.1212
14394TIP3    H164597   3.866   4.019  14.798 -0.7048 -0.9064 -0.4165
14394TIP3    H264598   3.878   3.938  14.925 -0.1473 -0.5030 -0.2047
14395TIP3   OH264599   0.016   5.115   4.169  0.0605 -0.1123 -0.1959
14395TIP3    H164600   0.079   5.184   4.189  0.8466  0.0424 -2.8323
14395TIP3    H264601   0.061   5.034   4.194  0.0983  0.1780  0.6911
14396TIP3   OH264602   6.456   0.005  15.345 -0.2044 -0.5541 -0.3217
14396TIP3    H164603   6.417  -0.080  15.368  0.6207 -0.5933  1.0253
14396TIP3    H264604   6.550  -0.008  15.359  0.0986  0.1560 -1.5351
14397TIP3   OH264605   3.378   5.178   0.815  0.0805 -0.0200 -0.0444
14397TIP3    H164606   3.343   5.232   0.744 -0.0141  0.9456  0.7174
14397TIP3    H264607   3.354   5.225   0.895  0.2165 -1.0730  0.6307
14398TIP3   OH264608   6.613   4.573  12.504  0.4615  0.3737 -0.1588
14398TIP3    H164609   6.652   4.633  12.440  1.1402  1.5235  1.2877
14398TIP3    H264610   6.682   4.558  12.568 -0.5971  0.2756  0.9972
14399TIP3   OH264611   5.202   4.002  16.781 -0.2502  0.3441 -0.1156
14399TIP3    H164612   5.137   3.996  16.851 -0.2584 -0.9463 -0.2223
14399TIP3    H264613   5.277   3.951  16.813  0.1730  0.6625 -0.5860
14400TIP3   OH264614   6.001   4.679  15.260  0.6275  0.5083  0.1759
14400TIP3    H164615   6.020   4.751  15.200  2.1454 -0.8336 -1.0670
14400TIP3    H264616   5.912   4.652  15.239  0.0631  1.9488  0.6198
14401TIP3   OH264617   1.683   4.660   4.211 -0.2802  0.7807 -0.2947
14401TIP3    H164618   1.731   4.666   4.293  0.0374 -0.3750 -0.3831
14401TIP3    H264619   1.735   4.600   4.157 -1.8459 -0.5972 -0.3540
14402TIP3   OH264620   5.310   1.002  15.495 -0.3959 -0.1155 -0.3552
14402TIP3    H164621   5.392   0.959  15.521 -0.1259  0.2386 -0.6052
14402TIP3    H264622   5.318   1.091  15.528 -0.3685  0.1278 -0.9969
14403TIP3   OH264623   3.158   5.068   2.196  0.5073  0.2310  0.3356
14403TIP3    H164624   3.159   5.097   2.105 -0.8372 -0.6500  0.0050
14403TIP3    H264625   3.172   4.973   2.191 -3.6693 -0.6180  0.5838
14404TIP3   OH264626   0.647   2.431  11.455  0.1919  0.1713 -0.2124
14404TIP3    H164627   0.589   2.364  11.418  0.7734 -0.4247 -0.0559
14404TIP3    H264628   0.723   2.383  11.487  0.6738  0.9176 -0.1946
14405TIP3   OH264629   2.485   3.366  15.451 -0.0213 -0.0899 -0.1576
14405TIP3    H164630   2.459   3.380  15.360  0.9658  0.4953 -0.3638
14405TIP3    H264631   2.570   3.408  15.459  0.1072 -0.5071  0.9318
14406TIP3   OH264632   4.378   6.020  12.118  0.0561  0.0127  0.4873
14406TIP3    H164633   4.289   6.053  12.111  0.1250 -0.0552 -0.8682
14406TIP3    H264634   4.410   6.055  12.201 -1.0615  0.4270  0.7590
14407TIP3   OH264635   6.186   5.933  10.872  0.0103  0.0200  0.2169
14407TIP3    H164636   6.258   5.912  10.812  0.9006  1.2868  0.7801
14407TIP3    H264637   6.162   6.023  10.848 -2.6087 -0.9450 -1.1221
14408TIP3   OH264638   4.749   5.016   3.179 -0.2728  0.6771  0.2473
14408TIP3    H164639   4.692   4.955   3.226 -0.9368  0.4965 -0.7623
14408TIP3    H264640   4.782   4.966   3.105  1.2235  0.7864  0.7996
14409TIP3   OH264641   3.771   5.162  13.261 -0.4850  0.3311 -0.4508
14409TIP3    H164642   3.827   5.154  13.338  0.0243  0.2613 -0.8235
14409TIP3    H264643   3.714   5.085  13.264 -1.2172  0.8853  0.4401
14410TIP3   OH264644   4.940   1.005  15.238  0.0244  0.0207 -0.1721
14410TIP3    H164645   4.961   1.064  15.166  0.0859  1.9741  1.3582
14410TIP3    H264646   4.881   1.055  15.294 -1.7300 -2.1940  0.1166
14411TIP3   OH264647   4.217   0.722   0.587  0.0747  0.6377 -0.4289
14411TIP3    H164648   4.242   0.654   0.524  2.1991 -0.6232  1.5947
14411TIP3    H264649   4.141   0.685   0.633 -0.7433  1.0512 -1.4161
14412TIP3   OH264650   6.135   4.423  14.951 -0.0214  0.3554 -0.0341
14412TIP3    H164651   6.050   4.382  14.965  0.2872 -0.6095 -0.8106
14412TIP3    H264652   6.178   4.418  15.036 -0.6290  0.5884  0.2902
14413TIP3   OH264653   4.512   5.066   0.367 -0.0919 -0.2609  0.2280
14413TIP3    H164654   4.534   5.154   0.397 -0.0232 -0.6971  1.5369
14413TIP3    H264655   4.449   5.079   0.296 -1.3576  0.8127  1.4909
14414TIP3   OH264656   1.831   0.722  12.449  0.3724  0.5747 -0.8035
14414TIP3    H164657   1.802   0.807  12.416 -1.0069  0.5922  0.4164
14414TIP3    H264658   1.775   0.659  12.404  0.7802  0.3524 -1.0105
14415TIP3   OH264659   5.157   2.555   0.308 -0.2046  0.6959  0.5397
14415TIP3    H164660   5.250   2.564   0.285 -0.2027  1.0630  0.6742
14415TIP3    H264661   5.121   2.496   0.243 -0.4541  2.5808 -1.1246
14416TIP3   OH264662   2.608   1.517   6.316  0.2713  0.4408 -0.0186
14416TIP3    H164663   2.554   1.594   6.299  1.1995  0.8905 -1.0233
14416TIP3    H264664   2.659   1.505   6.236 -0.7754 -1.9993 -0.4160
14417TIP3   OH264665   2.917   5.073  16.485  0.2655 -0.0862 -0.0657
14417TIP3    H164666   2.925   4.985  16.448  0.1077  0.5023 -1.5526
14417TIP3    H264667   2.831   5.104  16.456  0.3094  0.5612  0.4654
14418TIP3   OH264668   4.237   5.668   1.697  0.4255  0.1441  0.0436
14418TIP3    H164669   4.273   5.698   1.780 -0.7685 -1.1179  1.0630
14418TIP3    H264670   4.294   5.595   1.671  1.7020  1.4775 -1.0555
14419TIP3   OH264671   4.463   2.139   2.569  0.1049  0.0149 -0.4695
14419TIP3    H164672   4.443   2.156   2.477 -2.0584 -0.7439 -0.1914
14419TIP3    H264673   4.514   2.215   2.597 -0.5274  1.0093 -1.8855
14420TIP3   OH264674   2.974   3.545   0.607 -0.3894  0.2516  0.6106
14420TIP3    H164675   2.967   3.462   0.654 -0.1840  0.9311  1.8772
14420TIP3    H264676   2.927   3.531   0.525  0.9813 -1.6205  0.0895
14421TIP3   OH264677   6.325   2.297   2.905  0.3409 -0.7276  0.2711
14421TIP3    H164678   6.400   2.269   2.958  0.1355  0.3552  1.1669
14421TIP3    H264679   6.354   2.376   2.861  0.2039 -1.1245 -0.5594
14422TIP3   OH264680   6.201   5.505   1.205 -0.0114 -0.2998 -0.8597
14422TIP3    H164681   6.106   5.521   1.204  0.4339  3.4253  0.4556
14422TIP3    H264682   6.210   5.422   1.253 -2.5739 -0.2121 -0.0341
14423TIP3   OH264683   3.945   6.333  13.491 -0.2239  0.1730 -0.0004
14423TIP3    H164684   4.013   6.344  13.556  0.2800  3.9530 -0.9356
14423TIP3    H264685   3.881   6.275  13.532  0.3688  1.8160  3.6355
14424TIP3   OH264686   5.964   5.882  13.880 -0.0254  0.3051  0.5319
14424TIP3    H164687   5.882   5.910  13.839  0.0863  0.3129  0.3171
14424TIP3    H264688   6.001   5.962  13.917 -0.1039  0.3050  0.6139
14425TIP3   OH264689   3.283   2.040   1.373 -0.6724 -0.4815 -0.3607
14425TIP3    H164690   3.241   2.119   1.408 -0.0424  0.1953 -1.0688
14425TIP3    H264691   3.337   2.008   1.445  2.3083  2.1119 -1.1990
14426TIP3   OH264692   4.078   4.382   0.695 -0.2473 -0.0727 -0.1298
14426TIP3    H164693   4.057   4.471   0.722  0.2286  0.7676 -2.3316
14426TIP3    H264694   3.993   4.339   0.684 -0.4673 -0.1316  1.5568
14427TIP3   OH264695   0.365   3.258   1.170  0.3598  0.5108 -0.1528
14427TIP3    H164696   0.388   3.312   1.245 -0.4168  0.6493 -0.0011
14427TIP3    H264697   0.269   3.255   1.171  0.3541 -2.0967  0.7435
14428TIP3   OH264698   4.123   4.669  12.383  0.3159 -0.0986 -0.2489
14428TIP3    H164699   4.080   4.746  12.420 -0.3408  0.1579 -1.5125
14428TIP3    H264700   4.057   4.629  12.327  0.0830 -2.4989  1.5741
14429TIP3   OH264701   1.662   0.048   0.409 -0.3118  0.4476  0.6394
14429TIP3    H164702   1.744   0.001   0.424 -0.1223 -0.6162 -2.9425
14429TIP3    H264703   1.688   0.129   0.365 -1.1016  0.7086  0.6385
14430TIP3   OH264704   4.615   5.607  11.160  0.2026  0.1687  0.8631
14430TIP3    H164705   4.596   5.540  11.095  0.0643  0.5714  0.4893
14430TIP3    H264706   4.534   5.657  11.168  0.9715  1.7064 -0.5128
14431TIP3   OH264707   2.932   1.777   1.062  0.0068  0.3642  0.2412
14431TIP3    H164708   2.985   1.697   1.060  0.9775  0.9799 -2.2616
14431TIP3    H264709   2.925   1.799   1.155  1.8449 -1.2486  0.8240
14432TIP3   OH264710   0.073   1.918   1.571  0.0498 -0.4888  0.3232
14432TIP3    H164711   0.001   1.923   1.509 -0.1671 -1.1513  0.5121
14432TIP3    H264712   0.034   1.942   1.656  0.5811  1.5186  0.0617
14433TIP3   OH264713   6.222   0.163   5.631  0.0654 -0.0989  0.3380
14433TIP3    H164714   6.199   0.104   5.559  2.5507 -0.3330 -0.3817
14433TIP3    H264715   6.141   0.208   5.653 -0.9522 -0.5945 -2.0834
14434TIP3   OH264716   1.599   2.238   1.516 -0.0043 -0.7036  0.0785
14434TIP3    H164717   1.645   2.302   1.570 -1.0145  1.4218 -1.4376
14434TIP3    H264718   1.563   2.175   1.578  1.3544 -0.0332  1.6019
14435TIP3   OH264719   3.688   6.640   4.141  0.1720  0.0237  0.4526
14435TIP3    H164720   3.724   6.712   4.193 -0.5982  0.2947  0.6318
14435TIP3    H264721   3.621   6.601   4.197 -0.8282  0.4542 -0.3914
14436TIP3   OH264722   5.519   4.642   1.819 -0.5330 -0.1961  0.9697
14436TIP3    H164723   5.558   4.717   1.863 -0.8395  1.4551 -1.3851
14436TIP3    H264724   5.586   4.613   1.758 -0.6078 -1.5635  1.5033
14437TIP3   OH264725   6.511   5.928  14.784  0.8124  0.5024  0.0607
14437TIP3    H164726   6.479   5.839  14.772  2.1744  0.0824 -0.6675
14437TIP3    H264727   6.461   5.962  14.858 -1.3096 -0.0856 -1.0197
14438TIP3   OH264728   2.857   3.626   2.672  0.0827 -0.2724 -0.0091
14438TIP3    H164729   2.852   3.719   2.695  0.2969 -0.4286  0.6900
14438TIP3    H264730   2.922   3.590   2.732  1.1538 -0.5767 -1.3156
14439TIP3   OH264731   0.775   4.794  12.412  0.0272  0.2727 -0.0111
14439TIP3    H164732   0.868   4.795  12.438 -0.0471 -0.3789  0.3189
14439TIP3    H264733   0.728   4.775  12.493 -0.4573  1.2559 -0.0485
14440TIP3   OH264734   3.154   6.427  16.171 -0.5817 -0.2150 -0.0674
14440TIP3    H164735   3.162   6.522  16.177 -1.6719 -0.1718  1.7354
14440TIP3    H264736   3.160   6.408  16.078 -1.8866  1.8000 -0.6443
14441TIP3   OH264737   1.459   4.161  15.681  0.5074 -0.3318  0.5959
14441TIP3    H164738   1.425   4.143  15.769  3.0950  1.4528  2.0866
14441TIP3    H264739   1.408   4.236  15.651  0.4489 -0.1446  1.1399
14442TIP3   OH264740   5.627   4.941  12.502  0.2717 -0.6111 -0.8249
14442TIP3    H164741   5.662   4.861  12.540  2.1156 -0.1009 -1.2977
14442TIP3    H264742   5.535   4.922  12.485  0.1676 -1.9048  0.9238
14443TIP3   OH264743   6.511   2.881   1.096 -0.0261 -0.1258  0.0351
14443TIP3    H164744   6.605   2.885   1.076  0.1882  0.9686  1.1240
14443TIP3    H264745   6.471   2.946   1.038 -0.1847 -0.8795 -0.7188
14444TIP3   OH264746   2.645   1.997   3.079  0.3390 -0.2344 -0.2691
14444TIP3    H164747   2.573   1.982   3.018  1.6073 -0.6395 -1.7317
14444TIP3    H264748   2.709   2.049   3.030  1.7681 -1.2521  0.4196
14445TIP3   OH264749   1.176   6.046  15.466 -0.2839 -0.1109 -0.5340
14445TIP3    H164750   1.262   6.075  15.434 -0.0591  1.1861  1.1179
14445TIP3    H264751   1.124   6.034  15.386 -0.2708  4.5580 -1.5035
14446TIP3   OH264752   6.655   4.000   4.598 -0.1910  0.3888 -0.1340
14446TIP3    H164753   6.707   4.010   4.519  0.1150  0.8512  0.1261
14446TIP3    H264754   6.590   4.070   4.593  0.9631  1.5644  0.9077
14447TIP3   OH264755   5.874   5.088   5.521 -0.0440 -0.3291 -0.2782
14447TIP3    H164756   5.890   5.027   5.593  1.7596  1.5877  1.0509
14447TIP3    H264757   5.960   5.104   5.484 -0.8186 -0.5183 -2.3131
14448TIP3   OH264758   3.715   1.138   2.031  0.0145 -0.0268  0.3135
14448TIP3    H164759   3.774   1.125   1.957 -0.8626 -1.1220 -0.2025
14448TIP3    H264760   3.723   1.232   2.050  0.9660  0.0922 -0.5414
14449TIP3   OH264761   1.669   4.104  13.487  0.0695 -0.6028 -1.4337
14449TIP3    H164762   1.614   4.181  13.500 -1.1046 -1.8534  2.2751
14449TIP3    H264763   1.752   4.127  13.529 -0.4615 -1.4484  0.1523
14450TIP3   OH264764   2.162   0.669   3.946 -0.2567 -0.3819 -0.6416
14450TIP3    H164765   2.126   0.606   4.009  0.4941 -0.6642 -0.4777
14450TIP3    H264766   2.098   0.739   3.942 -1.1483 -1.1863 -0.8691
14451TIP3   OH264767   6.532   5.457   0.612  0.3157 -0.2963 -0.1392
14451TIP3    H164768   6.526   5.370   0.653  0.0143 -0.6778 -0.9760
14451TIP3    H264769   6.458   5.505   0.648 -0.3448 -0.8483 -0.7400
14452TIP3   OH264770   5.003   1.425   3.992  0.0231 -0.4764 -0.0918
14452TIP3    H164771   5.071   1.369   3.954 -0.5615 -2.6347  1.7465
14452TIP3    H264772   4.923   1.373   3.984 -0.7578  0.5471  0.8130
14453TIP3   OH264773   3.837   6.278   4.055  0.4239  0.3281  0.0504
14453TIP3    H164774   3.744   6.269   4.034  0.3857  1.6136 -0.4425
14453TIP3    H264775   3.862   6.193   4.090 -0.8548 -0.1484 -0.1302
14454TIP3   OH264776   1.114   2.420  14.101 -0.1230 -0.4834  0.2256
14454TIP3    H164777   1.148   2.338  14.137  0.6164 -1.4658 -2.4644
14454TIP3    H264778   1.033   2.394  14.055 -0.7628  0.6081  0.7095
14455TIP3   OH264779   2.120   3.815   5.867 -0.0488  0.7713  0.7102
14455TIP3    H164780   2.065   3.792   5.792  1.5163 -0.8083  0.0061
14455TIP3    H264781   2.057   3.836   5.937 -1.5340  0.3648 -0.4603
14456TIP3   OH264782   4.197   4.531   2.133 -0.2136  0.4534 -0.5926
14456TIP3    H164783   4.103   4.537   2.117 -0.4836  2.0507  1.2538
14456TIP3    H264784   4.205   4.458   2.194 -0.3375  0.7500 -0.2203
14457TIP3   OH264785   2.800   4.470  11.823  0.0908  0.3980  0.0797
14457TIP3    H164786   2.728   4.502  11.769 -0.0229 -0.5826 -0.3587
14457TIP3    H264787   2.791   4.375  11.823  1.9517  0.1708 -0.8146
14458TIP3   OH264788   0.696   5.184   3.666  0.1572  0.1233  0.1126
14458TIP3    H164789   0.738   5.244   3.729 -0.5784  0.1711  0.5718
14458TIP3    H264790   0.759   5.113   3.655  0.4198  0.2603  0.6893
14459TIP3   OH264791   3.736   3.520   5.255 -0.5353  0.3165 -0.4562
14459TIP3    H164792   3.723   3.559   5.342 -0.0907  0.5394 -0.4901
14459TIP3    H264793   3.713   3.428   5.267  3.1705 -0.6051  0.8665
14460TIP3   OH264794   1.802   1.411  14.092 -0.4343 -0.5514  0.4562
14460TIP3    H164795   1.752   1.338  14.056  0.8122 -0.6149 -1.2605
14460TIP3    H264796   1.833   1.459  14.015 -0.4206  1.2530  1.5293
14461TIP3   OH264797   4.025   5.841   0.959  0.3168  0.2401  0.6953
14461TIP3    H164798   4.100   5.785   0.980  0.7263  0.5320  0.0715
14461TIP3    H264799   4.061   5.907   0.900 -1.0132 -1.4730 -2.3034
14462TIP3   OH264800   2.028   4.986   2.254 -0.3431 -0.2199  0.2729
14462TIP3    H164801   2.001   4.895   2.261  0.7045 -0.4864  1.0779
14462TIP3    H264802   2.114   4.983   2.212  0.1204  0.2967  1.1361
14463TIP3   OH264803   3.565   4.810  11.340  0.0065 -0.5227  0.8322
14463TIP3    H164804   3.517   4.813  11.423 -1.4046 -1.1076  0.0948
14463TIP3    H264805   3.507   4.760  11.282  1.9223 -2.0223  0.1096
14464TIP3   OH264806   0.465   4.735   4.203  0.1876 -0.2924 -0.1329
14464TIP3    H164807   0.496   4.650   4.174  0.5515 -0.3468  0.4060
14464TIP3    H264808   0.401   4.716   4.272  1.0792 -0.1124  0.7653
14465TIP3   OH264809   2.808   3.710  11.083  0.2633 -0.3329 -0.2038
14465TIP3    H164810   2.842   3.635  11.133  1.3997  0.6327  0.5510
14465TIP3    H264811   2.830   3.690  10.992  0.6364 -0.8879 -0.0006
14466TIP3   OH264812   5.427   1.735  14.029  0.0587 -0.5102 -0.8939
14466TIP3    H164813   5.458   1.671  14.094  0.9033 -0.1545 -0.9385
14466TIP3    H264814   5.398   1.681  13.955 -0.4409 -0.8962 -0.4324
14467TIP3   OH264815   3.461   2.387  11.303  0.3534 -0.3300  0.5723
14467TIP3    H164816   3.531   2.387  11.369 -0.4033 -3.1408  1.5413
14467TIP3    H264817   3.382   2.369  11.353 -1.0747  2.2290 -0.5754
14468TIP3   OH264818   3.505   3.186  13.400  0.7140  0.1091 -0.6155
14468TIP3    H164819   3.585   3.155  13.358  0.8041  1.4625 -1.4903
14468TIP3    H264820   3.511   3.154  13.490  2.5232  0.6741 -0.4964
14469TIP3   OH264821   0.250   3.465  14.289 -0.4233 -0.3038 -0.0914
14469TIP3    H164822   0.193   3.405  14.241 -0.1507 -0.4329 -0.2557
14469TIP3    H264823   0.192   3.537  14.316 -0.7907 -0.7408  0.2871
14470TIP3   OH264824   4.363   5.770   0.227 -0.4023 -0.5454  0.2050
14470TIP3    H164825   4.328   5.859   0.232 -0.8645 -0.5929 -1.5513
14470TIP3    H264826   4.448   5.775   0.271 -0.3732  0.7923  0.0452
14471TIP3   OH264827   6.051   6.099   5.725  1.0770 -0.4316 -0.1966
14471TIP3    H164828   6.033   6.192   5.741  1.0369 -0.4395 -0.1951
14471TIP3    H264829   6.077   6.064   5.810  1.7289 -0.2814 -0.3285
14472TIP3   OH264830   5.752   2.131   5.049  0.2979  0.2528 -0.2707
14472TIP3    H164831   5.827   2.144   5.108  0.2655 -1.2374  0.1387
14472TIP3    H264832   5.683   2.097   5.105 -1.4763  3.5723 -0.2131
14473TIP3   OH264833   3.490   6.237  15.612 -0.2636 -0.4742  0.4566
14473TIP3    H164834   3.406   6.191  15.613  0.8373 -2.6367  1.8563
14473TIP3    H264835   3.516   6.238  15.520 -2.2386  1.1933 -0.1660
14474TIP3   OH264836   4.802   0.958   0.289  0.7028 -0.8134 -0.2542
14474TIP3    H164837   4.802   0.948   0.385  1.8267 -0.2259 -0.1800
14474TIP3    H264838   4.717   0.998   0.270  1.4988  1.6199  0.8219
14475TIP3   OH264839   6.423   4.711   2.129 -0.3219  0.3974  0.6167
14475TIP3    H164840   6.354   4.773   2.152  0.2909  1.0975  0.6239
14475TIP3    H264841   6.406   4.688   2.038 -1.1006 -0.1544  0.9022
14476TIP3   OH264842   2.569   1.440   5.358 -0.0385  0.1660 -0.1914
14476TIP3    H164843   2.615   1.465   5.277 -1.9253  0.8315 -1.0995
14476TIP3    H264844   2.562   1.521   5.408  0.7744 -0.1689  0.4869
14477TIP3   OH264845   2.147   5.755  13.769 -0.1595 -0.0751  0.1114
14477TIP3    H164846   2.177   5.842  13.795  0.6185 -0.6933  1.3978
14477TIP3    H264847   2.209   5.728  13.701  0.4887 -0.1941  0.7390
14478TIP3   OH264848   3.143   0.332  13.421 -0.8348  0.3580  0.7888
14478TIP3    H164849   3.168   0.320  13.330 -3.3212 -1.3539  0.2119
14478TIP3    H264850   3.214   0.293  13.471  1.1915  2.4404 -0.2629
14479TIP3   OH264851   2.332   0.092   1.091 -0.0683  0.2250 -0.3370
14479TIP3    H164852   2.402   0.054   1.037  1.4446  0.8831  1.0734
14479TIP3    H264853   2.274   0.134   1.028  2.0886  1.6988 -1.4762
14480TIP3   OH264854   3.966   2.163   0.396 -0.0508  0.4984  0.1118
14480TIP3    H164855   3.894   2.222   0.372 -0.0876  0.9771  1.3370
14480TIP3    H264856   3.967   2.164   0.492 -1.5671 -3.3038  0.3388
14481TIP3   OH264857   3.143   1.524   4.163 -0.0306 -0.2798  0.3759
14481TIP3    H164858   3.130   1.617   4.144  0.9965  0.1748  1.7028
14481TIP3    H264859   3.152   1.520   4.258  0.2744 -1.6980  0.3095
14482TIP3   OH264860   6.474   3.954  15.505  0.5508 -0.4651  0.9182
14482TIP3    H164861   6.427   4.018  15.558 -0.8939 -1.5838  1.0456
14482TIP3    H264862   6.567   3.970  15.526  0.1134  0.2003  2.5419
14483TIP3   OH264863   6.395   4.499   4.591  0.3203 -0.0352 -0.0512
14483TIP3    H164864   6.448   4.447   4.652  0.5555 -0.7273 -0.8302
14483TIP3    H264865   6.447   4.576   4.572  0.3834  0.0277  0.3709
14484TIP3   OH264866   3.395   3.782   3.759  0.6278  0.1649 -0.1959
14484TIP3    H164867   3.363   3.838   3.688 -2.7866 -1.4871 -0.1270
14484TIP3    H264868   3.400   3.841   3.835 -1.6198  0.7243 -0.4215
14485TIP3   OH264869   6.197   1.747   2.376 -0.0342  0.4651 -1.1375
14485TIP3    H164870   6.168   1.803   2.448 -1.3440 -0.4142 -0.9484
14485TIP3    H264871   6.171   1.659   2.402  2.3267 -0.3460 -1.2422
14486TIP3   OH264872   4.892   2.824   1.987  0.1536  0.5750 -0.3768
14486TIP3    H164873   4.922   2.908   2.023 -1.4369  2.2101 -2.6042
14486TIP3    H264874   4.902   2.834   1.893 -0.3741 -1.6800 -0.7191
14487TIP3   OH264875   3.394   2.404   3.602 -0.2187  0.3187  0.0340
14487TIP3    H164876   3.415   2.312   3.590  1.1386  0.6533 -0.4216
14487TIP3    H264877   3.372   2.413   3.694 -1.2428 -0.6072 -0.1060
14488TIP3   OH264878   6.297   0.664  14.026 -0.2787 -0.3210 -0.5223
14488TIP3    H164879   6.378   0.613  14.038 -0.3875 -0.8761 -1.9465
14488TIP3    H264880   6.229   0.597  14.014 -1.0145  0.1374  0.8903
14489TIP3   OH264881   2.920   1.154  14.195  0.3827 -0.1929  0.7090
14489TIP3    H164882   2.936   1.063  14.222 -0.7997 -0.4999  0.4621
14489TIP3    H264883   2.985   1.171  14.128 -1.1730 -1.8984 -1.4047
14490TIP3   OH264884   6.627   1.605   4.690  0.1093 -0.2989 -0.0519
14490TIP3    H164885   6.682   1.649   4.625 -0.7573  1.2876  0.2594
14490TIP3    H264886   6.632   1.660   4.768 -1.5642 -0.3459  0.1235
14491TIP3   OH264887   6.050   5.888  15.429 -0.5970  0.2280  0.1821
14491TIP3    H164888   6.045   5.983  15.435  0.8101  0.3163  0.2465
14491TIP3    H264889   6.133   5.871  15.383 -0.4758 -0.9703  0.8053
14492TIP3   OH264890   0.674   6.095  12.829 -0.5443 -0.2749 -0.3891
14492TIP3    H164891   0.767   6.075  12.819 -0.3342  1.0466 -1.3002
14492TIP3    H264892   0.632   6.009  12.830  0.5346 -0.8633 -1.5668
14493TIP3   OH264893   2.300   2.933  11.808  0.0780  0.0623 -0.1625
14493TIP3    H164894   2.268   2.865  11.867  0.8402 -2.3899 -2.3859
14493TIP3    H264895   2.229   2.948  11.746  0.3606  0.4278 -0.4063
14494TIP3   OH264896   5.321   6.504   5.548  0.5631  0.2542 -0.3555
14494TIP3    H164897   5.240   6.551   5.567 -1.4239 -2.7510 -0.6017
14494TIP3    H264898   5.314   6.481   5.455  3.1426  2.3157 -1.1685
14495TIP3   OH264899   3.274   0.696  16.070  0.5705  0.1799  0.0574
14495TIP3    H164900   3.267   0.640  15.993 -0.1952 -0.5745  0.6443
14495TIP3    H264901   3.302   0.637  16.140 -1.7964  0.1131  1.0570
14496TIP3   OH264902   1.282   1.342  16.218  0.1540 -0.4863  0.0211
14496TIP3    H164903   1.248   1.412  16.163 -1.5259 -0.8160  0.5694
14496TIP3    H264904   1.376   1.340  16.200  0.5704  2.8946  1.0574
14497TIP3   OH264905   2.159   2.598  13.292 -0.1490  0.3173  0.0299
14497TIP3    H164906   2.090   2.646  13.338  0.2828  0.7004  0.2812
14497TIP3    H264907   2.220   2.570  13.361  0.2915  0.5520 -0.2623
14498TIP3   OH264908   1.510   5.704   5.698 -0.0050  0.1646 -0.1080
14498TIP3    H164909   1.463   5.781   5.667  0.2409  0.4025  0.1063
14498TIP3    H264910   1.601   5.719   5.671  0.1900  0.3112  0.6112
14499TIP3   OH264911   0.892   1.766   0.763  0.0107 -0.2521  0.7447
14499TIP3    H164912   0.972   1.809   0.791  0.9969 -1.6298  0.1676
14499TIP3    H264913   0.822   1.820   0.799  1.1734  1.4131  0.6235
14500TIP3   OH264914   4.651   0.025  11.562  0.5734  0.5276  0.2346
14500TIP3    H164915   4.701  -0.046  11.602 -0.0541  0.6465  1.2700
14500TIP3    H264916   4.565  -0.013  11.544  0.6120  0.6934 -0.2905
14501TIP3   OH264917   2.867   0.523  13.346  0.4428 -0.2245  0.0904
14501TIP3    H164918   2.946   0.487  13.386  0.2071  0.6066  1.3466
14501TIP3    H264919   2.897   0.603  13.302  0.4554 -0.4066 -0.2383
14502TIP3   OH264920   0.426   5.299  14.316 -0.0086 -0.5726  0.2640
14502TIP3    H164921   0.509   5.343  14.299  0.5386 -1.9935 -0.9846
14502TIP3    H264922   0.363   5.370  14.327  1.6474  0.5854  3.1711
14503TIP3   OH264923   4.219   6.103   1.638  0.2451 -0.0040  0.8064
14503TIP3    H164924   4.173   6.153   1.571  0.1533  0.8621  1.4883
14503TIP3    H264925   4.251   6.169   1.699  0.4673 -0.7601  1.5295
14504TIP3   OH264926   6.543   6.704   5.774 -0.1318  0.4756  0.7878
14504TIP3    H164927   6.617   6.694   5.834 -0.7973  1.6422  1.8261
14504TIP3    H264928   6.577   6.672   5.690  1.2883  0.2171  1.4271
14505TIP3   OH264929   2.320   5.953   0.167  0.1376 -0.1415 -0.5205
14505TIP3    H164930   2.321   5.996   0.082  1.0147  1.1072  0.0821
14505TIP3    H264931   2.403   5.978   0.208 -0.3778 -0.4802  0.7972
14506TIP3   OH264932   0.185   3.501  13.423  0.1364  0.8182 -0.2338
14506TIP3    H164933   0.194   3.592  13.451 -2.0303  0.6987  1.0698
14506TIP3    H264934   0.267   3.459  13.451 -0.7986  1.3045  3.7281
14507TIP3   OH264935   5.829   1.529   5.264  0.1831  0.1466  0.3006
14507TIP3    H164936   5.867   1.589   5.329  0.8877  1.1946 -1.0384
14507TIP3    H264937   5.738   1.557   5.256  0.6801  1.5298 -0.8173
14508TIP3   OH264938   4.862   3.817   1.522 -0.3343  0.3445 -0.3564
14508TIP3    H164939   4.892   3.765   1.447 -0.3075  0.9584 -0.7769
14508TIP3    H264940   4.933   3.879   1.538 -0.2577  0.0966  0.3033
14509TIP3   OH264941   3.191   3.719  11.882  0.3113 -0.0812 -0.3383
14509TIP3    H164942   3.259   3.733  11.815  0.2888 -2.7169 -1.0362
14509TIP3    H264943   3.108   3.727  11.833  0.1797  0.6618 -0.0113
14510TIP3   OH264944   3.684   0.235  12.529  0.1132 -0.2339 -0.8549
14510TIP3    H164945   3.671   0.276  12.614  3.1051 -1.0578  0.1358
14510TIP3    H264946   3.636   0.291  12.467 -0.2680  1.6783  1.0610
14511TIP3   OH264947   3.271   6.519   4.700  0.2011 -0.4131  0.2157
14511TIP3    H164948   3.323   6.596   4.724  1.7637 -2.0022  2.2121
14511TIP3    H264949   3.210   6.552   4.633  2.1432  2.0835 -0.4849
14512TIP3   OH264950   4.278   2.452   0.524 -0.4246  0.4258  0.1867
14512TIP3    H164951   4.274   2.361   0.553 -0.9261  0.9024  1.7556
14512TIP3    H264952   4.281   2.448   0.429  2.4129 -1.3134  0.2540
14513TIP3   OH264953   6.353   6.800   1.371 -0.1120  0.4125  0.9121
14513TIP3    H164954   6.320   6.876   1.417  2.4460  1.3438  1.3496
14513TIP3    H264955   6.393   6.835   1.291 -0.0527 -0.6084  0.4711
14514TIP3   OH264956   3.247   2.648   4.295 -0.3151 -0.7054 -0.1515
14514TIP3    H164957   3.270   2.721   4.353 -1.5208 -0.7813  0.4578
14514TIP3    H264958   3.323   2.638   4.238  1.2720 -1.1414  1.9114
14515TIP3   OH264959   5.522   3.282   1.501 -0.5181 -0.1392 -0.0884
14515TIP3    H164960   5.525   3.245   1.589 -1.0142 -0.0164 -0.0161
14515TIP3    H264961   5.516   3.206   1.443  1.4456 -0.3131 -0.1372
14516TIP3   OH264962   4.436   6.779   5.859  0.4078  0.0385  0.1539
14516TIP3    H164963   4.373   6.797   5.928  0.1443 -1.2393  0.2542
14516TIP3    H264964   4.403   6.827   5.783  0.5252  1.1804  0.7998
14517TIP3   OH264965   3.649   6.185   6.244 -0.5181 -0.9120  0.2956
14517TIP3    H164966   3.717   6.233   6.196  0.0450 -0.5326  1.4455
14517TIP3    H264967   3.697   6.121   6.296 -1.0807 -0.9906  0.7198
14518TIP3   OH264968   6.430   6.549  13.700 -0.1832  0.6047 -0.8569
14518TIP3    H164969   6.375   6.475  13.726  1.0576 -0.7146 -1.8076
14518TIP3    H264970   6.406   6.620  13.760 -2.6766  0.0072 -1.0411
14519TIP3   OH264971   3.501   1.379   3.209  0.2342  0.3467 -0.2420
14519TIP3    H164972   3.475   1.457   3.161  0.9406  0.1263 -1.0118
14519TIP3    H264973   3.583   1.352   3.167  1.0198  0.3071  1.2724
14520TIP3   OH264974   6.601   6.032   2.137  0.0548  0.3848 -0.0127
14520TIP3    H164975   6.581   6.026   2.231  0.9121  1.9668  0.3067
14520TIP3    H264976   6.686   5.989   2.128  0.1789  0.6188  0.0249
14521TIP3   OH264977   2.440   1.280  11.016 -0.2548  0.2924 -0.0844
14521TIP3    H164978   2.480   1.289  11.103  0.6449  1.6442 -0.6003
14521TIP3    H264979   2.433   1.370  10.984 -0.9688 -0.1570 -1.2377
14522TIP3   OH264980   2.698   5.033   1.471 -0.4676 -0.0778 -0.0386
14522TIP3    H164981   2.750   5.097   1.423  0.6109 -0.9743 -0.1041
14522TIP3    H264982   2.726   5.042   1.562  1.0303 -1.6446 -0.2913
14523TIP3   OH264983   0.496   6.215   3.705 -0.2301 -0.5835  0.4260
14523TIP3    H164984   0.537   6.242   3.623 -0.1211 -0.8888  0.3796
14523TIP3    H264985   0.478   6.297   3.751  0.1848 -0.4375  0.3275
14524TIP3   OH264986   1.485   3.902  14.230 -0.7156 -0.1801 -0.1639
14524TIP3    H164987   1.470   3.821  14.181  0.3561  0.9070 -2.4442
14524TIP3    H264988   1.448   3.971  14.175 -2.2061  0.9018  2.0237
14525TIP3   OH264989   4.641   4.548  13.753  0.2253  0.0345 -0.0250
14525TIP3    H164990   4.634   4.540  13.658  1.3854 -1.9735  0.0210
14525TIP3    H264991   4.594   4.630  13.773  1.7805  1.6672 -2.5169
14526TIP3   OH264992   3.881   1.858  15.382  0.3837  0.2274  0.0409
14526TIP3    H164993   3.922   1.833  15.465 -0.4201  0.4639  0.5256
14526TIP3    H264994   3.944   1.833  15.315  1.4476  0.8544  0.7779
14527TIP3   OH264995   4.299   2.241  13.869  0.3998 -0.1016  0.3642
14527TIP3    H164996   4.379   2.269  13.824 -0.9786  1.0165 -1.5968
14527TIP3    H264997   4.265   2.322  13.908  0.4244 -0.6448  1.5256
14528TIP3   OH264998   1.733   0.702  15.289  0.2192  0.0136 -0.1500
14528TIP3    H164999   1.796   0.632  15.305 -1.0302 -1.5704 -1.8219
14528TIP3    H265000   1.658   0.679  15.344 -0.7752 -0.8330 -1.7964
14529TIP3   OH265001   0.421   1.228   4.078 -0.6049 -1.0407 -0.5920
14529TIP3    H165002   0.472   1.308   4.070  0.0360 -1.5634 -2.0372
14529TIP3    H265003   0.434   1.200   4.169  0.6576 -0.4914 -0.5918
14530TIP3   OH265004   1.217   5.814   6.090  0.1542  0.2237  0.4556
14530TIP3    H165005   1.295   5.839   6.042  0.1388 -0.3105  0.1506
14530TIP3    H265006   1.240   5.828   6.182  0.2289  1.1104  0.3122
14531TIP3   OH265007   4.176   1.878   4.969 -0.4038  0.3515  0.1805
14531TIP3    H165008   4.168   1.867   5.064 -1.1498 -0.4550  0.0359
14531TIP3    H265009   4.114   1.815   4.932  1.7632 -1.2882 -0.9017
14532TIP3   OH265010   3.469   6.208   2.749  0.6091 -0.2875  0.0095
14532TIP3    H165011   3.455   6.295   2.710 -0.2585 -0.5030 -0.1792
14532TIP3    H265012   3.551   6.178   2.710  0.0715 -0.2434 -1.2110
14533TIP3   OH265013   0.330   2.646  16.948 -0.5594  0.3011 -0.2907
14533TIP3    H165014   0.354   2.724  16.999 -0.7968 -0.0990  0.4519
14533TIP3    H265015   0.235   2.639  16.959 -0.7207  0.6251 -1.4056
14534TIP3   OH265016   5.514   5.071   3.062 -0.9328  0.0640 -0.3513
14534TIP3    H165017   5.511   5.019   3.142 -1.6741  0.9868  0.2321
14534TIP3    H265018   5.536   5.160   3.092  2.9480 -0.2867 -1.5260
14535TIP3   OH265019   0.099   5.129   1.674 -0.5654 -0.2649  0.2925
14535TIP3    H165020   0.078   5.048   1.629  1.0328 -0.5051 -0.0653
14535TIP3    H265021   0.016   5.177   1.678 -0.9230 -0.5933 -2.1497
14536TIP3   OH265022   1.863   3.981  12.599  0.4167  0.9154 -0.6012
14536TIP3    H165023   1.798   3.912  12.582  0.6309  0.8354 -1.1316
14536TIP3    H265024   1.870   3.985  12.694  1.0503 -0.4043 -0.5703
14537TIP3   OH265025   5.755   6.099   1.484 -0.5176 -0.2252 -0.2820
14537TIP3    H165026   5.775   6.057   1.401 -1.1501 -1.0480 -0.0308
14537TIP3    H265027   5.660   6.089   1.494 -0.6634  1.0998 -0.1258
14538TIP3   OH265028   3.070   3.498  13.687  0.3490  0.3090 -0.1907
14538TIP3    H165029   3.034   3.439  13.754 -0.8913  0.1785 -0.9454
14538TIP3    H265030   3.137   3.446  13.643  1.0071  0.3151  0.7644
14539TIP3   OH265031   4.203   2.993  11.773  0.1424 -0.4724 -0.1019
14539TIP3    H165032   4.215   2.926  11.706  1.1556 -1.6213  1.1675
14539TIP3    H265033   4.291   3.027  11.789 -0.5081  2.4686 -1.9213
14540TIP3   OH265034   1.645   4.893  10.408 -0.3919 -0.3845 -0.1480
14540TIP3    H165035   1.705   4.867  10.339 -4.0108  0.2983 -3.9856
14540TIP3    H265036   1.661   4.986  10.420  0.3742 -0.5440  0.1476
14541TIP3   OH265037   3.124   3.046   5.476 -0.0802  0.0537 -0.5068
14541TIP3    H165038   3.086   2.958   5.481 -1.2061  0.5775  1.2506
14541TIP3    H265039   3.194   3.045   5.542 -1.0875  0.8679  0.6299
14542TIP3   OH265040   0.623   1.893  13.563  0.3279 -0.7638  0.6428
14542TIP3    H165041   0.629   1.972  13.615  1.0956  1.6902 -2.8208
14542TIP3    H265042   0.713   1.876  13.533 -0.4197 -0.3262 -2.0869
14543TIP3   OH265043   4.621   1.908   1.347 -0.1622 -0.3836  0.8692
14543TIP3    H165044   4.645   1.815   1.354  1.6187 -0.0603 -0.3442
14543TIP3    H265045   4.552   1.910   1.281  0.2416 -0.7988  0.4250
14544TIP3   OH265046   0.919   4.825  15.859 -0.0588  0.0475  0.0713
14544TIP3    H165047   0.927   4.911  15.901 -1.9142 -0.4484  1.5866
14544TIP3    H265048   1.000   4.780  15.883  0.4760  1.0056  0.1262
14545TIP3   OH265049   5.418   6.001   4.692 -0.4145  0.5084 -0.1482
14545TIP3    H165050   5.374   5.945   4.628  0.1730 -1.0612  0.7570
14545TIP3    H265051   5.351   6.022   4.756 -0.0436 -1.5518  1.0157
14546TIP3   OH265052   2.353   2.069  12.008 -0.7405 -0.0313 -0.0801
14546TIP3    H165053   2.290   1.998  12.003 -0.0651 -0.6459 -0.1019
14546TIP3    H265054   2.360   2.102  11.919  0.3687 -1.2353 -0.4815
14547TIP3   OH265055   1.199   6.688  13.322  0.0993 -0.8000 -0.3137
14547TIP3    H165056   1.284   6.678  13.280 -1.5371 -2.2021 -3.6757
14547TIP3    H265057   1.186   6.606  13.370  0.1493 -1.1085 -0.8201
14548TIP3   OH265058   4.811   2.353  11.565  0.1933  0.0332  0.4912
14548TIP3    H165059   4.860   2.382  11.487 -0.6283  1.3141  0.4211
14548TIP3    H265060   4.793   2.260  11.549 -1.7658  0.7211 -1.8731
14549TIP3   OH265061   5.270   3.100  15.143  0.1110 -0.0338  0.0698
14549TIP3    H165062   5.302   3.130  15.228 -0.8402 -0.5273  0.6221
14549TIP3    H265063   5.179   3.075  15.159  0.4378 -1.8429 -0.6894
14550TIP3   OH265064   4.528   5.108   5.082 -0.3388  0.0077 -0.0367
14550TIP3    H165065   4.563   5.060   5.007  1.5466  0.7740  0.2970
14550TIP3    H265066   4.567   5.065   5.158 -0.1035  0.8977  0.3558
14551TIP3   OH265067   4.170   1.546   5.711  0.6723 -0.2982  0.2891
14551TIP3    H165068   4.153   1.466   5.761  0.3308 -0.4090 -0.0018
14551TIP3    H265069   4.169   1.616   5.777  0.3502 -0.4571  0.4542
14552TIP3   OH265070   2.748   2.017   1.185 -0.2525  0.4544 -0.6777
14552TIP3    H165071   2.741   2.099   1.234 -2.7555 -0.6336  1.0038
14552TIP3    H265072   2.672   2.017   1.127 -0.1712 -0.5546 -0.8120
14553TIP3   OH265073   5.010   6.611  12.980 -0.1233  0.0808  0.6729
14553TIP3    H165074   5.027   6.634  13.071  1.0643 -0.4521  0.6081
14553TIP3    H265075   4.958   6.684  12.946  0.9342  1.1691  1.2979
14554TIP3   OH265076   4.585   5.748   3.085 -0.1684  0.1260 -0.4518
14554TIP3    H165077   4.564   5.695   3.162 -0.4122  0.7650 -0.0736
14554TIP3    H265078   4.653   5.698   3.039 -0.3664 -0.4891 -0.0756
14555TIP3   OH265079   4.003   0.170   3.718 -0.0336 -0.3506  0.4003
14555TIP3    H165080   4.042   0.229   3.654 -0.2176 -1.1153 -0.4346
14555TIP3    H265081   4.065   0.097   3.724  0.3429  0.0433  1.6434
14556TIP3   OH265082   1.576   0.243   4.762  0.7148 -0.0501  0.3824
14556TIP3    H165083   1.561   0.261   4.855  2.7253 -0.3507  0.8009
14556TIP3    H265084   1.548   0.323   4.717  2.5325  1.3148  1.5362
14557TIP3   OH265085   2.869   5.674   6.500 -0.0922 -0.4554 -0.2663
14557TIP3    H165086   2.910   5.626   6.572 -0.0183  0.1747  0.1203
14557TIP3    H265087   2.800   5.726   6.543  2.1944  2.6842 -0.0485
14558TIP3   OH265088   5.688   5.168  13.345 -0.5020 -0.6700  0.1457
14558TIP3    H165089   5.638   5.110  13.288 -0.3445 -0.9385  0.2765
14558TIP3    H265090   5.692   5.122  13.429  1.5610 -1.5756 -0.3619
14559TIP3   OH265091   1.875   3.965  11.077  0.0860 -0.5347 -0.3311
14559TIP3    H165092   1.904   4.052  11.105 -2.3405  0.1459  0.3619
14559TIP3    H265093   1.919   3.905  11.136  1.2841  0.2543 -0.3777
14560TIP3   OH265094   4.383   3.214  10.895  0.3760  0.0251  0.2571
14560TIP3    H165095   4.336   3.155  10.835  0.0752 -0.4470  0.9419
14560TIP3    H265096   4.454   3.160  10.930  0.6882  0.3685  0.1557
14561TIP3   OH265097   2.435   3.321   2.451 -0.2291  0.1457 -0.0093
14561TIP3    H165098   2.370   3.251   2.453 -0.8490  0.7205  0.4901
14561TIP3    H265099   2.470   3.323   2.540 -2.7678  2.7624  1.1296
14562TIP3   OH265100   4.411   4.282  11.826 -0.5791 -0.1568  0.2546
14562TIP3    H165101   4.487   4.299  11.770  0.4034 -0.9072  1.3192
14562TIP3    H265102   4.440   4.215  11.887 -1.2688  1.3151  2.3409
14563TIP3   OH265103   0.427   6.708   1.094 -0.2017 -0.0299  0.5992
14563TIP3    H165104   0.517   6.729   1.120  0.3974 -1.0116 -0.6052
14563TIP3    H265105   0.422   6.734   1.002 -1.3740  0.6547  0.8451
14564TIP3   OH265106   4.680   6.791  13.613 -0.3091 -0.3162  0.3499
14564TIP3    H165107   4.731   6.808  13.692  0.0208  0.5818 -0.0444
14564TIP3    H265108   4.607   6.852  13.618 -0.8313 -0.9281  0.4298
14565TIP3   OH265109   5.081   2.719   5.663  0.6731  0.2741 -0.1581
14565TIP3    H165110   5.048   2.641   5.619  0.5310 -0.0409  0.4981
14565TIP3    H265111   5.034   2.791   5.622  0.3928 -0.0331 -0.3823
14566TIP3   OH265112   4.880   5.160  16.275 -0.0609  0.3059 -0.4484
14566TIP3    H165113   4.877   5.154  16.180 -2.2218  0.0283 -0.4127
14566TIP3    H265114   4.942   5.093  16.302  1.7435  1.3958 -1.7028
14567TIP3   OH265115   1.304   6.344   2.123 -0.5028 -0.2379  0.0706
14567TIP3    H165116   1.343   6.331   2.036  1.2900  2.5728  0.3284
14567TIP3    H265117   1.370   6.312   2.184 -0.7148  0.0593  0.4555
14568TIP3   OH265118   4.574   2.694  16.387 -0.4419 -0.7853  0.3776
14568TIP3    H165119   4.547   2.786  16.379 -0.7829 -0.8024  1.1572
14568TIP3    H265120   4.576   2.661  16.298  2.4689  0.7432 -0.2407
14569TIP3   OH265121   2.855   4.564  14.675  0.1743  0.0248  0.1916
14569TIP3    H165122   2.845   4.519  14.758  0.4877  1.0800  0.8216
14569TIP3    H265123   2.941   4.605  14.680 -0.1798  0.8563 -0.2600
14570TIP3   OH265124   5.690   4.770   2.050  0.0138  0.9186  0.0413
14570TIP3    H165125   5.676   4.676   2.064  0.8749  0.5742 -1.2262
14570TIP3    H265126   5.692   4.808   2.138 -3.2098  0.2085  0.5391
14571TIP3   OH265127   6.290   6.516  12.648 -0.4401 -0.0633  0.3848
14571TIP3    H165128   6.382   6.508  12.675 -0.2524  1.7684  0.4417
14571TIP3    H265129   6.294   6.521  12.552 -0.6295 -1.3871  0.2947
14572TIP3   OH265130   6.145   5.039   5.529  0.5792  0.3990 -0.1827
14572TIP3    H165131   6.178   5.098   5.461  0.4864 -0.5453 -1.0690
14572TIP3    H265132   6.214   5.039   5.595  2.0298 -0.8427 -1.6020
14573TIP3   OH265133   1.946   4.763   6.291  0.3042 -0.2035  0.0987
14573TIP3    H165134   1.852   4.748   6.305  0.3715 -1.7929 -0.9495
14573TIP3    H265135   1.988   4.688   6.332  1.1822  0.7076  0.9289
14574TIP3   OH265136   2.470   1.886  11.227 -0.4570  0.1385 -0.2197
14574TIP3    H165137   2.541   1.828  11.198 -1.0993 -1.1689  0.7073
14574TIP3    H265138   2.513   1.947  11.287 -0.1222 -0.8203  0.5659
14575TIP3   OH265139   5.596   4.259   1.593 -0.7343 -0.0480  0.4848
14575TIP3    H165140   5.565   4.175   1.559 -0.5627  0.0536  0.0701
14575TIP3    H265141   5.520   4.297   1.638 -0.4568 -1.0026  1.8129
14576TIP3   OH265142   0.446   3.796  14.525  0.4464  0.5292  0.0901
14576TIP3    H165143   0.360   3.757  14.540 -0.2076  1.2811 -1.4777
14576TIP3    H265144   0.499   3.767  14.599 -0.4443 -2.0138 -0.1753
14577TIP3   OH265145   1.372   2.740  16.620  0.5939 -0.1981 -0.3635
14577TIP3    H165146   1.297   2.716  16.567  0.4108 -0.0283 -0.1830
14577TIP3    H265147   1.335   2.781  16.698  0.9023  1.1478 -0.8955
14578TIP3   OH265148   6.440   0.198   5.324  0.2859 -0.0533  1.0929
14578TIP3    H165149   6.450   0.138   5.399 -0.0354 -0.9591  0.4331
14578TIP3    H265150   6.346   0.216   5.320  0.4346  0.8663  1.5541
14579TIP3   OH265151   1.001   0.134  13.082  0.2601 -0.6868  0.3146
14579TIP3    H165152   0.987   0.159  13.173 -0.3214  2.5355 -0.5396
14579TIP3    H265153   0.916   0.104  13.051 -0.7274  2.2982 -0.1974
14580TIP3   OH265154   2.297   5.703   6.689 -0.1647  0.3950 -0.3755
14580TIP3    H165155   2.392   5.697   6.694 -0.1652  0.4657 -0.2703
14580TIP3    H265156   2.278   5.711   6.596 -0.2066 -1.7706 -0.5928
14581TIP3   OH265157   1.035   5.826   0.602 -0.1813 -0.6386 -0.0685
14581TIP3    H165158   1.056   5.735   0.585  1.2529 -0.0753 -1.5906
14581TIP3    H265159   0.977   5.852   0.530  0.8015  0.0793 -0.6320
14582TIP3   OH265160   5.322   4.640   4.108 -0.5482 -0.0722  0.1441
14582TIP3    H165161   5.340   4.639   4.202  0.0328  0.7718  0.0521
14582TIP3    H265162   5.396   4.686   4.069 -0.9867 -0.0332 -0.6872
14583TIP3   OH265163   5.264   5.707   3.042 -0.0252 -0.0604 -0.2618
14583TIP3    H165164   5.187   5.732   2.990 -0.3371 -1.4497 -0.4874
14583TIP3    H265165   5.335   5.699   2.978  0.1731  0.6200 -0.1342
14584TIP3   OH265166   5.103   5.895  14.619 -0.5670  0.2602  0.3694
14584TIP3    H165167   5.042   5.894  14.692 -0.8105 -2.1438  0.2152
14584TIP3    H265168   5.103   5.986  14.588 -0.7156  1.2708  3.0847
14585TIP3   OH265169   1.047   1.219  13.629 -0.3125 -0.2995  0.1840
14585TIP3    H165170   1.088   1.164  13.562  0.6237  0.7199 -0.1023
14585TIP3    H265171   0.960   1.181  13.641 -0.6079 -0.3711 -1.7810
14586TIP3   OH265172   6.431   1.157   5.510 -0.1016 -0.7835  0.1690
14586TIP3    H165173   6.415   1.063   5.497  1.2114 -1.0091  0.0612
14586TIP3    H265174   6.351   1.189   5.551 -1.1512 -1.6591 -1.1064
14587TIP3   OH265175   1.421   6.193  15.350 -0.2159  0.3307  0.0164
14587TIP3    H165176   1.460   6.138  15.418 -1.6930 -0.7422  0.0230
14587TIP3    H265177   1.457   6.280  15.367 -0.3417  0.0375  2.0132
14588TIP3   OH265178   6.148   2.762  10.578  0.3953 -0.0075 -0.3071
14588TIP3    H165179   6.225   2.757  10.635  0.5198 -1.8539 -0.5650
14588TIP3    H265180   6.171   2.709  10.502 -0.6989  0.3919 -0.9408
14589TIP3   OH265181   3.198   1.106   0.370  0.0629 -0.0386  0.5404
14589TIP3    H165182   3.130   1.046   0.402  1.4022 -1.9028  0.0894
14589TIP3    H265183   3.269   1.098   0.434  1.2892 -0.9762 -0.8567
14590TIP3   OH265184   6.085   6.389  16.770  0.0780  0.7955  0.1295
14590TIP3    H165185   6.163   6.338  16.793  1.1472  1.4815 -1.8187
14590TIP3    H265186   6.116   6.479  16.764 -0.8317  1.0653 -0.7531
14591TIP3   OH265187   3.483   1.331   0.776 -0.4130  0.3737  0.3804
14591TIP3    H165188   3.506   1.389   0.703 -2.6353  1.1716  0.2545
14591TIP3    H265189   3.541   1.255   0.765  0.0496  0.9407 -1.5807
14592TIP3   OH265190   4.600   5.914  11.419  0.0721  0.2974  0.3960
14592TIP3    H165191   4.617   5.869  11.502  2.6332 -1.1991 -0.8106
14592TIP3    H265192   4.616   5.847  11.352 -1.1165  1.6776 -1.3508
14593TIP3   OH265193   6.321   0.924  12.865 -0.5286 -0.1336  0.0257
14593TIP3    H165194   6.353   0.853  12.921 -1.1843  0.6235  1.4025
14593TIP3    H265195   6.320   0.886  12.777 -2.4302 -2.4574  0.9128
14594TIP3   OH265196   4.606   0.143   2.603 -0.6332 -0.1683 -0.3170
14594TIP3    H165197   4.666   0.069   2.611  0.3299  0.6121 -0.0711
14594TIP3    H265198   4.544   0.132   2.674 -2.2650 -2.2560 -1.9431
14595TIP3   OH265199   6.416   2.128  16.668  0.3069 -0.0708  0.5163
14595TIP3    H165200   6.406   2.048  16.721 -1.5339  0.6819  1.3821
14595TIP3    H265201   6.327   2.160  16.656  1.0851  4.0651  3.6942
14596TIP3   OH265202   4.061   2.106  14.598  0.9270 -0.1470 -0.1331
14596TIP3    H165203   4.126   2.083  14.532  2.8193 -3.6944  2.6094
14596TIP3    H265204   4.110   2.151  14.666  0.0083 -0.5715  0.8454
14597TIP3   OH265205   5.505   0.511   5.887  0.3734 -0.5294 -0.2956
14597TIP3    H165206   5.503   0.509   5.983  0.8354  0.0712 -0.2668
14597TIP3    H265207   5.569   0.445   5.862  0.3507 -0.5930 -0.1864
14598TIP3   OH265208   3.526   3.924   5.054  0.3283  0.0750 -0.5272
14598TIP3    H165209   3.556   3.903   4.965 -3.0454 -1.0416 -1.5305
14598TIP3    H265210   3.495   3.840   5.089 -0.3203  0.8867  0.9108
14599TIP3   OH265211   4.750   2.523  15.190  0.3919 -0.0265  0.1281
14599TIP3    H165212   4.809   2.467  15.140  1.0332 -1.1481  2.0388
14599TIP3    H265213   4.735   2.599  15.133  3.7725  0.3868 -0.4308
14600TIP3   OH265214   0.366   0.803  13.800  0.6361 -0.3984 -0.0357
14600TIP3    H165215   0.274   0.806  13.774  0.9749 -1.2097 -1.4496
14600TIP3    H265216   0.366   0.747  13.878 -0.0682 -0.4106 -0.0341
14601TIP3   OH265217   6.017   3.904   1.708 -0.3258 -0.3732  0.1091
14601TIP3    H165218   5.954   3.938   1.645 -0.1195  0.1491  0.1849
14601TIP3    H265219   6.099   3.898   1.658 -0.3161 -0.5750  0.1491
14602TIP3   OH265220   6.645   0.724   0.092  0.3193 -0.3014  0.1496
14602TIP3    H165221   6.734   0.693   0.110  0.3208  0.3492  1.3443
14602TIP3    H265222   6.654   0.781   0.015  0.7268 -1.1755 -0.4669
14603TIP3   OH265223   5.679   1.479   4.478  0.7589 -0.3665  0.5526
14603TIP3    H165224   5.627   1.425   4.419  0.4080 -1.0323  1.4536
14603TIP3    H265225   5.614   1.533   4.524  1.1981  2.4191 -1.7990
14604TIP3   OH265226   4.521   0.839  14.949 -0.3055 -0.2296  0.7429
14604TIP3    H165227   4.526   0.875  14.860 -1.2006 -1.7509  0.0263
14604TIP3    H265228   4.573   0.899  15.002  1.2533  0.0903 -1.0164
14605TIP3   OH265229   1.820   4.316   2.497  0.5697  0.0765 -0.2250
14605TIP3    H165230   1.745   4.306   2.556  1.1945 -0.7934  0.4527
14605TIP3    H265231   1.800   4.394   2.446 -0.9191 -0.2902 -0.2475
14606TIP3   OH265232   0.856   6.801   4.366 -0.4141 -0.2570  0.0284
14606TIP3    H165233   0.845   6.730   4.303 -0.3533 -0.4480  0.2269
14606TIP3    H265234   0.920   6.859   4.326 -0.1267 -0.5484  0.0536
14607TIP3   OH265235   3.932   4.150   5.719  0.6939 -0.9233  0.0471
14607TIP3    H165236   3.858   4.117   5.668  0.5950 -1.4152  0.5012
14607TIP3    H265237   3.896   4.171   5.805  0.9197 -0.3768  0.0126
14608TIP3   OH265238   1.078   5.712   2.739  0.7560  0.3847  0.3651
14608TIP3    H165239   1.092   5.699   2.833  0.1442  1.4228  0.6209
14608TIP3    H265240   1.163   5.742   2.706  1.3462 -1.2525  0.3142
14609TIP3   OH265241   4.914   0.423  13.118 -0.0538 -0.1500 -0.1919
14609TIP3    H165242   4.972   0.379  13.181 -1.3911 -1.5911  0.0895
14609TIP3    H265243   4.826   0.398  13.146 -0.7075 -0.5856 -2.4673
14610TIP3   OH265244   4.798   1.118   1.136  0.1508  0.3026 -0.2946
14610TIP3    H165245   4.843   1.177   1.197  0.0524 -0.3960  0.4763
14610TIP3    H265246   4.727   1.080   1.189 -0.3299  0.1607 -1.0310
14611TIP3   OH265247   6.058   5.067   3.615 -0.7342  0.1618  0.2447
14611TIP3    H165248   6.106   5.025   3.686  0.3801 -1.7079 -1.5048
14611TIP3    H265249   6.112   5.143   3.592  0.0541 -0.4577 -0.0052
14612TIP3   OH265250   4.201   3.313  12.324 -0.1779 -0.1869 -0.0539
14612TIP3    H165251   4.127   3.355  12.278  0.1488  0.0879 -0.3329
14612TIP3    H265252   4.237   3.381  12.380 -0.9656 -0.6958  1.1087
14613TIP3   OH265253   4.792   5.115  15.440 -0.5684  0.1889  0.3602
14613TIP3    H165254   4.826   5.205  15.433 -0.4590  0.0584 -1.1321
14613TIP3    H265255   4.740   5.104  15.360 -0.9304 -0.9404  0.7430
14614TIP3   OH265256   0.392   2.893  12.443 -0.3592  0.3961 -0.5691
14614TIP3    H165257   0.421   2.973  12.398  1.5523 -1.1559 -2.3503
14614TIP3    H265258   0.354   2.839  12.374 -0.5521 -0.6949  0.3575
14615TIP3   OH265259   0.316   4.925  10.787 -0.3019  0.4002  0.3217
14615TIP3    H165260   0.321   4.831  10.770  0.5008  0.6852 -1.2039
14615TIP3    H265261   0.229   4.939  10.824 -1.8635 -0.4811 -2.7088
14616TIP3   OH265262   6.603   0.765  15.849  0.4936  0.7208  0.0579
14616TIP3    H165263   6.686   0.794  15.812 -0.0098  0.5116 -1.3272
14616TIP3    H265264   6.613   0.776  15.943  2.1154  0.6017 -0.0727
14617TIP3   OH265265   0.451   2.090  13.425  0.0957 -0.0158  0.3239
14617TIP3    H165266   0.528   2.034  13.422  0.1911 -0.1405  2.9495
14617TIP3    H265267   0.485   2.179  13.427 -0.0137  0.1580 -2.2402
14618TIP3   OH265268   5.899   4.234  17.082 -0.4393  0.0672 -0.6597
14618TIP3    H165269   5.924   4.234  16.990  0.4058  1.1901 -0.4546
14618TIP3    H265270   5.917   4.323  17.112 -1.1249 -0.1499  0.4867
14619TIP3   OH265271   2.663   0.403  15.082 -0.0830 -0.8016  0.6625
14619TIP3    H165272   2.745   0.364  15.051 -1.1649 -2.9639  0.3064
14619TIP3    H265273   2.643   0.471  15.017 -0.7871 -3.2633 -1.9258
14620TIP3   OH265274   1.973   4.925   5.961 -0.8491 -0.3533 -0.5123
14620TIP3    H165275   2.048   4.977   5.933  0.9046 -2.0884  0.7660
14620TIP3    H265276   1.943   4.881   5.881 -0.6974  0.5529 -1.0784
14621TIP3   OH265277   5.437   1.643   4.099 -0.4755 -0.4247  0.1810
14621TIP3    H165278   5.477   1.699   4.165 -1.1212  0.3680 -0.0795
14621TIP3    H265279   5.356   1.612   4.139  0.7684 -2.7756  1.0639
14622TIP3   OH265280   4.338   6.136  14.711  0.2778 -0.1229 -0.2845
14622TIP3    H165281   4.420   6.185  14.712  0.4052 -0.3356  0.0850
14622TIP3    H265282   4.286   6.177  14.642 -0.2624  1.5479  1.0724
14623TIP3   OH265283   5.884   1.491  15.923 -0.0396 -0.2370 -0.8469
14623TIP3    H165284   5.817   1.485  15.990  2.0486 -1.1243  1.3083
14623TIP3    H265285   5.847   1.550  15.857 -1.3817  2.5657  2.1323
14624TIP3   OH265286   0.073   6.541  13.195  0.7139 -0.2508 -0.3556
14624TIP3    H165287  -0.005   6.571  13.242  0.8141 -1.2310  0.4501
14624TIP3    H265288   0.053   6.557  13.103 -0.1951  0.0520 -0.1126
14625TIP3   OH265289   2.892   4.262  15.423  0.1194  0.4590  0.5306
14625TIP3    H165290   2.859   4.176  15.396  0.1632  0.6805 -0.2613
14625TIP3    H265291   2.983   4.246  15.447  1.1873  0.7952 -2.7931
14626TIP3   OH265292   6.674   0.174   4.602 -0.1437 -0.9148  0.4552
14626TIP3    H165293   6.748   0.217   4.644  0.4001  1.1840 -2.3500
14626TIP3    H265294   6.692   0.080   4.610  1.1075 -0.5337  2.6230
14627TIP3   OH265295   5.073   0.213  17.010  0.4269 -0.0793 -0.7051
14627TIP3    H165296   4.982   0.241  17.002 -0.4280 -2.5482 -0.4591
14627TIP3    H265297   5.081   0.185  17.102  1.2825 -0.3513 -0.8545
14628TIP3   OH265298   1.331   1.229  13.172  0.2344 -0.3136 -0.1848
14628TIP3    H165299   1.271   1.300  13.194  0.0824  0.0531 -1.7059
14628TIP3    H265300   1.407   1.244  13.228 -1.2221 -1.0452  2.1186
14629TIP3   OH265301   4.212   1.603   1.239 -0.2810 -0.1599 -0.1608
14629TIP3    H165302   4.276   1.616   1.309 -1.5395 -2.1976  1.4970
14629TIP3    H265303   4.132   1.647   1.272 -0.3274  0.6480 -1.2960
14630TIP3   OH265304   6.750   2.190   1.576 -0.2736  0.0283  0.0477
14630TIP3    H165305   6.713   2.205   1.663  0.7910  1.3072  0.3158
14630TIP3    H265306   6.698   2.118   1.540  0.0495 -1.3748  2.2064
14631TIP3   OH265307   2.083   6.657  12.794 -0.3164  0.4248 -0.0909
14631TIP3    H165308   2.174   6.684  12.805  0.2307 -0.5282 -1.8906
14631TIP3    H265309   2.066   6.667  12.701 -1.5034 -1.0871 -0.0788
14632TIP3   OH265310   5.423   1.624  16.276  0.3228 -0.1033  0.1232
14632TIP3    H165311   5.403   1.591  16.364 -1.9202 -1.4637 -0.8195
14632TIP3    H265312   5.424   1.545  16.221 -0.5946  0.9375 -1.4390
14633TIP3   OH265313   6.413   0.809   6.679 -0.0840  0.5986  0.6577
14633TIP3    H165314   6.384   0.817   6.588 -1.2687  0.7238  1.0327
14633TIP3    H265315   6.448   0.720   6.685 -0.6972  0.3207  0.2665
14634TIP3   OH265316   4.392   0.126  16.724 -0.0725 -0.2850  0.0553
14634TIP3    H165317   4.463   0.080  16.679  0.0166 -1.5465  1.4023
14634TIP3    H265318   4.381   0.078  16.806 -1.1767  1.0762  0.7420
14635TIP3   OH265319   2.893   3.606  13.899 -0.3655 -0.2965  0.5118
14635TIP3    H165320   2.945   3.526  13.893  0.0895 -0.0234  0.7351
14635TIP3    H265321   2.840   3.595  13.977  0.8901  0.2975  1.4827
14636TIP3   OH265322   5.009   2.325   4.281  0.0966 -0.8120 -0.1833
14636TIP3    H165323   4.978   2.245   4.324 -0.7167 -0.2417  0.3276
14636TIP3    H265324   4.965   2.325   4.196 -2.4092  0.5750  0.9716
14637TIP3   OH265325   6.086   4.771   0.114  0.4725  0.4960 -0.0252
14637TIP3    H165326   6.108   4.864   0.118 -2.8102  1.4350 -0.6474
14637TIP3    H265327   6.017   4.760   0.180  0.3678 -1.3511 -0.3972
14638TIP3   OH265328   3.106   1.903  15.188  0.4207 -0.2038  0.1442
14638TIP3    H165329   3.106   1.822  15.241 -0.9246 -1.1737 -1.2571
14638TIP3    H265330   3.033   1.891  15.127 -0.6615  2.6565  0.7309
14639TIP3   OH265331   1.832   6.675  12.952 -0.2398  0.3454 -0.4283
14639TIP3    H165332   1.833   6.696  13.045 -0.3477  1.4961 -0.6749
14639TIP3    H265333   1.924   6.677  12.926 -0.1214 -0.8972 -0.1643
14640TIP3   OH265334   0.567   1.431  13.450 -0.3723  0.1622 -0.7109
14640TIP3    H165335   0.658   1.445  13.478  0.6170  1.2488 -4.0032
14640TIP3    H265336   0.536   1.360  13.506  2.6268 -0.5129  0.3100
14641TIP3   OH265337   1.996   2.325   2.485 -0.3416 -0.0159  0.1470
14641TIP3    H165338   1.961   2.350   2.571  0.0552  0.3547  0.2013
14641TIP3    H265339   1.970   2.233   2.475 -2.6911  0.6426 -0.4820
14642TIP3   OH265340   6.020   5.844  12.652 -0.0990  0.3883  0.2047
14642TIP3    H165341   6.009   5.888  12.736 -2.1484 -2.6853  1.7302
14642TIP3    H265342   6.048   5.756  12.674  2.3271  0.2871 -2.6068
14643TIP3   OH265343   4.987   4.534   1.581 -0.5662  0.1520  0.2538
14643TIP3    H165344   5.073   4.535   1.538 -0.1137 -0.1525  1.1403
14643TIP3    H265345   4.927   4.568   1.514  0.1170 -0.3211 -0.6253
14644TIP3   OH265346   3.056   0.675  11.089 -0.5000 -0.0293 -0.2684
14644TIP3    H165347   3.012   0.750  11.050 -1.2814 -0.2568  0.1601
14644TIP3    H265348   3.007   0.599  11.055 -0.3996 -0.2868  0.1641
14645TIP3   OH265349   2.226   4.451  12.060 -0.3735 -0.5797  0.0405
14645TIP3    H165350   2.261   4.539  12.048 -0.6463 -0.5242 -0.3926
14645TIP3    H265351   2.301   4.399  12.090  0.0943 -0.4772 -0.9180
14646TIP3   OH265352   1.394   2.375   1.381  0.3490 -0.6356 -1.0405
14646TIP3    H165353   1.430   2.463   1.396  1.9219 -1.2932 -0.7840
14646TIP3    H265354   1.462   2.316   1.414 -2.0647 -1.9545  2.1251
14647TIP3   OH265355   2.893   3.464  11.953 -0.6063 -0.2610  0.0092
14647TIP3    H165356   2.891   3.386  12.008 -0.3577  0.8997  1.7745
14647TIP3    H265357   2.920   3.534  12.013 -0.5904  1.1375 -1.5592
14648TIP3   OH265358   6.311   4.356  13.011  0.0975  0.3097  0.4069
14648TIP3    H165359   6.399   4.320  13.001  0.4800  1.4547 -0.5753
14648TIP3    H265360   6.285   4.382  12.923 -2.4213 -2.5636  0.1073
14649TIP3   OH265361   5.708   3.140   4.392 -0.3468 -0.0115 -0.2893
14649TIP3    H165362   5.620   3.143   4.429  0.1121 -1.9221  1.0654
14649TIP3    H265363   5.752   3.216   4.429 -1.5542  1.3383 -1.4790
14650TIP3   OH265364   5.276   1.993   0.567 -0.2373 -0.3244 -0.2342
14650TIP3    H165365   5.228   2.023   0.645 -0.3037 -1.0818  0.0204
14650TIP3    H265366   5.347   2.057   0.557 -0.2117 -0.2336  0.4628
14651TIP3   OH265367   0.682   5.063   3.945  0.1038  0.6352 -0.2284
14651TIP3    H165368   0.740   5.020   4.008  1.2016  1.6389 -0.5359
14651TIP3    H265369   0.731   5.139   3.915 -1.6152  1.8690 -0.0494
14652TIP3   OH265370   0.674   6.499  15.068  1.0873  0.5009 -0.0726
14652TIP3    H165371   0.639   6.525  15.153  0.7652 -1.0794  0.3100
14652TIP3    H265372   0.600   6.511  15.007  1.0964  0.9375  0.0018
14653TIP3   OH265373   4.220   0.067  11.104  0.2237  0.4822  0.3316
14653TIP3    H165374   4.277   0.136  11.137  0.3016  1.1587 -1.1172
14653TIP3    H265375   4.138   0.078  11.152  1.1934 -0.3611  2.2800
14654TIP3   OH265376   5.765   0.697   2.148 -0.0090  0.1197  0.1918
14654TIP3    H165377   5.777   0.633   2.218  3.2375 -0.2046 -0.5247
14654TIP3    H265378   5.804   0.657   2.071 -2.3493  1.0095 -1.5644
14655TIP3   OH265379   3.304   4.931  15.247  0.2819  0.4840  0.1852
14655TIP3    H165380   3.336   5.007  15.199 -0.5052  2.8194  3.0764
14655TIP3    H265381   3.217   4.914  15.209 -0.1083  1.9123  0.3993
14656TIP3   OH265382   2.568   2.641  13.089 -0.2217 -0.5791 -0.6576
14656TIP3    H165383   2.662   2.638  13.108 -0.2214  0.3865 -0.4433
14656TIP3    H265384   2.539   2.550  13.094  0.5866 -0.8156 -0.1200
14657TIP3   OH265385   6.566   0.031  11.637 -0.0705 -0.0480  0.2553
14657TIP3    H165386   6.535   0.065  11.553 -1.0149  1.5458  1.1817
14657TIP3    H265387   6.518  -0.051  11.649 -0.2628 -0.0640 -0.5437
14658TIP3   OH265388   4.073   4.912  13.077  0.0358 -0.1871  0.0893
14658TIP3    H165389   3.998   4.878  13.127 -0.8520  0.4203 -0.8093
14658TIP3    H265390   4.055   5.005  13.067  0.8435 -0.0631 -0.2905
14659TIP3   OH265391   4.273   0.588  16.387  0.1327  0.2878  0.2888
14659TIP3    H165392   4.309   0.677  16.398 -0.2984  0.5581 -0.4554
14659TIP3    H265393   4.333   0.533  16.438  1.9561  0.6514 -1.3261
14660TIP3   OH265394   6.224   1.480   2.490 -0.0699 -0.2547  0.3116
14660TIP3    H165395   6.235   1.424   2.413 -2.0303 -1.7408  1.0411
14660TIP3    H265396   6.308   1.475   2.536  1.2113  0.8359 -1.7708
14661TIP3   OH265397   3.562   1.668   1.572 -0.2122  0.0908 -0.2701
14661TIP3    H165398   3.569   1.580   1.533 -3.3193 -0.0538 -0.6997
14661TIP3    H265399   3.587   1.655   1.664 -0.2764 -1.1646 -0.4104
14662TIP3   OH265400   4.014   5.481  12.233 -0.1198  0.6838 -0.4273
14662TIP3    H165401   4.025   5.573  12.210 -0.7368  0.7077 -0.6504
14662TIP3    H265402   3.996   5.437  12.149  2.0742  0.0326 -0.6202
14663TIP3   OH265403   6.361   3.490   4.251  0.3065  0.1829 -0.1660
14663TIP3    H165404   6.388   3.442   4.173 -1.7425  0.2568 -0.9771
14663TIP3    H265405   6.423   3.563   4.257 -1.9962  2.8928 -4.4304
14664TIP3   OH265406   4.350   2.254  15.761  0.2710 -0.0973  0.2005
14664TIP3    H165407   4.338   2.298  15.677  1.3852 -0.9302 -0.4163
14664TIP3    H265408   4.320   2.164  15.746 -0.0532 -0.1066  0.8586
14665TIP3   OH265409   3.590   4.719  15.449 -0.0917 -1.0180  0.2449
14665TIP3    H165410   3.527   4.784  15.482 -1.0857 -2.8343  2.1618
14665TIP3    H265411   3.536   4.651  15.410  0.6900 -2.2309  1.1977
14666TIP3   OH265412   4.136   0.175  13.362  0.0269  0.7699 -0.6368
14666TIP3    H165413   4.196   0.239  13.324  0.5847  0.8489  0.3314
14666TIP3    H265414   4.177   0.090  13.342  2.3558  0.8772  2.8412
14667TIP3   OH265415   2.037   3.122  16.133  0.6177 -0.1207  0.1839
14667TIP3    H165416   2.092   3.139  16.057  0.5469  0.8768  0.3497
14667TIP3    H265417   2.079   3.047  16.176  2.1321  0.8931  0.5601
14668TIP3   OH265418   6.188   4.816   2.273  0.1797 -0.2223 -0.3170
14668TIP3    H165419   6.212   4.838   2.363  1.2490 -1.2901 -0.3205
14668TIP3    H265420   6.111   4.761   2.282  0.6308 -0.8112 -0.0140
14669TIP3   OH265421   0.180   4.023   2.117  0.2524 -0.4011  0.1057
14669TIP3    H165422   0.094   3.979   2.116  1.1685 -2.3499  1.4031
14669TIP3    H265423   0.199   4.039   2.024 -0.2095 -2.7333 -0.4590
14670TIP3   OH265424   3.356   2.954  10.459 -0.0022 -0.3262  0.0378
14670TIP3    H165425   3.331   2.936  10.369  1.9235 -1.7749 -0.2834
14670TIP3    H265426   3.404   3.036  10.456  0.9583 -0.8897 -0.4670
14671TIP3   OH265427   6.184   6.767   5.464  0.2644  0.5735  0.0931
14671TIP3    H165428   6.184   6.732   5.553  1.5407  0.1035 -0.0655
14671TIP3    H265429   6.149   6.695   5.410  1.6682 -0.0465 -0.0592
14672TIP3   OH265430   6.196   1.060  11.645 -0.0174 -0.7170  0.1202
14672TIP3    H165431   6.196   1.041  11.738 -3.0129 -0.1865  0.3179
14672TIP3    H265432   6.150   1.143  11.637 -1.4628 -1.6204 -1.9278
14673TIP3   OH265433   1.295   3.542   1.763 -0.2425  0.0751 -0.1783
14673TIP3    H165434   1.372   3.497   1.797 -0.4915 -0.3097 -0.1096
14673TIP3    H265435   1.321   3.573   1.676  0.2716  0.7248  0.1997
14674TIP3   OH265436   4.617   1.208   3.713  0.2680 -0.1354  0.1016
14674TIP3    H165437   4.588   1.298   3.696  0.7310 -0.0002  0.0138
14674TIP3    H265438   4.713   1.213   3.714  0.3913 -0.9718 -1.9505
14675TIP3   OH265439   1.246   3.544  10.487 -0.3859  0.1851 -0.1991
14675TIP3    H165440   1.235   3.630  10.446  1.8637 -0.0007 -1.3137
14675TIP3    H265441   1.190   3.485  10.436 -2.1583  0.9571  0.7371
14676TIP3   OH265442   1.362   4.575  16.663  0.1811  0.4738  0.2021
14676TIP3    H165443   1.449   4.583  16.703  0.0702  1.5075  0.2506
14676TIP3    H265444   1.303   4.563  16.737  0.2004  0.4053  0.2074
14677TIP3   OH265445   0.422   3.610   3.708  0.2967 -0.4478 -0.2925
14677TIP3    H165446   0.394   3.702   3.702  1.2839 -0.1810 -1.0516
14677TIP3    H265447   0.395   3.583   3.797 -2.1631 -0.1945 -0.8772
14678TIP3   OH265448   6.377   3.631  10.735 -0.3697 -0.8826  0.1766
14678TIP3    H165449   6.316   3.578  10.787  0.4216 -0.7986  1.2356
14678TIP3    H265450   6.447   3.570  10.712  0.3810 -0.4081  1.1182
14679TIP3   OH265451   0.756   3.201  16.312 -0.5288  0.3791  0.1261
14679TIP3    H165452   0.738   3.168  16.224  1.6723 -0.2160 -0.1690
14679TIP3    H265453   0.686   3.165  16.366 -1.5584  0.2189 -1.2640
14680TIP3   OH265454   3.055   6.430   3.912  0.0522 -0.2531  0.2720
14680TIP3    H165455   3.073   6.515   3.872 -0.4016  0.5416  1.6909
14680TIP3    H265456   3.004   6.383   3.847 -1.1168  1.1975  0.0906
14681TIP3   OH265457   1.307   5.636   3.774 -0.1927  0.1395 -0.5390
14681TIP3    H165458   1.365   5.621   3.849 -0.7570  0.8768  0.0552
14681TIP3    H265459   1.249   5.560   3.774 -0.8235  0.5947  0.3826
14682TIP3   OH265460   6.791   6.004  11.351 -0.3248  0.0318  0.6236
14682TIP3    H165461   6.719   6.067  11.358  0.3761  0.8830  0.3807
14682TIP3    H265462   6.851   6.043  11.287  0.4918 -0.5157  1.0358
14683TIP3   OH265463   1.236   3.501  13.267  0.6279  0.6071  0.0304
14683TIP3    H165464   1.270   3.531  13.351 -0.5487  0.3586  0.6227
14683TIP3    H265465   1.285   3.421  13.249  1.4741  1.1155  0.0684
14684TIP3   OH265466   5.365   6.179  10.526 -0.2379  0.0981 -0.1041
14684TIP3    H165467   5.349   6.137  10.442 -0.4150 -0.5179  0.2323
14684TIP3    H265468   5.450   6.222  10.516 -0.7665  0.9829 -0.9583
14685TIP3   OH265469   1.671   3.092  16.500  0.4461  0.3561  0.1636
14685TIP3    H165470   1.757   3.122  16.471  0.9080 -0.0134  1.0788
14685TIP3    H265471   1.616   3.170  16.497  1.1113  0.8650  0.6272
14686TIP3   OH265472   1.603   0.549   1.803 -0.4582  0.2309 -0.1028
14686TIP3    H165473   1.652   0.578   1.880  0.1278  0.3953 -0.5276
14686TIP3    H265474   1.536   0.490   1.838  0.7346 -0.8853  0.3857
14687TIP3   OH265475   0.455   0.567  15.195 -0.7856 -0.8652  0.1186
14687TIP3    H165476   0.526   0.626  15.168 -0.7665 -1.6564 -1.7089
14687TIP3    H265477   0.375   0.615  15.175 -0.7927 -0.1266  1.8202
14688TIP3   OH265478   2.756   0.710  13.124  0.6829  0.1325 -0.1421
14688TIP3    H165479   2.688   0.656  13.083  0.2588  1.1563 -0.8265
14688TIP3    H265480   2.836   0.660  13.114  0.7478  0.6760 -2.9842
14689TIP3   OH265481   4.232   5.543  15.774 -0.3094 -0.0157 -0.2777
14689TIP3    H165482   4.319   5.527  15.810  0.2892  0.6089 -1.3794
14689TIP3    H265483   4.174   5.544  15.850  0.6891 -0.1412  0.5014
14690TIP3   OH265484   5.013   2.640  11.478 -0.0409 -0.4298  0.0488
14690TIP3    H165485   5.050   2.715  11.431  2.0483  0.1370  2.3590
14690TIP3    H265486   4.930   2.672  11.512  0.0318  0.2825 -0.4166
14691TIP3   OH265487   0.037   3.694   4.189  0.1265  0.9825  0.0627
14691TIP3    H165488   0.012   3.609   4.227 -1.0938  0.4448 -1.7810
14691TIP3    H265489   0.094   3.671   4.116  2.8291  2.0174  1.7102
14692TIP3   OH265490   6.458   4.594  14.111 -0.8704  0.4191 -0.0706
14692TIP3    H165491   6.403   4.655  14.063  0.9547  1.2908 -1.1789
14692TIP3    H265492   6.422   4.508  14.091 -1.1726  0.8840 -1.6860
14693TIP3   OH265493   4.561   6.051   0.096  0.7231 -0.5779  0.8540
14693TIP3    H165494   4.478   6.035   0.051 -0.0662 -1.1485  2.4419
14693TIP3    H265495   4.625   6.000   0.046 -0.0837 -1.0700  0.2911
14694TIP3   OH265496   1.752   2.734  16.109 -0.0593  0.0694 -0.5772
14694TIP3    H165497   1.750   2.694  16.022  2.0504  0.9173 -1.0641
14694TIP3    H265498   1.718   2.822  16.096 -1.7850 -0.4818 -0.0864
14695TIP3   OH265499   5.541   4.484   4.657  0.5702 -0.0650 -0.3073
14695TIP3    H165500   5.513   4.403   4.613 -2.7719  0.5487  0.4380
14695TIP3    H265501   5.601   4.525   4.594  0.7029 -2.0892 -1.6051
14696TIP3   OH265502   4.255   6.740  14.063  0.1283 -0.1710 -0.2648
14696TIP3    H165503   4.173   6.712  14.021  0.4008 -0.0519 -0.9010
14696TIP3    H265504   4.317   6.745  13.990  0.7516 -0.4510  0.2444
14697TIP3   OH265505   3.802   3.992   3.142 -0.2872  0.4747 -0.4399
14697TIP3    H165506   3.817   4.086   3.138 -0.5912  0.5093 -0.8865
14697TIP3    H265507   3.707   3.983   3.133 -0.3576  0.1741  0.5160
14698TIP3   OH265508   2.834   1.583  16.962 -0.6296  0.2656 -0.4425
14698TIP3    H165509   2.769   1.558  16.896 -0.0539  1.8515 -1.6609
14698TIP3    H265510   2.830   1.679  16.965  0.3621  0.2945  0.8087
14699TIP3   OH265511   4.467   3.317   2.228  0.0855  0.0260  0.7167
14699TIP3    H165512   4.514   3.362   2.297  1.9780 -0.8475  0.0822
14699TIP3    H265513   4.502   3.354   2.147 -2.3971  1.3414  0.1606
14700TIP3   OH265514   2.728   2.805   2.311  0.0541  0.0585  0.3832
14700TIP3    H165515   2.729   2.733   2.248 -0.1784 -1.1000  1.6517
14700TIP3    H265516   2.820   2.831   2.319  0.1972 -0.3822  0.2215
14701TIP3   OH265517   1.552   2.251   0.511 -0.4826  0.4091  0.3872
14701TIP3    H165518   1.504   2.308   0.451 -0.3754 -1.0326 -1.1559
14701TIP3    H265519   1.485   2.215   0.569 -1.6094 -2.2786 -2.3056
14702TIP3   OH265520   2.565   2.976  14.875 -0.0181  0.0047  0.4745
14702TIP3    H165521   2.598   3.046  14.931  1.1844 -0.7415  0.7339
14702TIP3    H265522   2.588   2.895  14.922 -1.1793 -0.5757  0.0816
14703TIP3   OH265523   0.676   5.632   1.990 -0.1059 -0.2944 -0.5027
14703TIP3    H165524   0.608   5.621   2.056 -0.3278 -3.3455 -1.0842
14703TIP3    H265525   0.647   5.579   1.916  0.9741  1.6350 -2.4097
14704TIP3   OH265526   5.818   2.286  15.483 -0.3165  0.6241 -0.3729
14704TIP3    H165527   5.854   2.372  15.458  0.3074  0.5486  0.2503
14704TIP3    H265528   5.873   2.223  15.436  0.6997  0.4902  0.9599
14705TIP3   OH265529   4.888   3.131   5.483 -0.4110  0.1911  0.5171
14705TIP3    H165530   4.953   3.181   5.533 -2.2727  0.3839  2.9366
14705TIP3    H265531   4.850   3.194   5.423 -0.0368  0.6837  0.7884
14706TIP3   OH265532   1.573   0.313   1.474 -0.3588  0.3157  0.0043
14706TIP3    H165533   1.477   0.314   1.465 -0.2307  0.3587 -1.7946
14706TIP3    H265534   1.593   0.223   1.500 -0.7843 -0.3284 -1.7287
14707TIP3   OH265535   0.745   0.270  16.204 -0.4466 -0.0031  0.2483
14707TIP3    H165536   0.665   0.320  16.191  0.7387  1.5272 -1.6528
14707TIP3    H265537   0.788   0.271  16.119  0.9232 -2.0312  0.8437
14708TIP3   OH265538   1.678   5.521   2.234 -0.0654 -0.0145 -0.3815
14708TIP3    H165539   1.729   5.516   2.314 -0.5323 -2.8252 -0.1697
14708TIP3    H265540   1.592   5.554   2.262 -0.1899 -0.8718  0.2642
14709TIP3   OH265541   4.870   5.176  13.866  0.6624 -0.3313 -0.1166
14709TIP3    H165542   4.876   5.213  13.954  0.2469  1.6876 -0.8919
14709TIP3    H265543   4.953   5.200  13.824  0.5060 -0.5542 -0.5626
14710TIP3   OH265544   6.150   4.479  11.046 -0.1296 -0.4531 -0.5563
14710TIP3    H165545   6.087   4.520  10.987 -1.3701 -0.2899  0.7951
14710TIP3    H265546   6.235   4.503  11.012 -0.8107  0.1918 -1.8721
14711TIP3   OH265547   3.396   6.103   4.725 -0.1854  0.0442 -0.3632
14711TIP3    H165548   3.307   6.111   4.689 -0.6821 -1.5053  0.4417
14711TIP3    H265549   3.389   6.140   4.813  0.8162  2.9928 -1.3916
14712TIP3   OH265550   4.744   3.577  14.498 -0.8427  0.5872  0.0568
14712TIP3    H165551   4.656   3.608  14.517 -1.4504 -0.7380 -0.5111
14712TIP3    H265552   4.801   3.646  14.531 -2.0405  0.9492  1.4492
14713TIP3   OH265553   1.778   6.681  11.565  0.2980  0.5110 -0.3529
14713TIP3    H165554   1.805   6.672  11.473 -2.7211  2.7733 -1.6531
14713TIP3    H265555   1.725   6.604  11.582  2.3403 -0.8562  0.2158
14714TIP3   OH265556   2.549   0.423  14.030  0.2986 -0.5254  0.4476
14714TIP3    H165557   2.553   0.510  14.069 -0.0318 -0.1344 -0.3637
14714TIP3    H265558   2.554   0.438  13.935  0.2758 -1.3899  0.2946
14715TIP3   OH265559   4.156   3.940   4.840 -0.3123  0.3635  0.5873
14715TIP3    H165560   4.150   3.991   4.921  0.4082  1.3037  0.0673
14715TIP3    H265561   4.146   3.849   4.868 -1.0401  0.7368  1.6059
14716TIP3   OH265562   0.662   5.836  14.023  0.5446  0.0451 -0.2056
14716TIP3    H165563   0.609   5.833  14.103 -0.6005 -0.3454 -0.9513
14716TIP3    H265564   0.686   5.745  14.006 -0.6062 -0.1047 -1.1779
14717TIP3   OH265565   1.812   3.439   4.241  0.1735 -0.2045 -0.7255
14717TIP3    H165566   1.875   3.414   4.174  1.1910  2.3899 -0.8411
14717TIP3    H265567   1.861   3.436   4.323  0.2505  1.0430 -0.7122
14718TIP3   OH265568   6.815   6.328  11.588  0.1088  0.2040 -0.1351
14718TIP3    H165569   6.865   6.247  11.582 -0.5511 -0.2845  0.6870
14718TIP3    H265570   6.859   6.379  11.656  0.1435  0.2567 -0.1973
14719TIP3   OH265571   3.243   1.375  14.779 -0.4946 -0.1984 -0.6795
14719TIP3    H165572   3.181   1.369  14.707 -0.2444  0.0548 -0.9201
14719TIP3    H265573   3.190   1.361  14.858 -0.8461 -0.0359 -0.8837
14720TIP3   OH265574   2.162   5.972   4.901  0.3971  1.0338  0.1073
14720TIP3    H165575   2.221   5.985   4.976  0.8468  1.0017 -0.2347
14720TIP3    H265576   2.080   5.943   4.940  1.1806 -0.8146  0.4736
14721TIP3   OH265577   1.709   3.655  10.603 -0.4458 -0.3053  0.3155
14721TIP3    H165578   1.685   3.714  10.531 -0.4715  0.7492  1.1695
14721TIP3    H265579   1.637   3.592  10.606  0.8637 -2.1534 -2.3758
14722TIP3   OH265580   3.918   5.011   3.974 -0.3697  0.5384 -0.2569
14722TIP3    H165581   4.013   5.007   3.988 -0.4459  0.8778  0.3900
14722TIP3    H265582   3.883   4.940   4.027 -0.5994  1.3900  0.7689
14723TIP3   OH265583   2.223   5.640   5.129 -0.4067 -0.4994 -0.0149
14723TIP3    H165584   2.269   5.601   5.204 -1.0766  0.8869  1.1868
14723TIP3    H265585   2.132   5.646   5.158 -0.3302  1.9150 -0.1072
14724TIP3   OH265586   6.225   5.447  11.988 -1.3106  0.2301 -0.6818
14724TIP3    H165587   6.292   5.381  11.976 -2.8597 -1.5825  0.2129
14724TIP3    H265588   6.179   5.449  11.904 -0.1812  1.5030 -1.3093
14725TIP3   OH265589   2.748   5.570  11.215  0.4338  0.2845  0.7694
14725TIP3    H165590   2.676   5.630  11.234  0.3951  0.7112 -0.5723
14725TIP3    H265591   2.759   5.576  11.120  1.7650 -0.3190  0.8617
14726TIP3   OH265592   4.347   5.534   0.765 -0.1582  0.1579  0.2744
14726TIP3    H165593   4.298   5.453   0.784 -0.8242  0.8168  1.5056
14726TIP3    H265594   4.325   5.554   0.674 -1.8367  0.1586  0.6381
14727TIP3   OH265595   0.457   1.527   2.872  0.1424  0.2078 -0.3401
14727TIP3    H165596   0.479   1.453   2.928  0.5035  0.4760 -0.1191
14727TIP3    H265597   0.537   1.579   2.869  0.1244  0.2060 -1.0947
14728TIP3   OH265598   6.147   4.383  13.472  0.4035  0.0057 -0.2865
14728TIP3    H165599   6.084   4.452  13.450 -0.1049  0.0346  1.1872
14728TIP3    H265600   6.169   4.343  13.388 -0.9842  0.5030 -0.9118
14729TIP3   OH265601   4.350   1.522   2.268 -0.1237  0.3284 -0.2106
14729TIP3    H165602   4.437   1.480   2.264 -0.3307 -0.0498 -0.9964
14729TIP3    H265603   4.362   1.595   2.329  0.5820 -0.0996  0.1912
14730TIP3   OH265604   5.358   0.225   4.304  0.5211  0.2341  0.2238
14730TIP3    H165605   5.301   0.243   4.379  0.8529 -0.8199  0.7433
14730TIP3    H265606   5.429   0.289   4.312 -0.0106  0.8312  0.1953
14731TIP3   OH265607   3.083   0.165   1.834 -0.9656 -0.4585  0.3513
14731TIP3    H165608   3.170   0.129   1.854 -0.9309  0.3300  1.8034
14731TIP3    H265609   3.098   0.222   1.758 -0.4081 -1.0870 -0.0193
14732TIP3   OH265610   4.821   4.416  13.156 -0.1378  0.7912  0.4803
14732TIP3    H165611   4.800   4.326  13.181 -0.3144  0.9111  0.7760
14732TIP3    H265612   4.787   4.425  13.067  0.9020  0.2176  0.0101
14733TIP3   OH265613   0.713   1.664  10.756  0.1453 -0.5157 -0.0372
14733TIP3    H165614   0.660   1.604  10.702  0.2421 -0.2673 -0.4136
14733TIP3    H265615   0.784   1.690  10.698 -1.3896  2.1731 -0.8855
14734TIP3   OH265616   6.697   2.021  13.388  0.1831  0.4226 -0.8709
14734TIP3    H165617   6.615   2.022  13.339 -0.5351  0.1545  0.2728
14734TIP3    H265618   6.731   2.110  13.382 -1.3894  1.1682  0.5326
14735TIP3   OH265619   5.311   4.381  12.215  0.3582 -0.5136 -0.6570
14735TIP3    H165620   5.327   4.324  12.140  1.2764 -1.1229 -0.0106
14735TIP3    H265621   5.330   4.327  12.291  1.2585  0.6518 -0.0177
14736TIP3   OH265622   1.403   2.938  12.205  0.0374  0.1461 -0.1663
14736TIP3    H165623   1.497   2.949  12.190 -0.3171  1.1495 -1.9132
14736TIP3    H265624   1.396   2.920  12.299  2.0726 -1.5275 -0.2708
14737TIP3   OH265625   5.112   0.880  14.651 -0.2990 -0.6990  0.6853
14737TIP3    H165626   5.189   0.848  14.604  0.4324  2.2996 -0.3591
14737TIP3    H265627   5.040   0.864  14.591 -0.3794 -2.3977  1.1632
14738TIP3   OH265628   0.332   5.927   2.736  0.4541  0.1799 -0.0750
14738TIP3    H165629   0.256   5.936   2.679 -0.2342  0.2732  0.8468
14738TIP3    H265630   0.356   5.835   2.729  1.0311  0.4028 -1.3206
14739TIP3   OH265631   3.085   6.307   6.353  0.3553 -0.2695  0.9915
14739TIP3    H165632   3.005   6.317   6.405  0.3908  0.8186  0.8450
14739TIP3    H265633   3.075   6.369   6.281  0.5218 -1.4272 -0.0612
14740TIP3   OH265634   5.936   4.941  13.341 -0.0871 -0.5067 -0.0518
14740TIP3    H165635   5.861   4.960  13.397  1.1457 -0.8219  1.8243
14740TIP3    H265636   5.991   4.882  13.394  0.9330 -1.2253 -1.8089
14741TIP3   OH265637   3.582   1.581  12.470  0.0107 -0.1531  0.5017
14741TIP3    H165638   3.546   1.511  12.414 -3.2406  1.0336  0.8669
14741TIP3    H265639   3.612   1.648  12.409  1.1915 -0.9608  0.1736
14742TIP3   OH265640   2.509   4.607  13.764 -0.8827 -0.1659 -0.1933
14742TIP3    H165641   2.450   4.532  13.765 -1.1989  0.0279 -1.6316
14742TIP3    H265642   2.501   4.646  13.851 -0.4427 -1.9863  0.6941
14743TIP3   OH265643   6.168   4.458  15.232  0.1712 -0.1428 -0.2051
14743TIP3    H165644   6.101   4.520  15.261  0.2195 -0.6407  1.0349
14743TIP3    H265645   6.225   4.447  15.308 -0.0647 -2.0050 -0.2517
14744TIP3   OH265646   4.250   1.036  12.762  0.2327 -0.5246 -0.3549
14744TIP3    H165647   4.252   1.034  12.667 -0.8172  1.6154 -0.4684
14744TIP3    H265648   4.172   1.087  12.784 -0.4841 -2.3110  1.7043
14745TIP3   OH265649   2.828   2.612   0.424 -0.8278  0.2658  0.5988
14745TIP3    H165650   2.820   2.518   0.409  0.0846  0.4144 -1.0137
14745TIP3    H265651   2.800   2.624   0.515  0.2633 -1.7216  1.2548
14746TIP3   OH265652   5.789   1.383   1.846 -0.2892 -0.0929 -0.3792
14746TIP3    H165653   5.861   1.342   1.895 -0.0737  0.9913  0.2351
14746TIP3    H265654   5.766   1.318   1.779  0.2857 -1.0547  0.3311
14747TIP3   OH265655   6.646   4.729   5.994  0.5004 -0.0846  0.3711
14747TIP3    H165656   6.669   4.729   5.901 -1.8160  0.3689 -0.2859
14747TIP3    H265657   6.703   4.795   6.033  0.6139  0.6873 -1.0220
14748TIP3   OH265658   6.627   5.429  16.133 -0.0921 -0.2199 -0.2981
14748TIP3    H165659   6.706   5.459  16.177 -0.6591  1.2497 -0.2363
14748TIP3    H265660   6.598   5.503  16.080  1.0593 -2.1490 -3.9773
14749TIP3   OH265661   1.765   3.842  14.882 -0.0057  0.1347  0.4372
14749TIP3    H165662   1.806   3.824  14.797 -0.2126  1.5153  0.0245
14749TIP3    H265663   1.836   3.877  14.936 -0.5002  2.3202 -0.2104
14750TIP3   OH265664   4.104   2.060  12.105 -0.4910  0.4835  0.0947
14750TIP3    H165665   4.119   2.063  12.010  1.1065 -2.0972  0.1615
14750TIP3    H265666   4.122   2.149  12.135 -0.3270  1.1920 -1.9274
14751TIP3   OH265667   6.176   1.735   3.351 -0.0294  0.0039 -0.0786
14751TIP3    H165668   6.182   1.659   3.293  1.9266  0.7016 -0.8706
14751TIP3    H265669   6.151   1.699   3.436  0.1175 -1.4232 -0.6199
14752TIP3   OH265670   2.583   3.019   4.251 -0.3264 -0.4303  0.6042
14752TIP3    H165671   2.507   2.962   4.240  1.0949 -2.2082 -0.5536
14752TIP3    H265672   2.651   2.962   4.287  0.6805  0.9604  1.0057
14753TIP3   OH265673   0.693   4.417   5.209 -0.2868  0.1922 -0.2999
14753TIP3    H165674   0.663   4.496   5.166 -0.8229 -0.4508 -1.1381
14753TIP3    H265675   0.780   4.400   5.172  0.5002  1.1987  0.9927
14754TIP3   OH265676   5.909   3.492   4.005 -0.2427  0.4031 -0.2113
14754TIP3    H165677   5.952   3.539   3.934 -1.4636  0.7945 -0.7228
14754TIP3    H265678   5.934   3.400   3.992 -1.1793  0.3193 -1.7290
14755TIP3   OH265679   2.005   4.376  15.059 -0.4396  0.1335  0.4836
14755TIP3    H165680   1.938   4.379  15.127  0.4466  1.6073  1.3353
14755TIP3    H265681   2.046   4.290  15.070 -1.5001 -0.3678  0.6113
14756TIP3   OH265682   5.770   2.850   3.775 -0.5165 -0.0495  0.3297
14756TIP3    H165683   5.756   2.851   3.680 -4.2697  0.6302  0.7490
14756TIP3    H265684   5.760   2.941   3.802 -0.2934 -0.3503  1.4600
14757TIP3   OH265685   6.400   3.302  16.269 -0.2731 -0.1739  0.9210
14757TIP3    H165686   6.442   3.296  16.354 -0.4337  0.9509  1.1039
14757TIP3    H265687   6.387   3.396  16.256 -0.2644 -0.3294 -0.3370
14758TIP3   OH265688   2.804   1.502   1.028 -0.1777 -0.1392 -0.7657
14758TIP3    H165689   2.846   1.416   1.024 -1.2186 -0.7618  0.7236
14758TIP3    H265690   2.753   1.500   1.109 -2.7007  0.7097 -2.2061
14759TIP3   OH265691   0.534   1.818   2.439 -0.0415 -0.3454 -0.1879
14759TIP3    H165692   0.567   1.734   2.407  1.7833  0.5101 -0.6471
14759TIP3    H265693   0.483   1.795   2.517  2.6798 -1.6816  1.3332
14760TIP3   OH265694   0.598   2.311  12.929  0.2628  0.3846 -0.4288
14760TIP3    H165695   0.690   2.307  12.904  0.0564 -0.1294 -1.1263
14760TIP3    H265696   0.588   2.241  12.994  0.2717  0.1628 -0.6653
14761TIP3   OH265697   6.076   0.881  13.024 -0.0254 -0.4911  0.1836
14761TIP3    H165698   6.140   0.913  12.961  1.0853 -2.0132  0.4932
14761TIP3    H265699   6.002   0.943  13.017  0.9409  0.5675 -1.0668
14762TIP3   OH265700   4.428   4.343   1.684 -0.0771 -0.7418 -0.6996
14762TIP3    H165701   4.340   4.377   1.665 -0.2620 -0.2974  0.8469
14762TIP3    H265702   4.477   4.356   1.603 -1.3868 -0.8486 -1.5341
14763TIP3   OH265703   2.256   0.106   5.129 -0.6240  0.7142 -0.1526
14763TIP3    H165704   2.222   0.018   5.143 -1.5490  1.1825  0.6366
14763TIP3    H265705   2.293   0.103   5.040 -1.9744 -0.0519 -0.7221
14764TIP3   OH265706   0.208   3.921  14.772 -0.9294  0.3290  0.0497
14764TIP3    H165707   0.160   3.950  14.850 -0.6678 -0.2865  0.4505
14764TIP3    H265708   0.167   3.837  14.750  0.4580 -0.5850  0.8539
14765TIP3   OH265709   5.750   6.173   3.905 -0.0699 -0.2336 -0.0251
14765TIP3    H165710   5.833   6.141   3.942 -0.5777  1.4394  2.8476
14765TIP3    H265711   5.755   6.268   3.915 -2.0916 -0.0624 -0.3583
14766TIP3   OH265712   1.274   3.483  13.713  0.2997 -0.2433  0.2536
14766TIP3    H165713   1.337   3.535  13.664  0.7963 -2.0452 -1.1187
14766TIP3    H265714   1.320   3.401  13.732 -1.7562 -1.8441 -1.2562
14767TIP3   OH265715   5.476   6.051   3.058  0.3329  0.0076 -0.2948
14767TIP3    H165716   5.438   6.004   3.133 -0.9264  1.5769  0.1239
14767TIP3    H265717   5.449   6.142   3.072  2.5495  0.8466 -1.1436
14768TIP3   OH265718   5.791   0.122   3.013  0.5564  0.2878 -0.1588
14768TIP3    H165719   5.820   0.107   2.923 -0.0952  0.2833 -0.3721
14768TIP3    H265720   5.697   0.137   3.005  0.7636  2.0768  0.3069
14769TIP3   OH265721   3.457   4.731  12.608  0.3560  0.1029  0.1939
14769TIP3    H165722   3.494   4.713  12.694 -1.2061 -0.7963  0.7251
14769TIP3    H265723   3.491   4.660  12.552  1.4231  0.7249  0.0304
14770TIP3   OH265724   1.110   0.524   1.524  0.3974  0.3203 -0.0664
14770TIP3    H165725   1.044   0.557   1.463  1.3574 -0.4582 -1.5838
14770TIP3    H265726   1.149   0.602   1.561 -0.8452  0.7991  0.2887
14771TIP3   OH265727   6.324   1.086  14.299  0.2113  0.0698  0.4336
14771TIP3    H165728   6.379   1.075  14.376  1.2653  0.7475 -0.1996
14771TIP3    H265729   6.242   1.122  14.333  0.4487 -0.1822  1.2948
14772TIP3   OH265730   5.076   1.544  15.393  0.9040 -0.0959  0.0401
14772TIP3    H165731   5.039   1.574  15.309 -0.6766 -0.6159  0.5110
14772TIP3    H265732   5.066   1.619  15.452  1.9885  0.2595 -0.2084
14773TIP3   OH265733   3.835   3.737  15.849 -0.8130  0.0935 -0.6549
14773TIP3    H165734   3.836   3.720  15.755 -1.4469 -0.0103 -0.6441
14773TIP3    H265735   3.917   3.785  15.865 -0.5242 -0.2046 -1.1935
14774TIP3   OH265736   5.936   6.524  13.666  0.1078  0.2933  0.0030
14774TIP3    H165737   5.938   6.614  13.636  0.7825  0.2006 -0.2528
14774TIP3    H265738   5.844   6.498  13.661  0.0772  0.5794 -1.0905
14775TIP3   OH265739   2.193   4.461   3.775 -0.4275 -0.2817 -0.2039
14775TIP3    H165740   2.141   4.486   3.698  0.1117  1.3856 -0.0790
14775TIP3    H265741   2.281   4.449   3.740 -0.2743  0.0306  0.0707
14776TIP3   OH265742   2.282   2.955   5.859  0.5914 -0.3143 -0.3581
14776TIP3    H165743   2.244   3.028   5.909 -0.9989 -1.2874 -0.0704
14776TIP3    H265744   2.217   2.937   5.791 -0.0411 -2.7393  0.7901
14777TIP3   OH265745   5.037   0.933  10.937 -0.3820  0.8343  0.1556
14777TIP3    H165746   5.120   0.968  10.905  0.2240  2.5155  3.1808
14777TIP3    H265747   4.973   1.002  10.920 -1.1149 -0.1728 -1.5158
14778TIP3   OH265748   5.230   1.654  12.319 -0.7325  0.2549  0.2532
14778TIP3    H165749   5.155   1.676  12.374  0.4006 -1.0029  2.4515
14778TIP3    H265750   5.277   1.587  12.369  2.3029  1.5794 -0.5977
14779TIP3   OH265751   1.490   2.277  16.684 -0.5276 -0.0518  0.0217
14779TIP3    H165752   1.453   2.239  16.764  0.8970 -0.1810  0.6326
14779TIP3    H265753   1.473   2.212  16.616 -3.0015  0.6443 -0.1459
14780TIP3   OH265754   5.956   2.764   3.476 -0.0644 -0.1586 -0.4763
14780TIP3    H165755   5.887   2.698   3.485  0.6933 -0.7769  1.3597
14780TIP3    H265756   5.923   2.840   3.524  0.4284 -0.3947  0.2544
14781TIP3   OH265757   2.466   6.494  16.295  0.5538 -0.7918 -0.2770
14781TIP3    H165758   2.532   6.429  16.320  1.3090  0.0843  0.0321
14781TIP3    H265759   2.456   6.482  16.200  0.5808 -1.4486 -0.2035
14782TIP3   OH265760   3.244   5.735   0.878  0.6396 -0.4440 -0.0359
14782TIP3    H165761   3.290   5.809   0.839  0.9730 -0.6300  0.0018
14782TIP3    H265762   3.251   5.665   0.814 -1.1878  0.0581 -0.8634
14783TIP3   OH265763   3.612   6.426   2.420  0.3087  0.4220  0.5564
14783TIP3    H165764   3.606   6.447   2.513 -0.1678  1.2330  0.3506
14783TIP3    H265765   3.666   6.496   2.383 -1.7710  1.7093 -0.2362
14784TIP3   OH265766   5.494   1.068   4.472 -0.1805  0.2368 -0.2998
14784TIP3    H165767   5.481   1.088   4.380  3.9683  1.7047 -0.7834
14784TIP3    H265768   5.470   1.149   4.518 -0.3252  0.1952 -0.3014
14785TIP3   OH265769   5.142   4.221  10.287 -0.3969 -0.6725 -0.4871
14785TIP3    H165770   5.128   4.244  10.379 -0.7911 -1.9366 -0.2075
14785TIP3    H265771   5.056   4.193  10.256  0.2761 -3.1573 -0.3427
14786TIP3   OH265772   5.318   0.681  14.915  0.1531 -0.2000  0.1520
14786TIP3    H165773   5.233   0.656  14.878 -0.6704  3.6724 -1.1026
14786TIP3    H265774   5.295   0.725  14.997  1.1820 -0.9090  0.8350
14787TIP3   OH265775   4.715   4.079  13.529  0.1155  0.1455 -0.3816
14787TIP3    H165776   4.772   4.082  13.605 -1.5039  1.0361  0.8693
14787TIP3    H265777   4.671   3.995  13.535 -0.8305  0.6692  0.3420
14788TIP3   OH265778   0.120   0.323  13.137  0.3593  0.0858  0.0086
14788TIP3    H165779   0.072   0.262  13.193 -1.2580  2.4921  1.4292
14788TIP3    H265780   0.061   0.339  13.063  0.3356  0.6257  0.1368
14789TIP3   OH265781   2.775   5.314  14.954 -0.6319 -0.1363 -0.0326
14789TIP3    H165782   2.769   5.385  15.017  0.2659  1.1107 -1.2655
14789TIP3    H265783   2.722   5.243  14.990  0.9697 -0.0330  2.8003
14790TIP3   OH265784   1.488   2.058   1.691  0.6765  0.5775 -0.1611
14790TIP3    H165785   1.488   2.059   1.786 -2.8009  3.2191 -0.0059
14790TIP3    H265786   1.400   2.030   1.667  1.6089 -0.5763 -2.7036
14791TIP3   OH265787   1.954   2.852  11.322 -0.0652 -0.5449 -0.4868
14791TIP3    H165788   1.861   2.830  11.322  0.0181 -1.1224  1.4337
14791TIP3    H265789   1.957   2.947  11.318 -0.8624 -0.3806  1.7371
14792TIP3   OH265790   0.831   4.946   0.011 -0.1296 -0.2742 -0.4255
14792TIP3    H165791   0.836   4.976   0.102  1.1463  1.1021 -0.9112
14792TIP3    H265792   0.883   5.009  -0.038  0.2854 -1.7169 -1.9419
14793TIP3   OH265793   0.500   1.746  11.634 -0.1858  0.1236  0.3270
14793TIP3    H165794   0.511   1.729  11.727 -1.2679  2.5349  0.9824
14793TIP3    H265795   0.560   1.819  11.616  0.4379 -0.6881 -1.0306
14794TIP3   OH265796   1.034   1.730  12.932  0.1255 -1.3416  0.3919
14794TIP3    H165797   1.075   1.801  12.883  2.6941 -2.2775  1.0501
14794TIP3    H265798   0.940   1.744  12.920  0.5345  1.8226  0.0538
14795TIP3   OH265799   4.960   2.700  13.489  0.6831  0.5338 -0.4179
14795TIP3    H165800   4.962   2.748  13.406  0.3678  2.2395  0.4924
14795TIP3    H265801   4.891   2.743  13.539  0.2738 -1.0296  0.4181
14796TIP3   OH265802   3.588   5.404   3.275 -0.1266 -0.4860  0.1600
14796TIP3    H165803   3.563   5.456   3.352  0.1862  1.4080 -0.9811
14796TIP3    H265804   3.650   5.459   3.227 -1.3452 -1.0200 -2.1719
14797TIP3   OH265805   5.311   5.736   2.153  0.4435 -0.0550 -0.0046
14797TIP3    H165806   5.302   5.670   2.221  3.3728  0.3383  0.8842
14797TIP3    H265807   5.368   5.802   2.191 -0.6449  1.9604 -1.6418
14798TIP3   OH265808   6.115   5.896   3.832  0.0038  0.3068  0.3189
14798TIP3    H165809   6.189   5.839   3.811 -2.2425 -2.5273 -0.5109
14798TIP3    H265810   6.086   5.868   3.918 -1.2135  0.0820 -0.1439
14799TIP3   OH265811   0.659   2.572   3.338 -0.1288 -0.2042  0.6672
14799TIP3    H165812   0.618   2.495   3.300  1.0345 -0.9091  0.7922
14799TIP3    H265813   0.589   2.614   3.388 -0.6930 -1.3592  0.8833
14800TIP3   OH265814   1.670   3.053  13.010 -0.0353  0.0072  0.5296
14800TIP3    H165815   1.638   2.995  13.079  1.1154 -1.8097 -0.3790
14800TIP3    H265816   1.594   3.067  12.954 -0.5447  0.1149  1.2239
14801TIP3   OH265817   3.192   0.391  11.848 -0.1938  0.4450  0.5922
14801TIP3    H165818   3.108   0.362  11.885 -0.8791  1.7090  0.1199
14801TIP3    H265819   3.196   0.484  11.871  0.4307  0.7174 -0.5639
14802TIP3   OH265820   0.796   3.395  14.385  0.1013  0.0076  0.0504
14802TIP3    H165821   0.704   3.378  14.365  0.6680 -0.3222 -2.6185
14802TIP3    H265822   0.794   3.456  14.458 -2.2166 -0.3095  0.3233
14803TIP3   OH265823   6.369   1.846  11.617  0.1083 -0.4905  0.5436
14803TIP3    H165824   6.382   1.834  11.523  0.6451  2.4009  0.1517
14803TIP3    H265825   6.284   1.889  11.624  1.0262  1.3246  1.1302
14804TIP3   OH265826   4.720   5.213  14.917  0.2005  0.2079  0.4359
14804TIP3    H165827   4.745   5.166  14.837 -1.2953 -1.1876  0.7202
14804TIP3    H265828   4.779   5.288  14.920  1.0877 -0.3430 -1.3445
14805TIP3   OH265829   2.121   4.909   1.613  0.1329  0.5321  0.8851
14805TIP3    H165830   2.029   4.900   1.586  0.2012 -1.6767  1.1921
14805TIP3    H265831   2.125   4.993   1.658 -1.7875  0.5868  1.0283
14806TIP3   OH265832   1.121   3.529  16.675 -0.2750 -0.5294  0.9958
14806TIP3    H165833   1.096   3.448  16.718 -0.2606 -1.4309 -0.6177
14806TIP3    H265834   1.073   3.597  16.722  1.4230 -1.1348  3.8272
14807TIP3   OH265835   2.284   3.239  11.609  0.3032  0.2603 -0.3610
14807TIP3    H165836   2.256   3.328  11.630  0.9897 -0.0437  2.2406
14807TIP3    H265837   2.211   3.184  11.639  0.9871 -0.1706  0.5611
14808TIP3   OH265838   4.104   4.441  16.731 -0.1144  0.1197 -0.0160
14808TIP3    H165839   4.175   4.418  16.791  0.1592 -0.7953 -0.6557
14808TIP3    H265840   4.130   4.400  16.648 -0.2098  1.8159 -0.9102
14809TIP3   OH265841   2.677   5.548  10.906 -0.4246 -0.1027 -0.1588
14809TIP3    H165842   2.691   5.465  10.951  0.6234  0.6152  0.8957
14809TIP3    H265843   2.752   5.557  10.847  0.9469  1.2841  1.6637
14810TIP3   OH265844   5.982   4.896   6.797  0.5436  0.0958  0.2245
14810TIP3    H165845   5.900   4.945   6.797 -0.1680 -0.9995 -1.5420
14810TIP3    H265846   5.958   4.808   6.823  1.1938 -0.1742 -0.0564
14811TIP3   OH265847   3.583   0.739  11.927 -0.1888  0.1229  0.8102
14811TIP3    H165848   3.530   0.661  11.943  0.3836 -0.6332 -0.7364
14811TIP3    H265849   3.550   0.773  11.844  1.3237 -0.0459  0.0968
14812TIP3   OH265850   6.058   4.971  16.509 -0.2970 -0.0803  0.2510
14812TIP3    H165851   6.030   5.061  16.492  1.2085  0.3825  0.0354
14812TIP3    H265852   6.014   4.947  16.591 -2.6509 -0.0679 -0.9161
14813TIP3   OH265853   1.347   4.901  16.663  0.1696  0.5155 -0.8115
14813TIP3    H165854   1.279   4.950  16.617 -0.2506  0.6924 -0.0286
14813TIP3    H265855   1.329   4.809  16.644 -0.2550  0.5667 -0.6616
14814TIP3   OH265856   5.253   6.464   5.272 -0.0067  0.6028 -0.5522
14814TIP3    H165857   5.285   6.551   5.248  0.8601  0.2885 -0.5917
14814TIP3    H265858   5.169   6.456   5.228 -0.7718  1.9549  0.5866
14815TIP3   OH265859   0.478   0.051   5.753  0.1466 -0.2903 -0.2047
14815TIP3    H165860   0.427   0.057   5.673  1.2722 -1.4048 -1.0411
14815TIP3    H265861   0.494   0.142   5.778 -0.1415  0.0704 -1.2917
14816TIP3   OH265862   3.806   5.476  12.662 -0.2029  0.3371  0.3003
14816TIP3    H165863   3.739   5.444  12.602  0.7390  1.5814 -1.5147
14816TIP3    H265864   3.888   5.438  12.629  0.1960  0.0141  1.5949
14817TIP3   OH265865   5.607   1.557  10.435 -0.1293 -0.2732 -0.6386
14817TIP3    H165866   5.597   1.472  10.478 -0.6746 -0.5280 -1.2518
14817TIP3    H265867   5.607   1.537  10.341  0.0763  0.3693 -0.7787
14818TIP3   OH265868   3.676   2.597  12.074 -0.1182 -1.0693  0.0152
14818TIP3    H165869   3.592   2.553  12.088  0.6522 -1.9399  2.3852
14818TIP3    H265870   3.672   2.627  11.983 -2.2567 -2.6452 -0.5033
14819TIP3   OH265871   5.564   0.537  13.104 -0.0582  0.2368  0.2775
14819TIP3    H165872   5.521   0.611  13.147  1.4607  0.7442  0.9680
14819TIP3    H265873   5.584   0.569  13.016  0.7427  0.7281  0.6269
14820TIP3   OH265874   3.861   3.141   1.818 -0.1418  0.3052 -0.1661
14820TIP3    H165875   3.792   3.118   1.881 -1.3711  0.3461 -1.4604
14820TIP3    H265876   3.939   3.157   1.873 -1.1161  0.1519  1.3215
14821TIP3   OH265877   5.011   5.972  11.159  0.1284  0.2115 -0.0869
14821TIP3    H165878   5.086   5.913  11.152 -1.6156 -2.0433 -0.9077
14821TIP3    H265879   4.977   5.979  11.070 -0.2972  1.7439  0.1591
14822TIP3   OH265880   1.330   4.687  13.097 -0.1294 -0.6330  0.0340
14822TIP3    H165881   1.264   4.747  13.061 -0.8930  0.0734  2.4074
14822TIP3    H265882   1.320   4.695  13.192  1.9477 -2.1492  0.4490
14823TIP3   OH265883   4.128   3.385  16.412  0.5022  0.4347  0.2251
14823TIP3    H165884   4.179   3.425  16.483  2.5011 -0.6251 -0.5461
14823TIP3    H265885   4.181   3.311  16.383 -1.6704 -0.9570 -0.4210
14824TIP3   OH265886   0.052   6.223  14.186 -0.4601  0.5127 -0.0872
14824TIP3    H165887   0.041   6.142  14.237 -0.5068  0.2659 -0.4902
14824TIP3    H265888   0.115   6.275  14.237 -0.8669  0.4748  0.4713
14825TIP3   OH265889   1.268   0.327  12.371  1.1910 -0.3452 -0.0867
14825TIP3    H165890   1.212   0.368  12.437 -0.6269 -1.9260 -0.5746
14825TIP3    H265891   1.320   0.263  12.420  0.7522 -0.6287  0.0146
14826TIP3   OH265892   3.164   6.111  11.894  0.4651  0.1196 -0.5295
14826TIP3    H165893   3.170   6.147  11.806 -0.7004 -0.4835 -0.8693
14826TIP3    H265894   3.121   6.179  11.946  0.2851  0.1035 -0.6565
14827TIP3   OH265895   1.590   4.025  11.916  0.3653  0.4174  0.6272
14827TIP3    H165896   1.543   4.095  11.870 -0.4457  2.1490  3.7791
14827TIP3    H265897   1.683   4.047  11.905  0.1379  1.6862  1.0620
14828TIP3   OH265898   3.922   1.567  10.504  0.7378  0.5789  0.2171
14828TIP3    H165899   3.833   1.575  10.469  0.3665  0.5987  1.1460
14828TIP3    H265900   3.966   1.647  10.477  0.1363  1.0816  0.6946
14829TIP3   OH265901   3.159   5.982   1.777  1.2099  0.3521 -0.1223
14829TIP3    H165902   3.109   5.972   1.696 -0.6132 -0.2908  1.0210
14829TIP3    H265903   3.251   5.975   1.749  0.5982 -1.8985 -1.8917
14830TIP3   OH265904   4.252   0.917   4.024  0.0973 -0.0431 -0.0137
14830TIP3    H165905   4.174   0.883   3.979  0.2988 -0.6124  0.0612
14830TIP3    H265906   4.300   0.963   3.955 -0.3430  0.3872 -0.0422
14831TIP3   OH265907   4.601   4.788   4.180  0.2171  0.0430  0.1189
14831TIP3    H165908   4.645   4.837   4.250  1.5928 -0.0809 -0.6367
14831TIP3    H265909   4.644   4.702   4.180 -1.3881 -0.8096  0.6603
14832TIP3   OH265910   4.121   0.252  16.807 -0.8417  0.6002  0.2011
14832TIP3    H165911   4.181   0.315  16.845 -0.2941  1.0166 -1.2644
14832TIP3    H265912   4.177   0.178  16.783 -0.6960  1.3275 -1.9283
14833TIP3   OH265913   5.708   1.261   4.109 -0.6764 -0.5144 -0.5915
14833TIP3    H165914   5.690   1.182   4.057 -2.6610 -0.3194 -0.2915
14833TIP3    H265915   5.743   1.228   4.191 -0.8561 -1.0423 -0.7218
14834TIP3   OH265916   1.755   0.933  14.952  0.0923  0.2486 -0.4461
14834TIP3    H165917   1.840   0.917  14.995  0.9099 -1.0022 -2.3782
14834TIP3    H265918   1.706   0.852  14.966 -0.4029  0.5879 -0.2036
14835TIP3   OH265919   5.344   3.762  13.455  0.4714 -0.2570 -0.2652
14835TIP3    H165920   5.357   3.854  13.479  2.0016 -0.1590 -1.3089
14835TIP3    H265921   5.249   3.750  13.458  0.2371  1.3480 -0.1063
14836TIP3   OH265922   0.154   4.964   5.300 -0.4805 -0.2689  0.2051
14836TIP3    H165923   0.170   4.880   5.342  0.4324 -0.3217 -0.2408
14836TIP3    H265924   0.183   5.029   5.364 -1.6736 -0.2616  0.7645
14837TIP3   OH265925   1.029   2.311   2.768 -0.5050  0.1258  0.0180
14837TIP3    H165926   1.058   2.399   2.795 -0.3734 -0.3958  1.7026
14837TIP3    H265927   1.062   2.253   2.837  0.8663 -1.5219 -1.8848
14838TIP3   OH265928   3.980   5.071   4.447 -0.4143  0.1267  0.1215
14838TIP3    H165929   4.061   5.078   4.498 -1.4813 -0.7434  2.0221
14838TIP3    H265930   3.959   4.978   4.448 -1.9196  0.4494  0.4856
14839TIP3   OH265931   4.838   5.656  14.556 -0.4585  0.0049 -0.0125
14839TIP3    H165932   4.835   5.742  14.515 -0.8487 -0.5845 -1.2713
14839TIP3    H265933   4.751   5.643  14.592 -0.6474 -0.1858 -0.5293
14840TIP3   OH265934   0.352   5.005   3.085 -0.4421 -0.0717  0.1670
14840TIP3    H165935   0.301   5.048   3.154  0.1019 -0.8487  1.0824
14840TIP3    H265936   0.396   5.077   3.040 -1.5115  0.5228  0.0321
14841TIP3   OH265937   4.465   2.412   3.793 -0.4321 -0.9762 -0.0948
14841TIP3    H165938   4.453   2.320   3.816  0.9528 -1.2454 -0.3744
14841TIP3    H265939   4.452   2.415   3.698 -1.3129 -0.7224  0.0263
14842TIP3   OH265940   5.605   4.614   5.590 -0.0783 -0.2519 -0.8152
14842TIP3    H165941   5.548   4.624   5.667  0.5214  1.0467 -0.5226
14842TIP3    H265942   5.676   4.558   5.621 -1.3493 -2.2555 -1.3012
14843TIP3   OH265943   1.005   3.487  15.105 -0.6170 -0.1072 -0.3645
14843TIP3    H165944   1.036   3.446  15.024  0.8136  2.0978 -1.0338
14843TIP3    H265945   0.912   3.502  15.091 -0.8204 -1.5587 -0.7415
14844TIP3   OH265946   5.514   3.305  11.525  0.0706  0.7927  0.1100
14844TIP3    H165947   5.569   3.360  11.470 -2.1848  1.5969 -1.5031
14844TIP3    H265948   5.473   3.243  11.465  2.2854 -2.6543  1.8351
14845TIP3   OH265949   3.450   1.597  11.811  0.0375 -0.9199 -0.2995
14845TIP3    H165950   3.434   1.640  11.895  1.4048 -0.4129 -0.2624
14845TIP3    H265951   3.483   1.667  11.754 -1.0145 -1.2205 -1.3215
14846TIP3   OH265952   6.156   5.064   0.181  0.7834  0.2913 -0.0723
14846TIP3    H165953   6.112   5.057   0.096  0.6911  0.8054 -0.0727
14846TIP3    H265954   6.229   5.124   0.165  0.8975  0.2147  0.1600
14847TIP3   OH265955   0.374   3.818   1.683  0.1502 -0.2192  0.2697
14847TIP3    H165956   0.431   3.775   1.747 -0.5047 -1.0853  0.3045
14847TIP3    H265957   0.432   3.870   1.628  0.7284  0.5789  1.5907
14848TIP3   OH265958   2.332   5.273   2.493  0.0632 -0.1803  0.0818
14848TIP3    H165959   2.412   5.240   2.534  0.2825 -0.9224 -0.9084
14848TIP3    H265960   2.263   5.214   2.524 -0.2397  0.8352  1.4383
14849TIP3   OH265961   2.168   4.024   1.483 -0.1800  0.5491  0.0735
14849TIP3    H165962   2.214   3.958   1.534  1.3298 -0.3715 -2.2860
14849TIP3    H265963   2.096   4.053   1.539  0.0925 -1.8873  1.8217
14850TIP3   OH265964   5.752   6.666   5.081  0.0143 -0.1917 -0.2871
14850TIP3    H165965   5.776   6.632   4.995 -1.7742 -2.3463 -0.0225
14850TIP3    H265966   5.657   6.677   5.077 -0.0846 -0.1602  1.3574
14851TIP3   OH265967   3.255   4.779   3.954 -0.2207  0.0112  0.5085
14851TIP3    H165968   3.215   4.784   3.868  0.3929 -0.5212  0.1845
14851TIP3    H265969   3.217   4.852   4.003  1.1264  1.7565 -0.9328
14852TIP3   OH265970   0.216   2.378  16.561 -0.0720 -0.0017  0.0112
14852TIP3    H165971   0.272   2.333  16.624 -2.3951 -0.7094  1.6495
14852TIP3    H265972   0.127   2.351  16.582 -1.3655  3.2680 -0.6486
14853TIP3   OH265973   4.993   5.190  13.260  0.0430  0.2632  0.4755
14853TIP3    H165974   4.976   5.128  13.189 -0.8576  1.3081 -0.2353
14853TIP3    H265975   4.967   5.143  13.339  0.7081 -0.7750  0.1054
14854TIP3   OH265976   3.012   2.741   0.907 -0.3551  0.7001 -0.1445
14854TIP3    H165977   2.967   2.793   0.840  0.5178  0.6965 -0.7529
14854TIP3    H265978   2.962   2.660   0.913 -1.0900  1.1520  0.0197
14855TIP3   OH265979   1.414   6.722  12.085 -0.3211 -0.1244 -0.5065
14855TIP3    H165980   1.346   6.661  12.113  0.8491 -1.5948 -0.7171
14855TIP3    H265981   1.444   6.763  12.167  1.1811 -2.3671  0.1599
14856TIP3   OH265982   3.977   4.504  14.306 -0.0369 -0.3346 -0.0645
14856TIP3    H165983   4.007   4.414  14.292  0.3206  0.0139 -1.7291
14856TIP3    H265984   3.889   4.506  14.270  0.0001 -0.0016 -0.1412
14857TIP3   OH265985   5.146   2.321   2.318  0.5715  0.1757 -0.4931
14857TIP3    H165986   5.201   2.398   2.307 -0.6243  1.1466  0.0929
14857TIP3    H265987   5.064   2.354   2.355 -0.2207 -1.2876 -0.8284
14858TIP3   OH265988   0.415   5.493  11.647 -0.3803  0.2466 -0.1986
14858TIP3    H165989   0.466   5.554  11.595 -0.1118 -0.5672 -0.9201
14858TIP3    H265990   0.404   5.416  11.591  0.4070 -0.8986  1.1408
14859TIP3   OH265991   1.704   3.053   2.063 -0.1910  0.5618  0.3762
14859TIP3    H165992   1.752   2.970   2.063  0.2164  0.7924 -0.1403
14859TIP3    H265993   1.758   3.112   2.114 -1.8140 -0.2050  3.2387
14860TIP3   OH265994   4.583   0.388  15.483 -0.2303 -0.0839 -0.3522
14860TIP3    H165995   4.646   0.405  15.553  1.1053  0.3163 -1.5910
14860TIP3    H265996   4.621   0.429  15.406  0.4668 -3.8786 -2.3061
14861TIP3   OH265997   4.628   3.233   4.489 -0.3441  0.0719  0.0096
14861TIP3    H165998   4.703   3.264   4.438 -0.2571 -1.3539 -0.8045
14861TIP3    H265999   4.658   3.152   4.530 -1.6893 -1.0761 -1.1421
14862TIP3   OH266000   3.183   0.169   0.579  0.3356  0.0501  0.2329
14862TIP3    H166001   3.117   0.147   0.514  0.6065 -1.6311  0.4991
14862TIP3    H266002   3.193   0.264   0.571 -1.9855  0.3248  0.0876
14863TIP3   OH266003   5.348   3.470   1.819  0.2935 -0.7043  0.0009
14863TIP3    H166004   5.398   3.525   1.759 -0.0160  0.3922  0.6927
14863TIP3    H266005   5.272   3.441   1.768 -0.6008  1.2009  0.1447
14864TIP3   OH266006   5.024   3.830  11.212 -0.2842 -0.4015 -0.2754
14864TIP3    H166007   4.994   3.904  11.265  0.4280  0.4421 -1.0101
14864TIP3    H266008   5.057   3.870  11.132 -0.4834 -1.5805 -0.9694
14865TIP3   OH266009   1.772   1.919   0.332  0.7951 -0.5431  0.8722
14865TIP3    H166010   1.743   1.828   0.345 -0.8826 -0.2973 -0.7598
14865TIP3    H266011   1.854   1.911   0.285  0.4619 -1.2330  0.3894
14866TIP3   OH266012   3.321   1.835  11.038  0.3782  0.5259  0.3383
14866TIP3    H166013   3.415   1.821  11.048  0.1555 -0.2867  1.4287
14866TIP3    H266014   3.280   1.762  11.084 -0.8012  0.3690 -0.8890
14867TIP3   OH266015   4.430   1.346  11.282 -0.1386 -0.1916 -0.5756
14867TIP3    H166016   4.482   1.402  11.341 -2.1073 -0.6970  1.8049
14867TIP3    H266017   4.438   1.388  11.197  1.4918  1.5783  0.3485
14868TIP3   OH266018   0.098   4.502   2.071 -0.4289 -0.2641  0.0324
14868TIP3    H166019   0.167   4.522   2.134 -1.0643  0.1671  0.6113
14868TIP3    H266020   0.024   4.557   2.098 -0.3002  0.9406 -1.9049
14869TIP3   OH266021   3.527   4.288   4.049  0.1948 -0.0298  0.3996
14869TIP3    H166022   3.501   4.309   3.960 -1.7948 -1.4573  0.5759
14869TIP3    H266023   3.583   4.211   4.040 -1.9625 -1.6951  0.4566
14870TIP3   OH266024   3.023   0.412   2.042  0.0092  0.4600 -0.2762
14870TIP3    H166025   3.058   0.351   2.108  1.0986  0.5234 -0.7648
14870TIP3    H266026   3.094   0.420   1.978 -1.0564  0.3293 -1.5111
14871TIP3   OH266027   3.915   3.519  11.815 -0.0082 -0.6402  0.0167
14871TIP3    H166028   3.888   3.578  11.745  0.2517 -0.5659 -0.0205
14871TIP3    H266029   3.838   3.463  11.830 -0.5559  0.2545  0.6295
14872TIP3   OH266030   2.952   5.541   3.761 -0.2973  0.0668 -0.1381
14872TIP3    H166031   3.024   5.593   3.727 -0.6172  0.7010  0.1469
14872TIP3    H266032   2.966   5.454   3.723 -0.1627  0.5299 -1.1842
14873TIP3   OH266033   2.316   3.838  10.603  0.3142  0.7691  0.6303
14873TIP3    H166034   2.356   3.811  10.520  1.4177  0.6877  1.1784
14873TIP3    H266035   2.375   3.905  10.637  0.5643 -0.1150  1.9774
14874TIP3   OH266036   1.199   5.368   2.413 -0.3728 -0.5803 -0.3521
14874TIP3    H166037   1.186   5.462   2.429 -0.6289 -0.8658  1.2566
14874TIP3    H266038   1.246   5.336   2.490 -1.3034 -1.9899 -0.3264
14875TIP3   OH266039   4.457   3.712   0.078 -0.0609  0.8396  0.5394
14875TIP3    H166040   4.513   3.661   0.136 -0.9312  1.8346  2.3781
14875TIP3    H266041   4.395   3.649   0.042  1.0927  0.0396 -0.1113
14876TIP3   OH266042   5.129   4.578   2.584  0.2256  0.2596  0.2743
14876TIP3    H166043   5.120   4.484   2.600  1.0251  0.1914  0.3656
14876TIP3    H266044   5.093   4.591   2.496 -0.5120 -0.0170  0.5260
14877TIP3   OH266045   2.833   1.915  16.913 -0.3894 -0.0905 -0.5514
14877TIP3    H166046   2.814   2.009  16.917 -0.0979 -0.0615  0.4174
14877TIP3    H266047   2.928   1.910  16.908 -0.2191 -0.3399  1.6243
14878TIP3   OH266048   2.432   0.784   4.261  0.2424  0.2448 -0.8051
14878TIP3    H166049   2.380   0.835   4.323 -1.1385 -0.7530 -1.1124
14878TIP3    H266050   2.406   0.816   4.175 -2.2618 -2.3098 -1.1367
14879TIP3   OH266051   6.810   1.926   1.180 -0.3448  0.1009  0.1489
14879TIP3    H166052   6.718   1.944   1.200 -0.5339  0.0814 -0.6832
14879TIP3    H266053   6.836   1.859   1.243 -0.5479  0.9617  1.1787
14880TIP3   OH266054   2.501   1.310  14.251 -0.1238 -0.2007 -0.4033
14880TIP3    H166055   2.504   1.215  14.250  2.4024 -0.2261  1.0599
14880TIP3    H266056   2.408   1.332  14.256 -0.6860 -2.6846  2.2209
14881TIP3   OH266057   0.050   0.141   4.916  0.7607  0.2443 -0.4201
14881TIP3    H166058   0.079   0.067   4.969  0.0667  0.0679 -0.2744
14881TIP3    H266059  -0.005   0.193   4.974  0.5768  0.4360 -0.7620
14882TIP3   OH266060   3.631   0.261   2.392  0.5932 -0.2836  0.3738
14882TIP3    H166061   3.604   0.262   2.484 -1.9697  1.1013 -0.2909
14882TIP3    H266062   3.642   0.169   2.371 -1.9433 -0.8857  1.2944
14883TIP3   OH266063   4.227   5.276   0.836  0.1476 -0.9455  1.1107
14883TIP3    H166064   4.156   5.236   0.887  0.4160 -2.5502  0.2751
14883TIP3    H266065   4.262   5.205   0.783  0.7032  0.4035 -0.4080
14884TIP3   OH266066   6.674   5.806   1.331 -0.2734 -0.4359  0.4593
14884TIP3    H166067   6.710   5.717   1.330  1.6788  0.2893  1.1294
14884TIP3    H266068   6.714   5.847   1.407 -1.2989  0.9760  0.2749
14885TIP3   OH266069   4.340   6.656  11.221  0.3201  0.1720  0.3379
14885TIP3    H166070   4.317   6.579  11.169 -0.4277  0.0902  0.7730
14885TIP3    H266071   4.288   6.727  11.184  1.3979  0.6084 -0.4013
14886TIP3   OH266072   4.993   0.508  13.815 -0.4277 -0.0541 -0.2847
14886TIP3    H166073   4.909   0.501  13.770 -1.3717  1.4397  1.1094
14886TIP3    H266074   4.974   0.563  13.892  1.4608 -1.0526  0.9669
14887TIP3   OH266075   5.120   4.439   4.044 -0.0549  0.6266 -0.6023
14887TIP3    H166076   5.194   4.497   4.027  1.0129 -0.5254 -0.0223
14887TIP3    H266077   5.127   4.371   3.977  0.2919 -0.2987  0.3561
14888TIP3   OH266078   2.413   6.719   3.766 -0.1624 -0.1550 -0.2070
14888TIP3    H166079   2.455   6.635   3.747  1.2074  0.8140 -1.8010
14888TIP3    H266080   2.319   6.701   3.764 -0.0032 -1.1329 -3.4987
14889TIP3   OH266081   2.779   2.995   5.354 -0.3013 -0.1574 -0.5428
14889TIP3    H166082   2.871   3.009   5.331 -0.5777  1.6689 -0.6182
14889TIP3    H266083   2.749   2.928   5.292  1.4124 -2.1529  0.6458
14890TIP3   OH266084   0.117   4.682  13.997 -0.4426 -0.6944  0.5501
14890TIP3    H166085   0.097   4.712  14.086  1.6278  0.4920  0.6974
14890TIP3    H266086   0.183   4.614  14.009  0.5883  0.1615 -0.0795
14891TIP3   OH266087   5.986   4.407  14.161  0.1330 -0.0524  0.1571
14891TIP3    H166088   5.996   4.496  14.127 -1.0079 -0.5816 -1.6664
14891TIP3    H266089   5.943   4.419  14.246 -0.1661  1.1093 -0.1363
14892TIP3   OH266090   2.828   3.294  14.690 -0.5714 -0.1853 -0.5469
14892TIP3    H166091   2.887   3.369  14.693 -0.1576 -0.5280  0.0703
14892TIP3    H266092   2.860   3.235  14.758 -1.1033 -0.7681 -0.7867
14893TIP3   OH266093   1.027   4.487  12.482  0.0015 -0.0510  0.3495
14893TIP3    H166094   1.117   4.483  12.513 -0.6327 -3.0486  2.2919
14893TIP3    H266095   0.981   4.539  12.548  0.0997  0.5657 -0.0619
14894TIP3   OH266096   4.017   6.039   2.881 -0.1326 -0.3610 -0.2809
14894TIP3    H166097   3.930   6.007   2.903 -0.9245  0.9044 -1.4286
14894TIP3    H266098   4.035   6.108   2.945 -0.5080  0.2186 -0.7928
14895TIP3   OH266099   5.600   1.237   2.369  0.3890 -0.0033 -0.3202
14895TIP3    H166100   5.691   1.216   2.392  0.4277  0.5410  0.0513
14895TIP3    H266101   5.551   1.158   2.390  0.7081 -0.1384 -0.0774
14896TIP3   OH266102   0.685   1.254  15.679 -0.2440  0.1221  0.1449
14896TIP3    H166103   0.758   1.291  15.628  0.1734 -0.7158  0.1170
14896TIP3    H266104   0.702   1.282  15.769  0.2145 -0.2089  0.1676
14897TIP3   OH266105   0.235   3.226   4.749 -0.0962  0.1354 -0.5190
14897TIP3    H166106   0.164   3.244   4.810  0.2939  0.9412 -0.2877
14897TIP3    H266107   0.236   3.130   4.741  0.1139 -0.0335  1.0968
14898TIP3   OH266108   0.228   1.374  15.913  0.0868 -0.6215 -0.4445
14898TIP3    H166109   0.266   1.335  15.835  0.1812 -2.5668  0.5105
14898TIP3    H266110   0.254   1.315  15.984 -1.2918  0.2266  0.8200
14899TIP3   OH266111   3.187   3.012   5.837 -0.3660  0.1549 -0.3554
14899TIP3    H166112   3.114   3.025   5.897 -0.4975  1.4938 -0.7523
14899TIP3    H266113   3.190   2.918   5.822 -1.2668 -0.0428  0.5783
14900TIP3   OH266114   1.223   1.959   1.549  0.0811  0.3447 -0.5688
14900TIP3    H166115   1.128   1.946   1.556  0.1838  0.3605  2.1422
14900TIP3    H266116   1.255   1.880   1.506 -1.1473  0.3287 -1.5041
14901TIP3   OH266117   4.585   0.832  15.460  0.3354  0.1737 -0.9354
14901TIP3    H166118   4.599   0.842  15.554  3.5476 -0.7901 -1.1730
14901TIP3    H266119   4.602   0.919  15.425  0.4502  0.2412 -0.7183
14902TIP3   OH266120   0.240   3.486  15.230 -1.0577  0.7874  0.4344
14902TIP3    H166121   0.151   3.454  15.220 -0.5454 -0.3950 -0.6340
14902TIP3    H266122   0.231   3.566  15.281 -2.8094  1.1216 -0.3101
14903TIP3   OH266123   4.431   2.983  11.238  0.0683 -0.3530  0.2603
14903TIP3    H166124   4.398   2.968  11.327 -0.0180 -0.6050  0.1842
14903TIP3    H266125   4.447   2.896  11.203  0.0450 -0.2540  0.0037
14904TIP3   OH266126   6.241   0.725  12.454 -0.9955  0.2633  0.6269
14904TIP3    H166127   6.321   0.692  12.413 -1.3043  1.4213 -0.9920
14904TIP3    H266128   6.270   0.758  12.539 -0.0478 -0.7315  0.7084
14905TIP3   OH266129   2.623   3.107   5.791 -0.1534  0.2433  0.2167
14905TIP3    H166130   2.682   3.117   5.866  0.7397 -2.3290 -0.0631
14905TIP3    H266131   2.637   3.186   5.739  3.0707 -0.2385  0.1749
14906TIP3   OH266132   3.763   3.472   4.730 -0.5969 -0.4446  0.7362
14906TIP3    H166133   3.843   3.523   4.744  0.2716 -0.9446 -1.8324
14906TIP3    H266134   3.716   3.521   4.662 -0.5806 -2.1019 -0.5238
14907TIP3   OH266135   1.263   1.374   0.626  0.4439  0.1032  0.6198
14907TIP3    H166136   1.343   1.424   0.609  2.0215 -1.6440  2.3280
14907TIP3    H266137   1.293   1.283   0.637 -2.1008 -1.0459 -0.9536
14908TIP3   OH266138   0.717   1.231  16.198 -0.8399  0.2627  0.1159
14908TIP3    H166139   0.643   1.288  16.218 -1.2724  0.3965 -1.6316
14908TIP3    H266140   0.784   1.290  16.162  0.3304  0.2100  2.0912
14909TIP3   OH266141   5.990   6.113   3.706  0.0260  0.5232  0.2123
14909TIP3    H166142   6.012   6.114   3.613  0.6901 -0.6381  0.3335
14909TIP3    H266143   6.015   6.025   3.736  0.5285  1.1120  1.6545
14910TIP3   OH266144   3.273   3.136  15.281 -0.0208 -0.0181  1.2347
14910TIP3    H166145   3.253   3.146  15.188 -0.0542  3.4396  1.4763
14910TIP3    H266146   3.193   3.101  15.319 -0.0253 -1.4219  0.0094
14911TIP3   OH266147   4.296   3.555   4.775 -0.0489 -0.4333  0.7585
14911TIP3    H166148   4.322   3.464   4.761  0.6345 -0.0951 -0.2739
14911TIP3    H266149   4.226   3.550   4.840 -0.5025 -1.7639  0.2034
14912TIP3   OH266150   5.633   6.688   3.389  0.3093  0.0381 -0.4335
14912TIP3    H166151   5.726   6.668   3.397  0.0290 -0.7805  1.0900
14912TIP3    H266152   5.591   6.602   3.376 -0.3193  0.3021 -0.2065
14913TIP3   OH266153   2.123   5.120  13.759  0.3634  0.2964  0.4139
14913TIP3    H166154   2.097   5.043  13.710  2.6956 -0.9482  0.9568
14913TIP3    H266155   2.091   5.105  13.848  0.4255  0.1692  0.4148
14914TIP3   OH266156   5.494   2.336   3.156 -0.1196  0.4453 -0.2312
14914TIP3    H166157   5.473   2.421   3.193 -2.5427 -0.0194 -0.3992
14914TIP3    H266158   5.512   2.352   3.064 -1.3090  0.6913 -0.4247
14915TIP3   OH266159   4.666   3.060  15.542  0.1844  0.2914  0.6843
14915TIP3    H166160   4.651   3.027  15.630  0.3324 -0.5051  0.4163
14915TIP3    H266161   4.749   3.108  15.549  1.5252 -1.8685  0.4597
14916TIP3   OH266162   1.419   2.437   3.867 -0.4316 -0.2918  0.2741
14916TIP3    H166163   1.480   2.399   3.930 -1.2746 -2.7318 -0.2756
14916TIP3    H266164   1.334   2.434   3.910 -0.5368  1.1241  0.2316
14917TIP3   OH266165   0.615   4.050  11.747  0.1074  0.0793  0.8469
14917TIP3    H166166   0.548   4.081  11.686  0.5941  0.0740  0.3082
14917TIP3    H266167   0.698   4.077  11.708  0.4948 -1.1079  0.8318
14918TIP3   OH266168   2.593   2.859  10.521 -0.3827  0.3297  0.0214
14918TIP3    H166169   2.566   2.906  10.442  2.4108  2.5935  0.2289
14918TIP3    H266170   2.688   2.857  10.516 -0.2376 -1.7114  2.1546
14919TIP3   OH266171   4.485   3.602  14.509  0.1624  0.5213  0.3759
14919TIP3    H166172   4.449   3.686  14.481 -1.2358  0.6987  2.4812
14919TIP3    H266173   4.468   3.543  14.435 -1.3075  1.4711 -0.0797
14920TIP3   OH266174   3.745   5.124   1.232  0.3634 -0.5135 -0.2380
14920TIP3    H166175   3.797   5.203   1.220  1.9909 -1.6252 -0.9287
14920TIP3    H266176   3.742   5.111   1.327 -2.3043  1.8153  0.1254
14921TIP3   OH266177   4.509   4.215   3.863 -0.0027  0.2226 -0.0509
14921TIP3    H166178   4.472   4.128   3.877  1.0586 -0.5834 -1.8936
14921TIP3    H266179   4.599   4.209   3.893 -0.0206  0.7838  0.1256
14922TIP3   OH266180   0.423   2.249  11.365  0.2519 -0.4032 -0.5637
14922TIP3    H166181   0.438   2.290  11.280  2.2673 -0.6128 -0.3579
14922TIP3    H266182   0.496   2.187  11.375 -0.2247 -0.7426  1.0917
14923TIP3   OH266183   0.907   3.099  14.083  0.3926  0.2772 -0.1495
14923TIP3    H166184   0.837   3.062  14.030 -0.1905  0.9818  0.1063
14923TIP3    H266185   0.900   3.194  14.070 -0.0317  0.5127  1.4841
14924TIP3   OH266186   5.568   6.500   4.074 -0.3585  0.1477  0.0604
14924TIP3    H166187   5.574   6.410   4.107 -0.7435  0.2136  0.3134
14924TIP3    H266188   5.579   6.555   4.152 -3.5477  0.2981  0.5364
14925TIP3   OH266189   6.464   4.512  11.359 -0.0439  0.3991  0.1654
14925TIP3    H166190   6.471   4.596  11.312  1.9609 -0.3079 -0.9328
14925TIP3    H266191   6.373   4.485  11.346  0.0490  0.9480 -2.1706
14926TIP3   OH266192   5.751   5.025  12.818 -0.2945  0.1600  0.1486
14926TIP3    H166193   5.792   4.955  12.769  0.1605  1.8977 -2.1238
14926TIP3    H266194   5.795   5.024  12.903  0.3040 -1.6767 -0.1423
14927TIP3   OH266195   0.012   2.119   1.974  0.1544  0.4564 -0.4862
14927TIP3    H166196   0.024   2.152   2.063 -2.2811  0.6229 -0.1591
14927TIP3    H266197   0.025   2.196   1.918 -2.0285  1.2792  0.0375
14928TIP3   OH266198   4.760   4.800  14.652 -0.2368  0.4267 -0.1618
14928TIP3    H166199   4.748   4.743  14.576  2.6951  0.1358 -0.5230
14928TIP3    H266200   4.846   4.777  14.686 -0.1516  2.6896  1.4094
14929TIP3   OH266201   6.618   4.541   5.330 -0.2101  0.7915 -0.1169
14929TIP3    H166202   6.677   4.547   5.255 -0.4535  1.5110 -0.2663
14929TIP3    H266203   6.667   4.493   5.396  0.5767  1.4353 -0.2091
14930TIP3   OH266204   0.680   2.721   5.522 -0.1978  0.5721 -0.3983
14930TIP3    H166205   0.774   2.740   5.510 -0.0532  0.0790 -0.0792
14930TIP3    H266206   0.679   2.636   5.565 -0.7571  1.1917  0.8638
14931TIP3   OH266207   1.336   0.539   5.094  0.1659  0.4887  0.5674
14931TIP3    H166208   1.413   0.529   5.150  0.0731 -2.4702  0.3574
14931TIP3    H266209   1.271   0.581   5.150  0.8175 -0.2986  1.9752
14932TIP3   OH266210   6.589   2.820  16.351 -0.3410 -0.4625 -0.2650
14932TIP3    H166211   6.645   2.801  16.276  0.2239  1.2300 -0.3055
14932TIP3    H266212   6.500   2.805  16.319 -0.1227  0.4494 -1.3526
14933TIP3   OH266213   2.868   3.085  13.157 -0.0289  0.2118  0.6898
14933TIP3    H166214   2.938   3.138  13.119 -0.0467 -1.8521 -2.5763
14933TIP3    H266215   2.907   3.046  13.236  2.3726 -0.4828 -0.7497
14934TIP3   OH266216   4.717   2.635   1.292  0.3224 -0.1730  0.0326
14934TIP3    H166217   4.651   2.651   1.225 -0.7755 -4.3524 -0.1914
14934TIP3    H266218   4.668   2.630   1.374  0.2691 -2.8685 -0.0750
14935TIP3   OH266219   1.196   0.931  12.853  0.6358 -0.1516 -0.0557
14935TIP3    H166220   1.229   1.021  12.850 -0.4257  0.2465 -1.1567
14935TIP3    H266221   1.104   0.941  12.877  0.6715 -0.9983  0.4422
14936TIP3   OH266222   3.017   1.284   0.469 -0.5221 -0.1193  0.7907
14936TIP3    H166223   3.101   1.252   0.434  0.7375  0.6710  2.9043
14936TIP3    H266224   2.968   1.204   0.489 -0.7738 -0.5987 -1.4543
14937TIP3   OH266225   3.296   4.483   2.585  0.1603  0.0726 -0.2516
14937TIP3    H166226   3.289   4.441   2.499 -1.3683  2.4042 -1.3980
14937TIP3    H266227   3.276   4.575   2.567  0.5662  0.7782  2.5175
14938TIP3   OH266228   1.539   1.563  10.206  0.0445  0.6148 -0.2544
14938TIP3    H166229   1.450   1.534  10.225  0.1992  0.8453  0.8801
14938TIP3    H266230   1.591   1.483  10.205  0.2481  0.6692  1.6228
14939TIP3   OH266231   5.341   3.050   1.211 -0.1801  0.3671 -0.5187
14939TIP3    H166232   5.328   2.971   1.158  1.3776  0.1851 -0.6730
14939TIP3    H266233   5.253   3.086   1.222 -0.6942 -0.3332 -2.0799
14940TIP3   OH266234   6.739   5.027  12.599  0.6392  0.6865  0.3530
14940TIP3    H166235   6.701   5.111  12.625 -0.5326  0.3666 -0.2682
14940TIP3    H266236   6.682   4.996  12.529  0.1112 -1.3651  1.6244
14941TIP3   OH266237   1.389   6.353   3.206 -1.1833  0.2873 -0.7712
14941TIP3    H166238   1.297   6.326   3.211 -1.9552  2.9232  0.9508
14941TIP3    H266239   1.392   6.417   3.134 -0.2565 -1.0504 -1.9955
14942TIP3   OH266240   0.898   6.443  13.730  0.3221 -0.4873  0.1169
14942TIP3    H166241   0.846   6.521  13.707  0.3589 -0.2698  0.7520
14942TIP3    H266242   0.851   6.370  13.689  0.8213 -0.0396 -1.3245
14943TIP3   OH266243   4.022   3.881  15.341  0.1367 -0.2379 -0.9482
14943TIP3    H166244   4.107   3.912  15.310  0.0312 -0.3931 -1.4022
14943TIP3    H266245   4.011   3.795  15.300  0.2458 -0.7150 -0.0166
14944TIP3   OH266246   1.861   3.064  13.934 -0.5706 -0.0509 -0.1898
14944TIP3    H166247   1.944   3.040  13.974 -0.9376  0.6752  1.0487
14944TIP3    H266248   1.886   3.103  13.850  0.2328 -1.2493 -0.5265
14945TIP3   OH266249   3.799   0.007   3.589  0.8996  0.7280  0.0728
14945TIP3    H166250   3.819  -0.045   3.667  0.5250 -2.5822 -1.8246
14945TIP3    H266251   3.832   0.094   3.608  2.8309 -0.5204  3.0369
14946TIP3   OH266252   6.417   5.731  14.156  0.3375  0.4201  0.5906
14946TIP3    H166253   6.397   5.700  14.068 -1.2258 -2.4052  1.8368
14946TIP3    H266254   6.508   5.708  14.170 -0.1129 -1.4690  0.5772
14947TIP3   OH266255   0.689   0.038   5.369  0.4920  0.1955  0.4176
14947TIP3    H166256   0.756  -0.025   5.396  0.6240 -0.3334 -1.0316
14947TIP3    H266257   0.611   0.012   5.418  0.7868 -0.5227  0.5208
14948TIP3   OH266258   5.087   1.141  13.947 -0.0810  0.8399  0.3051
14948TIP3    H166259   5.054   1.051  13.943 -1.2532  1.2113  1.0730
14948TIP3    H266260   5.060   1.181  13.865 -3.3214  1.6675  1.6108
14949TIP3   OH266261   6.545   0.899  13.689 -0.6882 -0.5106 -0.1946
14949TIP3    H166262   6.568   0.806  13.688  0.9488 -0.1250 -1.2773
14949TIP3    H266263   6.555   0.925  13.781  5.0667 -0.0366 -0.5910
14950TIP3   OH266264   2.157   3.292  14.656  0.3923  0.2592 -0.3848
14950TIP3    H166265   2.082   3.236  14.635  1.1717 -0.5637 -1.0519
14950TIP3    H266266   2.205   3.300  14.574  1.2232  0.4985  0.1094
14951TIP3   OH266267   0.696   0.322   3.740 -0.5206  0.2907 -0.0071
14951TIP3    H166268   0.611   0.364   3.728 -1.4891 -0.9675  1.9122
14951TIP3    H266269   0.679   0.251   3.802  2.0645  0.5007  1.0773
14952TIP3   OH266270   4.173   5.053  17.080 -0.3022 -0.0439 -0.1868
14952TIP3    H166271   4.186   5.147  17.080 -0.3889 -0.0246  0.5948
14952TIP3    H266272   4.234   5.020  17.013  1.1968  0.3793  0.9224
14953TIP3   OH266273   2.327   4.186   3.578 -0.1424  0.2261 -0.3562
14953TIP3    H166274   2.327   4.179   3.483 -1.5247  0.2998 -0.3769
14953TIP3    H266275   2.247   4.234   3.599 -0.0731 -0.1529  0.8697
14954TIP3   OH266276   0.214   6.291   6.645  0.3739  0.3097  0.1905
14954TIP3    H166277   0.224   6.196   6.632  0.1106  0.4710 -1.4573
14954TIP3    H266278   0.167   6.299   6.727  1.2535 -0.9498  0.8568
14955TIP3   OH266279   6.105   0.071  13.354  0.1972 -0.2904  0.4652
14955TIP3    H166280   6.023   0.120  13.346  0.1058 -0.1560  2.0779
14955TIP3    H266281   6.172   0.139  13.364  0.1874 -0.4623  1.7345
14956TIP3   OH266282   4.379   3.563  15.081 -0.1689  0.4490  0.4982
14956TIP3    H166283   4.351   3.629  15.144  0.8779  0.9917  0.4179
14956TIP3    H266284   4.338   3.591  14.999 -0.6444  0.3591  0.7025
14957TIP3   OH266285   4.941   3.349   2.542 -0.3859  0.1315 -0.7909
14957TIP3    H166286   4.888   3.345   2.621  1.0114  0.3133  0.2077
14957TIP3    H266287   4.948   3.443   2.523  1.2706  0.2789  0.3334
14958TIP3   OH266288   2.420   1.599   5.066  0.2749 -0.0003 -0.4154
14958TIP3    H166289   2.373   1.576   4.986  2.7991  1.0280 -2.3512
14958TIP3    H266290   2.492   1.536   5.071  0.7077  0.5419  0.5229
14959TIP3   OH266291   1.448   4.228  16.016 -0.5645 -0.2761 -0.2314
14959TIP3    H166292   1.372   4.285  16.028 -0.2414  0.3839 -1.1409
14959TIP3    H266293   1.411   4.143  15.991 -1.0184  0.4317 -2.2019
14960TIP3   OH266294   5.502   6.748   0.368  0.4466 -0.3225  0.1386
14960TIP3    H166295   5.513   6.653   0.367 -3.4641 -0.9737  1.7091
14960TIP3    H266296   5.462   6.767   0.453 -0.7091  2.4595 -0.9003
14961TIP3   OH266297   3.916   1.440   3.409 -0.2502 -0.5344  0.1640
14961TIP3    H166298   3.940   1.502   3.478 -1.0821  0.9160 -0.8251
14961TIP3    H266299   3.829   1.467   3.381 -0.6833 -2.2329 -0.2340
14962TIP3   OH266300   3.437   4.717   1.384  0.2303 -0.0249 -0.0913
14962TIP3    H166301   3.455   4.690   1.474  0.7606  1.6422  0.3402
14962TIP3    H266302   3.456   4.640   1.332  0.2342 -0.9269  1.1883
14963TIP3   OH266303   6.566   3.647   5.101 -0.3736  0.0796  0.7012
14963TIP3    H166304   6.520   3.565   5.120  1.5170 -1.0315  0.7551
14963TIP3    H266305   6.498   3.714   5.105 -1.9332 -1.4361  0.9511
14964TIP3   OH266306   6.477   1.375  16.268 -0.3235  0.4601  0.1609
14964TIP3    H166307   6.452   1.312  16.201  0.2776 -0.2249  0.5631
14964TIP3    H266308   6.477   1.459  16.223  0.4270 -0.0337 -0.8068
14965TIP3   OH266309   6.650   4.611   2.949 -0.8265 -0.3447 -0.7037
14965TIP3    H166310   6.640   4.554   3.025 -1.2219 -2.0821 -1.9864
14965TIP3    H266311   6.619   4.559   2.875 -1.7318  1.7594 -1.9027
14966TIP3   OH266312   4.545   0.527   3.587 -0.3310 -0.3220  0.5090
14966TIP3    H166313   4.468   0.582   3.601 -1.4010 -1.1185 -1.7782
14966TIP3    H266314   4.612   0.587   3.553 -0.7010 -0.0133  0.3255
14967TIP3   OH266315   1.995   4.423   2.657  0.0338 -0.0215 -0.7457
14967TIP3    H166316   1.912   4.383   2.629 -0.7360  0.0048  1.3792
14967TIP3    H266317   2.062   4.360   2.629 -0.9962 -1.8295  0.6596
14968TIP3   OH266318   0.830   1.467   4.006  0.0938 -0.7611  0.3757
14968TIP3    H166319   0.918   1.458   4.044  0.4278  1.9811  0.4837
14968TIP3    H266320   0.845   1.464   3.912 -0.0238 -2.3844  0.3849
14969TIP3   OH266321   5.903   1.589  16.674 -0.3328  0.7395 -0.4527
14969TIP3    H166322   5.814   1.560  16.655  0.3567 -0.8491 -1.5623
14969TIP3    H266323   5.922   1.556  16.761 -0.8000  1.0226 -0.2445
14970TIP3   OH266324   5.865   0.662   2.918  0.9111  0.0296  0.2425
14970TIP3    H166325   5.771   0.674   2.923  0.7663 -0.4612 -1.0635
14970TIP3    H266326   5.877   0.569   2.899  1.6240  0.2231 -0.3041
14971TIP3   OH266327   4.099   1.985  11.488 -0.1245 -0.1719  0.3405
14971TIP3    H166328   4.051   1.904  11.502 -0.0017 -0.2190  0.4986
14971TIP3    H266329   4.038   2.054  11.514 -1.7901  0.0975 -3.6219
14972TIP3   OH266330   5.438   0.817   3.403  0.0071  0.0512 -0.2734
14972TIP3    H166331   5.439   0.871   3.324 -2.7283  1.5428  0.5743
14972TIP3    H266332   5.345   0.803   3.421  0.5820 -2.7915  1.0593
14973TIP3   OH266333   0.639   2.768   0.264  0.0688 -0.1604 -0.3609
14973TIP3    H166334   0.721   2.729   0.232  0.6439 -0.5812  1.4434
14973TIP3    H266335   0.572   2.702   0.244 -0.0143  0.5135 -2.5396
14974TIP3   OH266336   6.622   3.967  14.331 -0.4445 -0.8732 -0.3397
14974TIP3    H166337   6.685   3.977  14.402 -2.2125  2.7855  0.9558
14974TIP3    H266338   6.542   3.934  14.374 -0.4823 -2.1873 -1.3510
14975TIP3   OH266339   3.892   0.464  14.494  0.0476  0.0315  0.0956
14975TIP3    H166340   3.867   0.484  14.584  0.4103 -0.8853  0.4123
14975TIP3    H266341   3.810   0.469  14.445 -0.6779 -2.1679  0.9749
14976TIP3   OH266342   6.770   2.068  10.603  0.0308  0.0798 -0.1886
14976TIP3    H166343   6.777   1.973  10.617  0.1684  0.1175 -0.0079
14976TIP3    H266344   6.699   2.077  10.539  0.2053 -0.1638 -0.4166
14977TIP3   OH266345   2.497   1.138   0.737 -0.5387 -0.2662  0.4660
14977TIP3    H166346   2.487   1.226   0.700  0.3567  0.1057  1.0765
14977TIP3    H266347   2.415   1.123   0.785 -0.5701  0.3630  0.6173
14978TIP3   OH266348   2.174   3.884   3.694 -0.7210  0.0574 -0.3459
14978TIP3    H166349   2.117   3.933   3.634 -0.7223  0.8045  0.2481
14978TIP3    H266350   2.154   3.792   3.676 -2.4024  0.2949  0.0943
14979TIP3   OH266351   1.049   3.288  13.484  0.3461  0.4175  0.3504
14979TIP3    H166352   1.073   3.253  13.398  0.6189  1.9528 -0.2257
14979TIP3    H266353   0.954   3.298  13.480  0.1190 -1.1881  0.9097
14980TIP3   OH266354   3.808   2.303   0.043 -0.3555  0.4960  0.2406
14980TIP3    H166355   3.755   2.292  -0.035 -0.1706  2.0209 -0.1316
14980TIP3    H266356   3.889   2.256   0.024 -1.2839 -1.3551  0.5909
14981TIP3   OH266357   4.513   3.408   1.350 -0.0366 -0.4666 -0.3431
14981TIP3    H166358   4.439   3.377   1.297 -1.3563  3.6739 -1.3197
14981TIP3    H266359   4.590   3.394   1.295 -0.9524  0.6335 -1.9944
14982TIP3   OH266360   2.677   1.006   6.314  0.0241  0.3962 -0.6682
14982TIP3    H166361   2.614   0.980   6.381 -0.7102  1.4978 -0.9049
14982TIP3    H266362   2.756   0.956   6.335 -0.9295 -1.0585 -0.4064
14983TIP3   OH266363   3.549   2.180  15.097  0.0738 -0.2711  0.1366
14983TIP3    H166364   3.622   2.186  15.158  0.7412  1.1349 -0.7411
14983TIP3    H266365   3.526   2.087  15.096  0.2263 -0.3743  2.2733
14984TIP3   OH266366   3.046   2.755  13.127  0.6159 -0.1349  0.1102
14984TIP3    H166367   3.034   2.817  13.199  1.2663  0.8970 -0.6505
14984TIP3    H266368   2.964   2.705  13.126  0.5931 -0.1917  1.5609
14985TIP3   OH266369   2.875   1.023   1.254  0.1445 -0.2899 -0.4668
14985TIP3    H166370   2.829   1.085   1.310 -2.0442 -1.8321 -0.4239
14985TIP3    H266371   2.807   0.987   1.197  1.8648 -0.5298 -2.5027
14986TIP3   OH266372   4.219   1.278  15.842  0.3991  0.8058  0.3884
14986TIP3    H166373   4.266   1.196  15.859  0.2568  0.9970  1.8370
14986TIP3    H266374   4.287   1.345  15.840  0.6881  0.5383 -2.1840
14987TIP3   OH266375   3.138   2.655   5.258 -0.2595 -0.9398  0.0536
14987TIP3    H166376   3.064   2.595   5.264 -1.6339  0.5465 -1.1216
14987TIP3    H266377   3.146   2.691   5.346 -1.5137 -0.4904  0.0036
14988TIP3   OH266378   1.168   4.501   2.813 -0.0690 -0.7037  0.4157
14988TIP3    H166379   1.092   4.533   2.862 -0.3063  0.5237 -0.6960
14988TIP3    H266380   1.131   4.456   2.737  0.2369  1.6128 -1.2085
14989TIP3   OH266381   2.263   0.498   3.424  0.0816  0.3222  0.1972
14989TIP3    H166382   2.253   0.486   3.519  1.1994 -1.0068  0.1695
14989TIP3    H266383   2.279   0.410   3.391  1.0742  0.9607 -1.0613
14990TIP3   OH266384   4.322   2.682  14.534  0.0535  0.1288  0.0183
14990TIP3    H166385   4.345   2.695  14.442 -0.3274  0.8328  0.0096
14990TIP3    H266386   4.244   2.626  14.532  0.0114  0.1905 -0.0961
14991TIP3   OH266387   0.584   5.131   2.725 -0.1111 -0.0718  0.6994
14991TIP3    H166388   0.678   5.115   2.734 -0.5754 -2.8960  1.4951
14991TIP3    H266389   0.552   5.133   2.815 -1.3175 -3.3337  0.4629
14992TIP3   OH266390   3.648   1.054  10.848  0.5317 -0.3564  0.0900
14992TIP3    H166391   3.668   1.146  10.832 -0.0520 -0.3776 -0.8499
14992TIP3    H266392   3.725   1.020  10.892  0.8584  0.5211  0.2225
14993TIP3   OH266393   3.998   2.071  16.484 -0.5317 -0.0511 -0.7162
14993TIP3    H166394   4.006   1.980  16.512  3.6188  0.4339  0.2516
14993TIP3    H266395   3.965   2.065  16.394  2.2120 -2.7790 -1.6928
14994TIP3   OH266396   3.203   3.892  10.679  0.3704  0.6650 -0.2356
14994TIP3    H166397   3.215   3.942  10.599  2.1739  0.7258  0.0138
14994TIP3    H266398   3.160   3.811  10.651 -0.0318  1.1594 -1.0777
14995TIP3   OH266399   1.229   3.277  11.760  0.3782  0.1035  0.1264
14995TIP3    H166400   1.253   3.367  11.738 -0.1306 -0.0664 -1.1909
14995TIP3    H266401   1.246   3.270  11.855  1.8532  1.1189 -0.0271
14996TIP3   OH266402   2.368   3.528   4.843  0.0717  0.2798 -0.4305
14996TIP3    H166403   2.329   3.615   4.855 -1.3778 -0.5454  1.1580
14996TIP3    H266404   2.442   3.525   4.904  0.8487  0.7701 -1.3126
14997TIP3   OH266405   1.060   4.309   0.962  0.1360 -0.6128  0.4718
14997TIP3    H166406   1.051   4.278   0.873  2.9048 -0.1305 -0.0962
14997TIP3    H266407   1.140   4.267   0.994  1.2866  2.0303  1.3629
14998TIP3   OH266408   3.273   0.288   5.409  0.8876 -0.6209  0.1841
14998TIP3    H166409   3.338   0.218   5.416  0.5293 -1.1080 -1.0803
14998TIP3    H266410   3.204   0.252   5.353 -0.3805 -0.0245  1.2854
14999TIP3   OH266411   2.760   2.463   2.278  0.1403  0.4503  0.0861
14999TIP3    H166412   2.837   2.407   2.269  1.2160  1.7926  0.4630
14999TIP3    H266413   2.754   2.510   2.195 -0.0560  0.6041  0.1845
15000TIP3   OH266414   0.512   0.093  13.229 -0.2539 -0.8432  0.5375
15000TIP3    H166415   0.473   0.087  13.142 -0.8924 -0.2256  0.7716
15000TIP3    H266416   0.438   0.090  13.289  0.1977 -1.5183  1.0830
15001TIP3   OH266417   0.403   4.349   3.171  0.5197  0.4635 -0.3305
15001TIP3    H166418   0.310   4.373   3.174  0.9165  2.1597  2.3016
15001TIP3    H266419   0.449   4.433   3.168  1.9672 -0.3025 -0.3456
15002TIP3   OH266420   3.262   2.807   0.819 -0.0776 -0.5479  0.9195
15002TIP3    H166421   3.282   2.774   0.732  0.8355  0.5041  0.7001
15002TIP3    H266422   3.170   2.786   0.833 -0.1126 -1.1177 -0.1137
15003TIP3   OH266423   4.094   2.479  16.918 -0.0727  0.0643 -0.2198
15003TIP3    H166424   4.070   2.504  16.829 -0.4883  1.2090  0.1883
15003TIP3    H266425   4.169   2.420  16.907  0.2126  0.5991 -1.3099
15004TIP3   OH266426   6.628   4.973   3.390  0.0389  0.1723 -0.0595
15004TIP3    H166427   6.697   4.947   3.330  0.4364 -0.8561  0.8069
15004TIP3    H266428   6.672   4.982   3.475 -0.5913  1.1427  0.1895
15005TIP3   OH266429   0.584   4.523  11.249  0.0849 -0.4868 -0.1147
15005TIP3    H166430   0.527   4.594  11.219  0.0218 -0.7809 -0.6934
15005TIP3    H266431   0.525   4.450  11.266  0.2420 -0.6512 -0.2757
15006TIP3   OH266432   4.153   3.420   3.598  0.1807 -1.0015 -0.4481
15006TIP3    H166433   4.104   3.384   3.672  0.0594 -0.0136 -0.0334
15006TIP3    H266434   4.090   3.421   3.526 -0.5009  0.4393  0.1316
15007TIP3   OH266435   3.730   3.695   4.499  0.0172 -0.0329  0.2272
15007TIP3    H166436   3.721   3.666   4.408  1.8336  0.5700 -0.1939
15007TIP3    H266437   3.813   3.744   4.500 -0.4539  0.8119  1.9950
15008TIP3   OH266438   1.222   0.300  13.025 -0.4335  0.1228  0.8740
15008TIP3    H166439   1.195   0.345  12.944  1.0327 -0.8594 -0.2185
15008TIP3    H266440   1.147   0.244  13.047 -0.8298  0.3563  0.1618
15009TIP3   OH266441   4.727   4.865  11.930  0.1639  0.6605  0.5592
15009TIP3    H166442   4.719   4.779  11.972  3.6572 -0.1198 -0.0799
15009TIP3    H266443   4.697   4.851  11.840  1.5870 -0.2033  0.1883
15010TIP3   OH266444   2.665   2.405  16.949  0.1218  0.8081  0.2787
15010TIP3    H166445   2.615   2.461  16.890 -0.0978 -0.1226 -0.4500
15010TIP3    H266446   2.727   2.464  16.992  1.2692  1.3412 -1.9320
15011TIP3   OH266447   6.166   0.176   5.302  0.1051  0.7609  0.0214
15011TIP3    H166448   6.161   0.148   5.210 -0.6846  0.2349  0.2156
15011TIP3    H266449   6.150   0.096   5.352  1.7914  0.7680  0.6582
15012TIP3   OH266450   1.658   3.501  16.728 -0.0973 -0.4967 -0.0028
15012TIP3    H166451   1.717   3.426  16.728 -1.5125 -1.6663 -1.0734
15012TIP3    H266452   1.578   3.469  16.769 -0.2150  0.9109  0.9709
15013TIP3   OH266453   5.621   4.790  15.216  0.7504 -0.5441  0.3582
15013TIP3    H166454   5.599   4.747  15.133 -0.8140  0.6630  0.0843
15013TIP3    H266455   5.666   4.870  15.190 -0.7123  0.3862  0.5757
15014TIP3   OH266456   6.380   3.647  11.954 -0.3938  0.1457 -0.5107
15014TIP3    H166457   6.315   3.621  11.889 -0.9343 -2.0149  0.7783
15014TIP3    H266458   6.331   3.659  12.035  0.5087  0.9519 -0.0472
15015TIP3   OH266459   6.453   1.250  16.774  0.2170 -0.2292 -0.3655
15015TIP3    H166460   6.494   1.165  16.789  2.5296  1.0039  1.0358
15015TIP3    H266461   6.476   1.272  16.684  1.8210 -0.0390  0.0589
15016TIP3   OH266462   6.435   3.311  11.931  0.2323  0.1154 -0.1473
15016TIP3    H166463   6.352   3.263  11.936  1.1001 -1.4885 -0.4431
15016TIP3    H266464   6.413   3.400  11.956 -1.2569 -0.6754  1.5534
15017TIP3   OH266465   6.700   6.481  14.379 -0.5738 -0.1215  0.3327
15017TIP3    H166466   6.720   6.502  14.287 -2.3962 -0.7598 -0.2462
15017TIP3    H266467   6.646   6.553  14.409  0.4313  0.3391  1.0960
15018TIP3   OH266468   4.786   0.095   6.426  0.0474 -0.0561  0.3034
15018TIP3    H166469   4.838   0.015   6.439 -0.9545 -0.4372  2.5679
15018TIP3    H266470   4.834   0.163   6.473 -0.2777  0.1370  0.3590
15019TIP3   OH266471   0.261   3.340  12.159  0.2800  0.1533  0.2794
15019TIP3    H166472   0.186   3.399  12.164  0.4669  0.3639  0.6870
15019TIP3    H266473   0.288   3.343  12.067  1.1960  1.8551  0.5593
15020TIP3   OH266474   1.720   0.573   2.045 -0.1560  0.4661  0.0696
15020TIP3    H166475   1.747   0.484   2.064 -0.3910  0.8316  2.3749
15020TIP3    H266476   1.755   0.625   2.117 -0.5296  2.1539 -0.9118
15021TIP3   OH266477   4.530   6.193  11.866 -0.0004  0.3584  0.0023
15021TIP3    H166478   4.460   6.127  11.862  0.0531  0.3492 -1.8811
15021TIP3    H266479   4.586   6.172  11.791  2.4279 -0.0408  1.8328
15022TIP3   OH266480   5.041   5.076   2.283 -0.5162  0.0767  0.5215
15022TIP3    H166481   4.977   5.119   2.225 -0.2239 -1.0979 -0.7098
15022TIP3    H266482   5.118   5.062   2.228  0.7060  1.1308  1.8853
15023TIP3   OH266483   5.679   1.692  13.326 -0.2725 -0.2597 -0.7691
15023TIP3    H166484   5.753   1.679  13.384  0.7891 -0.0123 -2.0173
15023TIP3    H266485   5.605   1.710  13.384  0.3910 -1.6026  0.5507
15024TIP3   OH266486   4.421   3.627   2.902  0.4117  0.2249 -0.3733
15024TIP3    H166487   4.448   3.717   2.917  1.9144 -0.6150  2.8051
15024TIP3    H266488   4.327   3.626   2.923  0.1541  1.1717 -1.3744
15025TIP3   OH266489   3.182   1.456   5.987  0.0719 -0.3201  0.1848
15025TIP3    H166490   3.209   1.387   5.926  0.8495 -0.5818  0.8143
15025TIP3    H266491   3.115   1.415   6.042 -1.1174  0.1134 -0.9055
15026TIP3   OH266492   5.095   6.257  12.038 -0.5698 -0.2312  0.3190
15026TIP3    H166493   5.184   6.291  12.033 -0.6852  0.1366  0.6915
15026TIP3    H266494   5.074   6.231  11.949 -0.2887  0.1981  0.1256
15027TIP3   OH266495   0.890   1.414  15.590 -0.8846 -0.3626  0.2498
15027TIP3    H166496   0.954   1.396  15.659  1.2440 -1.0652 -1.7704
15027TIP3    H266497   0.872   1.508  15.598  2.4595  0.4836 -0.6365
15028TIP3   OH266498   3.922   3.135   0.052  0.0508 -0.4368  0.6718
15028TIP3    H166499   3.929   3.219   0.099  2.2284 -0.4368  0.4852
15028TIP3    H266500   3.972   3.074   0.107  0.0624 -1.1557 -0.1259
15029TIP3   OH266501   1.445   2.985   0.383 -0.2030 -0.4028 -0.4190
15029TIP3    H166502   1.485   2.904   0.351 -0.3228 -0.3845 -0.6207
15029TIP3    H266503   1.404   2.961   0.466 -1.4501 -0.8998 -1.1328
15030TIP3   OH266504   2.876   3.969  12.313 -0.2172 -0.1977  0.1420
15030TIP3    H166505   2.869   3.980  12.408 -1.0749  1.1165 -0.0402
15030TIP3    H266506   2.790   3.996  12.279 -0.6445 -2.5959 -0.8890
15031TIP3   OH266507   3.604   3.990   4.789 -0.1400 -0.5137 -0.2025
15031TIP3    H166508   3.615   4.047   4.713 -0.0768  0.7948  0.7543
15031TIP3    H266509   3.512   4.000   4.812  0.2353  0.5437  0.9623
15032TIP3   OH266510   1.019   2.058  13.196  0.1312  0.4405 -0.1760
15032TIP3    H166511   1.080   2.089  13.263 -0.0017 -0.0554  0.1824
15032TIP3    H266512   1.073   2.043  13.119  0.3375  0.7169 -0.0850
15033TIP3   OH266513   3.761   4.139   5.935 -0.2615 -0.4699 -0.0488
15033TIP3    H166514   3.727   4.208   5.992 -0.4220 -0.4101 -0.2133
15033TIP3    H266515   3.688   4.118   5.877 -0.0205 -0.3417 -0.4067
15034TIP3   OH266516   6.143   0.437   5.348 -0.4741 -0.4030  0.4879
15034TIP3    H166517   6.047   0.438   5.348 -0.5053 -1.5116  1.3488
15034TIP3    H266518   6.166   0.346   5.326  0.4188  0.1793 -1.1935
15035TIP3   OH266519   5.307   5.177   1.935 -0.4071  0.6271 -0.4483
15035TIP3    H166520   5.387   5.136   1.969 -0.6709  0.9801  0.6147
15035TIP3    H266521   5.336   5.264   1.907  0.1301 -0.1814 -2.6040
15036TIP3   OH266522   3.157   0.571  11.603 -0.8253  0.5743 -0.3679
15036TIP3    H166523   3.087   0.506  11.597 -0.6172  0.2563  0.5365
15036TIP3    H266524   3.218   0.547  11.534 -0.6834 -0.2776  0.0384
15037TIP3   OH266525   3.368   3.054   5.641  0.2139 -0.2093 -0.2158
15037TIP3    H166526   3.374   2.966   5.602 -2.7240  0.0452 -1.5956
15037TIP3    H266527   3.310   3.043   5.716  0.4671  0.4029  0.0743
15038TIP3   OH266528   4.702   3.971   1.187 -0.3164  0.0262 -0.0291
15038TIP3    H166529   4.719   3.878   1.204 -0.3010 -0.3271 -1.7786
15038TIP3    H266530   4.635   3.996   1.251 -0.2919 -1.1763  0.4816
15039TIP3   OH266531   2.240   5.349  13.309 -0.1763 -0.0935 -0.5044
15039TIP3    H166532   2.203   5.423  13.260 -1.4805 -0.6285 -0.3874
15039TIP3    H266533   2.163   5.298  13.335  0.7534 -2.4273 -2.0557
15040TIP3   OH266534   5.031   1.839   0.737 -0.0339  0.7993 -0.0135
15040TIP3    H166535   5.050   1.875   0.824  1.7987  2.5413 -1.0481
15040TIP3    H266536   5.099   1.772   0.724  1.5020  2.4797 -1.1328
15041TIP3   OH266537   4.443   0.301  12.650 -0.1519 -0.3899  0.5030
15041TIP3    H166538   4.398   0.227  12.608  0.4983 -1.3192  1.3838
15041TIP3    H266539   4.531   0.268  12.667  0.6480  1.1124 -0.4508
15042TIP3   OH266540   1.347   2.177  16.183 -0.8007 -0.3924 -0.2014
15042TIP3    H166541   1.442   2.181  16.193 -0.7623 -1.0316 -0.2621
15042TIP3    H266542   1.313   2.166  16.272 -0.7766 -0.7822 -0.2379
15043TIP3   OH266543   5.688   3.573  14.539  0.3774  0.4637 -0.0653
15043TIP3    H166544   5.763   3.536  14.493 -0.3199 -0.8428 -0.1770
15043TIP3    H266545   5.674   3.516  14.614 -0.2086  0.9838  0.2354
15044TIP3   OH266546   5.009   5.700  13.695  0.2212 -0.1313  0.1439
15044TIP3    H166547   4.957   5.631  13.735  0.2494 -0.9285 -1.1357
15044TIP3    H266548   5.099   5.667  13.696  0.1374 -0.4674 -1.1132
15045TIP3   OH266549   3.497   1.941  13.718 -0.4045  0.0307 -0.2256
15045TIP3    H166550   3.508   2.025  13.762  1.4576 -0.4294  0.3012
15045TIP3    H266551   3.550   1.949  13.638 -0.2763 -0.5877 -0.2148
15046TIP3   OH266552   1.242   6.066  15.000  0.1478  0.1586 -0.1701
15046TIP3    H166553   1.334   6.091  15.007  0.1324  0.2517 -0.2906
15046TIP3    H266554   1.197   6.121  15.064 -0.2468  2.2946 -2.1304
15047TIP3   OH266555   5.638   5.446  11.857 -0.2334 -0.1810  0.0276
15047TIP3    H166556   5.609   5.537  11.844 -2.2772 -1.0392 -1.8926
15047TIP3    H266557   5.720   5.440  11.809 -1.0640  0.1811 -1.4832
15048TIP3   OH266558   6.692   0.339  16.123 -0.1749 -0.3328  0.7952
15048TIP3    H166559   6.742   0.348  16.205  0.2620 -0.3841  0.5387
15048TIP3    H266560   6.733   0.401  16.063 -0.6263 -0.1495  0.6713
15049TIP3   OH266561   0.693   5.702  16.166  0.2800 -0.0472  0.3971
15049TIP3    H166562   0.769   5.684  16.220 -0.1853 -0.3827  0.9541
15049TIP3    H266563   0.655   5.782  16.203 -0.6533 -0.8660  1.2736
15050TIP3   OH266564   6.376   1.311   3.773 -0.4091 -0.2333 -0.8955
15050TIP3    H166565   6.364   1.307   3.868  1.6108  0.0529 -0.5689
15050TIP3    H266566   6.381   1.405   3.754 -1.1639 -0.2754 -1.3663
15051TIP3   OH266567   2.874   4.882  12.458  0.2881  0.3137 -0.2649
15051TIP3    H166568   2.858   4.789  12.444 -0.2925  0.4765 -0.7350
15051TIP3    H266569   2.963   4.896  12.426  0.6919 -0.2341  0.5848
15052TIP3   OH266570   5.791   6.245  11.263  0.0827 -0.5434 -0.4577
15052TIP3    H166571   5.815   6.293  11.184  0.2774 -0.8410 -0.5834
15052TIP3    H266572   5.744   6.308  11.317  1.5341  0.1954 -0.0162
15053TIP3   OH266573   3.213   3.651   4.827 -0.4525 -0.2440  0.2934
15053TIP3    H166574   3.120   3.634   4.816 -0.0323 -3.7060  1.0048
15053TIP3    H266575   3.220   3.695   4.912 -1.4263  0.4905  0.0068
15054TIP3   OH266576   3.963   3.602  15.254 -0.2848 -0.0637 -0.2908
15054TIP3    H166577   3.949   3.567  15.166  1.5067 -0.4282 -0.4590
15054TIP3    H266578   3.906   3.548  15.310 -2.0734  0.7083 -1.2792
15055TIP3   OH266579   0.286   4.031  10.647  0.1456  0.2289  0.0524
15055TIP3    H166580   0.323   4.076  10.572 -1.2893 -0.4572 -1.1288
15055TIP3    H266581   0.304   3.938  10.630  1.8773  0.1740  1.7734
15056TIP3   OH266582   2.402   3.577   2.363 -0.4432  0.0096 -0.3736
15056TIP3    H166583   2.427   3.493   2.401 -3.3878 -0.7730  0.1040
15056TIP3    H266584   2.469   3.638   2.392  0.0790 -1.5677  1.9618
15057TIP3   OH266585   5.918   6.743  13.507  0.5969  0.1307  0.0144
15057TIP3    H166586   5.908   6.804  13.580 -1.2954 -0.2112  0.0964
15057TIP3    H266587   5.997   6.772  13.462 -0.2812  2.7547 -0.0243
15058TIP3   OH266588   5.299   0.220   2.256  0.0696  0.1910 -0.6147
15058TIP3    H166589   5.252   0.149   2.300  3.0313 -1.2486  0.5674
15058TIP3    H266590   5.344   0.177   2.183 -1.0040  1.6626 -2.2138
15059TIP3   OH266591   3.985   1.582   2.472 -0.0328 -0.7092 -0.1478
15059TIP3    H166592   4.069   1.545   2.448  1.1138  1.6025 -0.0226
15059TIP3    H266593   3.942   1.515   2.525  1.1566 -2.4215 -1.2601
15060TIP3   OH266594   4.801   0.999  13.661  0.4499  0.1215 -0.1023
15060TIP3    H166595   4.777   0.922  13.713 -1.6970  1.0933  0.4444
15060TIP3    H266596   4.719   1.027  13.620  1.7608  0.2954 -2.8822
15061TIP3   OH266597   2.491   0.371  14.384 -0.0694 -0.1147  0.0631
15061TIP3    H166598   2.410   0.383  14.334 -0.0884 -2.4265 -0.5617
15061TIP3    H266599   2.514   0.459  14.413 -1.6660  0.9032 -1.5259
15062TIP3   OH266600   5.336   0.491   2.909  0.0805 -0.1258  0.7837
15062TIP3    H166601   5.255   0.467   2.955 -2.1071  3.1300 -0.9180
15062TIP3    H266602   5.380   0.551   2.969 -1.4768  2.1022 -0.1667
15063TIP3   OH266603   0.295   4.805  12.652 -0.1641 -0.5595 -0.4706
15063TIP3    H166604   0.242   4.735  12.689  1.2434 -0.1228  2.6735
15063TIP3    H266605   0.381   4.765  12.637  0.8466  0.5447  1.9739
15064TIP3   OH266606   3.155   4.110  16.431  0.4336  0.5743  0.3084
15064TIP3    H166607   3.221   4.106  16.499  1.1867  2.3623 -0.2573
15064TIP3    H266608   3.143   4.204  16.415 -1.1134  0.2416 -0.6841
15065TIP3   OH266609   1.412   4.823   3.435 -0.4166 -0.4855  0.1457
15065TIP3    H166610   1.428   4.872   3.516 -1.7568 -1.2435  0.9106
15065TIP3    H266611   1.328   4.856   3.404 -0.3212 -0.8155 -0.4753
15066TIP3   OH266612   0.848   5.283   3.902 -0.4028 -0.5671  0.5514
15066TIP3    H166613   0.843   5.367   3.949 -0.3203 -0.8815  1.1350
15066TIP3    H266614   0.940   5.273   3.880 -0.7754  0.9166 -2.2093
15067TIP3   OH266615   0.962   1.163   2.505 -0.3899 -0.1022 -0.1672
15067TIP3    H166616   0.878   1.198   2.535 -0.3221  0.7768 -0.9880
15067TIP3    H266617   0.957   1.069   2.527 -1.7872 -0.1653 -0.6558
15068TIP3   OH266618   2.956   3.792   4.658  0.1485  0.0183 -0.3725
15068TIP3    H166619   2.906   3.717   4.625  0.6520 -0.2957 -0.4369
15068TIP3    H266620   2.933   3.798   4.751 -1.0719  0.7415 -0.7018
15069TIP3   OH266621   2.796   6.321  11.051 -0.5796 -0.0588 -0.0109
15069TIP3    H166622   2.779   6.414  11.034  1.1062  1.2186  4.0095
15069TIP3    H266623   2.886   6.308  11.020 -0.9292 -0.4675 -0.8688
15070TIP3   OH266624   4.930   0.400   3.749  0.4043 -0.5658 -0.0750
15070TIP3    H166625   5.010   0.373   3.794  0.5520  1.6986  1.1159
15070TIP3    H266626   4.866   0.413   3.818 -0.1305  0.4593 -0.7336
15071TIP3   OH266627   1.580   6.660  16.888  0.3106  0.6872 -0.2168
15071TIP3    H166628   1.504   6.687  16.939 -0.4232  2.2408 -2.0029
15071TIP3    H266629   1.598   6.571  16.917 -2.2699  0.2176  0.1807
15072TIP3   OH266630   5.717   0.412   3.076 -0.5983  0.3481  0.2852
15072TIP3    H166631   5.637   0.362   3.089 -1.4887  1.1042 -1.7357
15072TIP3    H266632   5.699   0.497   3.116 -0.1064 -0.0342  1.3592
15073TIP3   OH266633   6.389   4.576  16.050  0.0294 -0.1605  0.4372
15073TIP3    H166634   6.306   4.615  16.076  1.1546  1.0822  2.3851
15073TIP3    H266635   6.455   4.640  16.076  1.6348 -1.1239 -1.0268
15074TIP3   OH266636   3.388   2.817  11.247  0.0388 -0.7543 -0.3953
15074TIP3    H166637   3.309   2.871  11.252  1.1206  0.8328  0.8505
15074TIP3    H266638   3.436   2.838  11.327  1.8050 -1.5160 -1.1940
15075TIP3   OH266639   6.636   1.974   5.167 -0.2569  0.0010  0.9559
15075TIP3    H166640   6.564   1.958   5.106  0.6582  0.3388 -0.2547
15075TIP3    H266641   6.600   2.034   5.232 -1.5131 -1.0630  1.2842
15076TIP3   OH266642   6.565   3.660   5.602  0.0669  0.2485  0.4715
15076TIP3    H166643   6.479   3.690   5.572 -0.4653 -2.3045 -0.9008
15076TIP3    H266644   6.602   3.735   5.647 -2.1629  2.0070 -0.3954
15077TIP3   OH266645   3.847   4.245   0.648 -0.8187 -0.4091  0.7692
15077TIP3    H166646   3.809   4.246   0.560 -0.6604 -0.1866  0.7030
15077TIP3    H266647   3.835   4.155   0.678 -1.1087 -0.4187  0.6223
15078TIP3   OH266648   2.316   1.694  12.089 -0.4321 -0.4535  0.1129
15078TIP3    H166649   2.321   1.637  12.165  0.9462 -2.1775 -1.1635
15078TIP3    H266650   2.273   1.774  12.120  0.1450 -1.0646  2.6720
15079TIP3   OH266651   1.041   3.182   4.930 -0.0705 -0.6929  0.3772
15079TIP3    H166652   1.126   3.155   4.963  0.1835 -0.7950 -0.3385
15079TIP3    H266653   1.006   3.104   4.888 -0.7641 -0.8080  1.1440
15080TIP3   OH266654   5.984   0.589   0.115  0.1382  0.4726  0.2864
15080TIP3    H166655   5.976   0.641   0.035 -0.0919 -0.1551 -0.1111
15080TIP3    H266656   6.024   0.648   0.179  2.1806  0.4460 -0.8576
15081TIP3   OH266657   3.906   3.516  12.399  0.2076 -0.7834  0.1111
15081TIP3    H166658   3.860   3.506  12.316 -0.9617  1.6640  0.3565
15081TIP3    H266659   3.853   3.579  12.448  2.6497  0.5112  1.2976
15082TIP3   OH266660   5.259   3.720  13.170  0.6013 -0.4113  0.0970
15082TIP3    H166661   5.264   3.800  13.118 -0.0026  0.1494  0.8885
15082TIP3    H266662   5.318   3.735  13.243  0.5291 -0.7143  0.2195
15083TIP3   OH266663   5.427   6.141   3.365 -0.6421 -0.1017 -0.3100
15083TIP3    H166664   5.393   6.064   3.319 -0.6089 -0.1226 -0.2998
15083TIP3    H266665   5.519   6.146   3.339 -0.5295 -0.3260  0.0457
15084TIP3   OH266666   2.026   1.447  14.536 -0.3127 -0.1098  0.1750
15084TIP3    H166667   2.077   1.370  14.510 -0.6272  0.2612 -1.7102
15084TIP3    H266668   2.031   1.506  14.460 -1.9034  0.7798  0.7105
15085TIP3   OH266669   6.487   5.641  14.884  0.0818 -0.7396 -0.2363
15085TIP3    H166670   6.551   5.577  14.915 -1.2972 -2.0235  0.0792
15085TIP3    H266671   6.457   5.606  14.800 -0.5921 -0.4490 -0.1257
15086TIP3   OH266672   4.765   5.566  13.456 -0.1348 -0.6537 -0.3583
15086TIP3    H166673   4.671   5.548  13.462  0.3162 -3.4183 -0.0485
15086TIP3    H266674   4.786   5.614  13.536 -1.2682 -0.0119 -0.4323
15087TIP3   OH266675   1.065   1.171   0.278  0.0474 -0.3768 -0.1087
15087TIP3    H166676   1.159   1.157   0.274  0.2828  0.9732 -3.5620
15087TIP3    H266677   1.050   1.216   0.361  2.8840  1.5491 -0.4972
15088TIP3   OH266678   0.316   0.678  14.962 -0.2664  0.8501 -0.7177
15088TIP3    H166679   0.368   0.744  14.918  2.2945 -1.6606 -1.7209
15088TIP3    H266680   0.299   0.611  14.896 -3.2959  0.6665  0.0787
15089TIP3   OH266681   6.342   5.895  17.006 -0.8112  0.0011  0.0195
15089TIP3    H166682   6.342   5.958  17.078 -1.5623  1.5754 -1.2861
15089TIP3    H266683   6.255   5.903  16.968 -0.9639 -1.9354 -0.1557
15090TIP3   OH266684   5.458   4.596   3.515  0.0328  0.5138  0.4038
15090TIP3    H166685   5.371   4.602   3.476 -0.0637  1.7210  0.7602
15090TIP3    H266686   5.511   4.549   3.450 -0.7469  0.2428 -0.0437
15091TIP3   OH266687   1.122   0.865   4.822 -0.2229  0.3097 -0.3530
15091TIP3    H166688   1.043   0.818   4.848  1.0195 -0.9723  1.4292
15091TIP3    H266689   1.156   0.816   4.747 -0.8851  0.6254 -0.8666
15092TIP3   OH266690   3.245   4.810  12.294  0.0861  0.4320 -0.1383
15092TIP3    H166691   3.178   4.872  12.268  0.0973  0.2907 -0.5206
15092TIP3    H266692   3.227   4.732  12.241  1.0281  0.6752 -0.8510
15093TIP3   OH266693   4.028   4.611   1.826 -0.2860 -0.0506 -0.0111
15093TIP3    H166694   4.011   4.597   1.919 -0.2133  0.4123  0.0719
15093TIP3    H266695   4.096   4.679   1.824 -1.2984  0.9865 -0.4231
15094TIP3   OH266696   6.653   5.235  15.928 -0.0458  0.2817  0.5298
15094TIP3    H166697   6.737   5.266  15.895 -0.7978  2.0417  0.1810
15094TIP3    H266698   6.638   5.284  16.009  0.7849 -2.4602  2.5242
15095TIP3   OH266699   3.411   0.707   5.683 -0.1057 -0.0193  0.6142
15095TIP3    H166700   3.351   0.635   5.665  1.2668 -0.9970 -0.1946
15095TIP3    H266701   3.469   0.673   5.751  0.6890  0.2349  0.0761
15096TIP3   OH266702   3.180   5.881  11.748 -0.3625  0.0136 -0.7471
15096TIP3    H166703   3.177   5.970  11.784 -2.2418 -0.8478  1.4657
15096TIP3    H266704   3.092   5.867  11.714  0.4368 -0.4130 -2.7750
15097TIP3   OH266705   4.110   4.465  11.965 -0.6101 -0.0091  0.6029
15097TIP3    H166706   4.130   4.373  11.944  0.1609 -0.5011  3.0956
15097TIP3    H266707   4.111   4.510  11.881  1.9876 -1.7524 -0.4294
15098TIP3   OH266708   4.879   3.522  12.546 -0.2556  0.3312 -0.6339
15098TIP3    H166709   4.895   3.470  12.625  0.6967  0.3628 -0.8013
15098TIP3    H266710   4.952   3.584  12.542 -0.3480  0.3977 -1.4942
15099TIP3   OH266711   0.378   5.408   0.257 -0.2605  0.0393 -0.6295
15099TIP3    H166712   0.379   5.336   0.320  3.2751  0.4202 -0.0413
15099TIP3    H266713   0.300   5.458   0.278 -1.5049 -2.2634  0.5340
15100TIP3   OH266714   4.076   3.760  14.379  0.2352  0.5561  0.1248
15100TIP3    H166715   4.023   3.778  14.301 -1.5424 -2.2421  0.5324
15100TIP3    H266716   4.018   3.781  14.452  0.4187 -0.6061  0.6154
15101TIP3   OH266717   0.333   6.366   4.728  0.0736  0.0467  0.2948
15101TIP3    H166718   0.321   6.271   4.730  0.3451  0.0150  0.4761
15101TIP3    H266719   0.292   6.397   4.808 -0.3621  0.1255  0.0439
15102TIP3   OH266720   1.025   1.178   1.874  0.7784  0.2387 -0.2253
15102TIP3    H166721   0.972   1.228   1.810  1.5695  1.3913 -0.0183
15102TIP3    H266722   0.971   1.175   1.952  0.5731  0.4792 -0.3545
15103TIP3   OH266723   6.478   1.425  12.123 -0.2538  0.4783  0.1024
15103TIP3    H166724   6.476   1.447  12.029 -0.7728 -1.3246 -0.3538
15103TIP3    H266725   6.504   1.506  12.166 -2.3903  2.0870 -1.3853
15104TIP3   OH266726   6.572   6.424  15.828  0.4120 -0.7379 -0.2163
15104TIP3    H166727   6.579   6.345  15.776  0.6568 -0.7840 -0.1122
15104TIP3    H266728   6.657   6.467  15.821  0.8996 -1.4120  1.2039
15105TIP3   OH266729   3.483   4.756  10.536  0.5804  0.1201 -0.3412
15105TIP3    H166730   3.505   4.788  10.449  0.1707  1.8791  0.1672
15105TIP3    H266731   3.567   4.732  10.575  0.9492  0.9241 -0.6246
15106TIP3   OH266732   4.484   6.781  15.108  0.0802  0.0978  0.9203
15106TIP3    H166733   4.396   6.747  15.092 -0.8068  1.1556  3.0257
15106TIP3    H266734   4.538   6.744  15.039 -2.3499  0.7686 -1.5113
15107TIP3   OH266735   2.882   0.123   2.016  0.2855  0.1887  0.1748
15107TIP3    H166736   2.871   0.213   1.987 -3.0196 -0.2091 -0.2304
15107TIP3    H266737   2.932   0.081   1.946  0.4425  1.3216 -0.4188
15108TIP3   OH266738   2.153   0.572  13.932  0.0594 -0.1295  0.4655
15108TIP3    H166739   2.086   0.638  13.949  1.3795  1.3421  0.3093
15108TIP3    H266740   2.225   0.622  13.892  1.0929 -1.6993  0.2730
15109TIP3   OH266741   2.970   4.400  16.142  0.3541 -0.1024  1.0310
15109TIP3    H166742   2.887   4.354  16.145 -0.4073  1.1473  0.0139
15109TIP3    H266743   3.014   4.365  16.065  0.1606  0.2276  0.7685
15110TIP3   OH266744   6.378   1.022  15.305  0.4214  0.2322 -0.1423
15110TIP3    H166745   6.424   0.944  15.336 -0.6718 -0.4819 -0.2790
15110TIP3    H266746   6.303   1.030  15.364 -2.3088 -1.7242 -3.0225
15111TIP3   OH266747   1.358   2.481   2.283 -0.0538  0.2056  0.5640
15111TIP3    H166748   1.295   2.552   2.294 -0.3075 -0.0136  0.5385
15111TIP3    H266749   1.311   2.415   2.232 -0.3013 -0.5933  1.7806
15112TIP3   OH266750   3.607   5.138  16.803 -0.1104 -0.5471  0.0640
15112TIP3    H166751   3.670   5.067  16.792 -0.3618 -0.8869  0.7527
15112TIP3    H266752   3.583   5.134  16.896  0.3618  0.8506  0.2569
15113TIP3   OH266753   2.967   4.472   5.377 -0.5051  0.7523 -0.3735
15113TIP3    H166754   2.894   4.460   5.316 -1.0689  0.8434  0.2745
15113TIP3    H266755   2.970   4.567   5.391 -2.4176  0.5496  2.1440
15114TIP3   OH266756   2.490   3.257  16.080 -1.2041  0.3090  0.5511
15114TIP3    H166757   2.433   3.330  16.106 -0.4019  1.3944 -0.6170
15114TIP3    H266758   2.496   3.264  15.985  0.4356 -0.1142  0.5918
15115TIP3   OH266759   4.933   1.101  12.449 -0.2331 -0.2183 -0.7206
15115TIP3    H166760   4.866   1.165  12.473 -0.2195 -0.3464 -0.3433
15115TIP3    H266761   4.884   1.028  12.412 -0.5970 -1.6516  2.3258
15116TIP3   OH266762   0.490   2.673   2.017 -0.1297  0.4726 -0.1562
15116TIP3    H166763   0.445   2.595   2.047  1.5532  0.2976  2.2059
15116TIP3    H266764   0.476   2.738   2.086  2.4263  0.6568  0.3102
15117TIP3   OH266765   1.410   6.132  14.581 -0.1111 -0.0439 -0.3437
15117TIP3    H166766   1.318   6.111  14.594 -0.0020 -0.2577  0.1419
15117TIP3    H266767   1.419   6.146  14.487 -1.0129  1.8049 -0.1939
15118TIP3   OH266768   3.881   3.184   3.937 -0.1109  0.1556  0.0267
15118TIP3    H166769   3.787   3.174   3.952  0.2200 -1.3078  1.3088
15118TIP3    H266770   3.913   3.095   3.924  0.9455  0.7295 -1.5859
15119TIP3   OH266771   0.680   4.242  16.579  0.0984 -0.5043  0.4167
15119TIP3    H166772   0.588   4.238  16.553 -0.0136  0.6437  0.5502
15119TIP3    H266773   0.677   4.248  16.675  0.3466 -1.2247  0.4682
15120TIP3   OH266774   5.663   4.070  14.721 -0.2553  0.1240 -0.0562
15120TIP3    H166775   5.661   4.140  14.786 -0.6800  1.0260 -1.0009
15120TIP3    H266776   5.571   4.059  14.695 -0.1331 -0.4631 -0.2585
15121TIP3   OH266777   5.035   2.907   1.049  0.3492  0.1079  0.3705
15121TIP3    H166778   5.096   2.848   1.005 -0.0730 -0.3122  0.3346
15121TIP3    H266779   4.988   2.851   1.111  0.5457  0.5824  0.9563
15122TIP3   OH266780   4.840   0.211  10.881  0.3938 -0.1349 -0.4363
15122TIP3    H166781   4.761   0.167  10.849  0.4097 -1.0248  0.6600
15122TIP3    H266782   4.859   0.167  10.964  2.1357 -0.0542 -0.7551
15123TIP3   OH266783   0.592   1.952  15.416  0.4496  0.3525 -0.4883
15123TIP3    H166784   0.660   1.948  15.347  1.4472  0.0633  0.4840
15123TIP3    H266785   0.596   2.042  15.448  1.1284  0.0619  0.2848
15124TIP3   OH266786   3.255   5.165  12.087 -0.2268 -0.2801 -0.3939
15124TIP3    H166787   3.258   5.148  11.993 -1.6977  1.3595 -0.7961
15124TIP3    H266788   3.170   5.206  12.101  0.3678  0.4013  1.4955
15125TIP3   OH266789   3.892   3.274  15.827  0.6696 -0.4403  0.6661
15125TIP3    H166790   3.914   3.348  15.770 -0.4830 -0.3224  0.3571
15125TIP3    H266791   3.903   3.308  15.916  2.2784 -0.5642  0.5534
15126TIP3   OH266792   3.033   1.557   3.750 -0.2610 -0.1934  0.4693
15126TIP3    H166793   3.088   1.627   3.714 -2.6220  0.9258 -1.2665
15126TIP3    H266794   3.077   1.476   3.724  1.2152  0.6148  0.3138
15127TIP3   OH266795   2.900   0.362  14.969  0.9620  0.3483 -0.0748
15127TIP3    H166796   2.968   0.305  14.933  1.7769  1.7677 -0.8287
15127TIP3    H266797   2.948   0.429  15.018  0.0089  0.3041  0.9605
15128TIP3   OH266798   2.551   3.208  11.642 -0.3196  0.1055  0.2470
15128TIP3    H166799   2.546   3.158  11.723 -0.6240  0.3777  0.3970
15128TIP3    H266800   2.463   3.245  11.630 -0.0592  0.7434  0.2304
15129TIP3   OH266801   1.604   4.036   5.268  0.0521  0.1891 -0.0431
15129TIP3    H166802   1.601   4.032   5.364 -1.5919  0.5376 -0.0373
15129TIP3    H266803   1.587   3.946   5.241 -0.7419  0.3081  0.0184
15130TIP3   OH266804   5.788   2.076  14.667 -0.8627  0.0334  0.1068
15130TIP3    H166805   5.816   1.990  14.700 -0.0951  1.3153  3.0987
15130TIP3    H266806   5.693   2.077  14.680 -1.1095 -0.8961 -1.4177
15131TIP3   OH266807   1.252   5.134   0.796  0.1294 -0.3305  0.4903
15131TIP3    H166808   1.344   5.144   0.823 -0.0196  1.1569  0.5153
15131TIP3    H266809   1.206   5.114   0.878  0.3647 -0.6638  0.5453
15132TIP3   OH266810   1.808   0.712   1.304  0.5381 -0.2545 -0.1521
15132TIP3    H166811   1.772   0.660   1.376  0.9327  0.3725  0.5107
15132TIP3    H266812   1.819   0.650   1.232  0.6459 -1.0026  0.5032
15133TIP3   OH266813   1.488   5.954   3.024 -0.2700  0.1239  0.0798
15133TIP3    H166814   1.501   5.987   3.113 -0.6819 -1.0724  0.6046
15133TIP3    H266815   1.449   5.867   3.036  0.1432 -0.2732 -1.2539
15134TIP3   OH266816   1.539   4.942   6.382 -0.7440  0.0618 -0.2075
15134TIP3    H166817   1.493   4.923   6.301  0.1095  0.1069 -0.7147
15134TIP3    H266818   1.583   5.025   6.366  1.3281 -1.0281 -0.5682
15135TIP3   OH266819   1.251   5.848   5.187  0.0829  0.0853  0.2915
15135TIP3    H166820   1.157   5.862   5.171  0.3452  0.5638 -0.8993
15135TIP3    H266821   1.279   5.925   5.236 -0.0632  0.1403  0.2892
15136TIP3   OH266822   1.863   5.242   0.496 -0.4770 -0.0106 -0.3743
15136TIP3    H166823   1.827   5.323   0.460  0.1676  0.2868 -0.3513
15136TIP3    H266824   1.825   5.236   0.584 -0.7356  0.1226 -0.4759
15137TIP3   OH266825   0.432   1.376   1.984  0.1346  0.7738 -0.5843
15137TIP3    H166826   0.404   1.296   2.030  0.8984 -0.0205 -1.4495
15137TIP3    H266827   0.351   1.421   1.963 -0.2752  0.6321  0.6244
15138TIP3   OH266828   2.790   2.558   2.570  0.1888  0.3668 -0.5399
15138TIP3    H166829   2.706   2.603   2.574 -1.7983 -3.0286 -0.1394
15138TIP3    H266830   2.813   2.559   2.477  0.1479  1.9504 -0.5678
15139TIP3   OH266831   0.497   1.132  14.069  0.4729  0.5780  0.3264
15139TIP3    H166832   0.569   1.075  14.041 -1.4533 -0.7534 -2.4023
15139TIP3    H266833   0.420   1.098  14.023 -1.7435  2.5744  2.2654
15140TIP3   OH266834   1.565   5.368  15.143  0.3323 -0.7084  0.5720
15140TIP3    H166835   1.635   5.401  15.087  1.4958 -1.4360  1.5554
15140TIP3    H266836   1.500   5.439  15.144  1.6418  0.5301  0.6640
15141TIP3   OH266837   0.940   0.150  12.576 -0.1490  0.1931 -0.3787
15141TIP3    H166838   0.967   0.139  12.667 -0.9882 -1.2181 -0.2714
15141TIP3    H266839   0.985   0.229  12.547  0.3867  0.4851  1.1596
15142TIP3   OH266840   5.871   1.058  12.427  0.5252 -0.1412  0.2548
15142TIP3    H166841   5.954   1.013  12.412 -0.3423 -1.8752  0.3827
15142TIP3    H266842   5.839   1.080  12.339  0.8988  0.1441  0.1875
15143TIP3   OH266843   2.240   4.687   3.208 -0.0635 -0.0203 -0.1764
15143TIP3    H166844   2.286   4.706   3.126  0.1724 -0.5043 -0.1601
15143TIP3    H266845   2.166   4.632   3.182  1.2243 -2.0324  0.1476
15144TIP3   OH266846   5.332   4.498  15.133  0.3743  0.1318  0.3637
15144TIP3    H166847   5.294   4.583  15.112  0.9296 -0.2441 -2.5918
15144TIP3    H266848   5.256   4.441  15.148 -0.0462  0.7548  0.6236
15145TIP3   OH266849   5.238   6.277  15.043 -0.1146 -0.1513  0.6371
15145TIP3    H166850   5.306   6.345  15.046 -1.5837  1.3750  2.2902
15145TIP3    H266851   5.245   6.234  15.128 -1.5736  0.4776  1.1105
15146TIP3   OH266852   4.445   4.401  15.492 -0.5624 -0.1372  0.4466
15146TIP3    H166853   4.535   4.376  15.513 -0.0265  0.6541 -0.7998
15146TIP3    H266854   4.453   4.460  15.417 -2.0775  0.4887  0.7342
15147TIP3   OH266855   1.984   3.257   5.546 -0.4089 -0.2112 -0.1746
15147TIP3    H166856   1.937   3.178   5.573 -0.1744 -0.5129 -0.6379
15147TIP3    H266857   1.918   3.313   5.505 -1.1905  1.0543  2.5556
15148TIP3   OH266858   1.083   6.733   3.969 -0.3436  0.1406 -0.2002
15148TIP3    H166859   1.146   6.661   3.964  1.9721  2.0506 -0.6313
15148TIP3    H266860   1.031   6.725   3.889  0.6432 -0.4266 -0.8071
15149TIP3   OH266861   6.039   1.006   1.117 -0.0390  0.2435 -1.3630
15149TIP3    H166862   5.955   1.011   1.072 -0.1485  1.8806 -1.0091
15149TIP3    H266863   6.034   0.925   1.168 -1.3887  0.3105 -1.3542
15150TIP3   OH266864   5.194   6.565   3.021 -0.0141 -0.0142  0.3942
15150TIP3    H166865   5.253   6.636   2.995  0.9357 -0.4804  1.1547
15150TIP3    H266866   5.179   6.515   2.941 -0.4483  0.8618 -0.0841
15151TIP3   OH266867   0.812   6.144   4.490  0.2785  0.1173  0.1114
15151TIP3    H166868   0.876   6.153   4.419  0.1774  0.0911  0.0162
15151TIP3    H266869   0.733   6.187   4.457  0.7036  1.5129  0.8202
15152TIP3   OH266870   6.100   0.836  13.319  0.0887 -0.0990 -0.2307
15152TIP3    H166871   6.104   0.891  13.241 -2.2659 -0.1585 -0.4571
15152TIP3    H266872   6.155   0.881  13.383 -0.8736  1.9399 -0.7541
15153TIP3   OH266873   4.060   3.509   5.002  0.2152  0.0539  0.2027
15153TIP3    H166874   4.063   3.415   4.988  0.1355  0.0408  0.2741
15153TIP3    H266875   4.013   3.543   4.926 -0.5047 -0.0505  0.5975
15154TIP3   OH266876   5.173   4.536  11.550 -0.5283  0.3990  0.0095
15154TIP3    H166877   5.256   4.562  11.510  0.9368  1.0388  3.1707
15154TIP3    H266878   5.183   4.442  11.567 -0.9219  0.2421 -0.5995
15155TIP3   OH266879   0.446   3.515   0.068  0.3305 -0.1186  0.4477
15155TIP3    H166880   0.368   3.481   0.024  0.0212  2.1985 -0.9331
15155TIP3    H266881   0.519   3.484   0.016  0.3298 -1.6430  1.3005
15156TIP3   OH266882   1.119   6.780   6.261 -0.1100  0.0292 -0.0701
15156TIP3    H166883   1.038   6.815   6.299 -0.5623  1.2139 -1.9733
15156TIP3    H266884   1.090   6.709   6.204  0.3512 -0.4070  0.2280
15157TIP3   OH266885   4.075   0.779   3.074 -0.1191 -0.6617 -0.5597
15157TIP3    H166886   4.166   0.783   3.104 -0.1967 -0.9289 -0.2855
15157TIP3    H266887   4.075   0.714   3.004 -0.6675 -3.1100  1.5616
15158TIP3   OH266888   6.133   3.952  11.993  0.1037  0.5986 -0.2893
15158TIP3    H166889   6.147   3.968  11.899  0.2041  0.0528 -0.3709
15158TIP3    H266890   6.158   4.034  12.035  0.5815  0.6666 -0.6962
15159TIP3   OH266891   3.580   4.736  13.456  0.1076 -0.1025  0.1328
15159TIP3    H166892   3.487   4.713  13.455 -0.0982  0.6817 -1.1638
15159TIP3    H266893   3.619   4.674  13.518 -1.2196 -0.6433  0.4690
15160TIP3   OH266894   2.622   3.839  11.239  0.4716  0.0261 -0.2095
15160TIP3    H166895   2.565   3.828  11.162  0.7363 -0.0466 -0.3949
15160TIP3    H266896   2.706   3.803  11.212  0.2932 -0.9233  0.4432
15161TIP3   OH266897   3.064   3.730   1.618 -0.0959  0.5864 -0.2468
15161TIP3    H166898   3.030   3.750   1.531 -1.2352  2.6305  0.5816
15161TIP3    H266899   3.125   3.658   1.604 -0.7560  0.3859 -2.6167
15162TIP3   OH266900   3.568   0.782   0.811  0.4377  0.3591  0.3630
15162TIP3    H166901   3.523   0.740   0.738  1.1140 -0.3098  0.3231
15162TIP3    H266902   3.502   0.788   0.880  0.5701 -1.6348  0.6998
15163TIP3   OH266903   5.264   3.708   3.679 -0.2195 -0.5557 -0.3235
15163TIP3    H166904   5.327   3.773   3.710  0.8379 -0.3778 -2.6221
15163TIP3    H266905   5.250   3.650   3.754  1.5781  0.2549  0.7003
15164TIP3   OH266906   6.093   2.949  11.926 -0.0395  0.0775 -0.3989
15164TIP3    H166907   6.052   2.933  11.842  1.9050  1.2359 -1.6575
15164TIP3    H266908   6.047   3.025  11.962 -0.7854 -0.3407 -0.4537
15165TIP3   OH266909   4.196   6.604  13.136  0.2401 -0.3505 -0.2386
15165TIP3    H166910   4.207   6.528  13.193 -0.5171  0.5204  1.1207
15165TIP3    H266911   4.102   6.619  13.133  0.3501  0.2844 -0.8564
15166TIP3   OH266912   3.303   0.959  14.303 -0.4783 -0.1920  0.0192
15166TIP3    H166913   3.213   0.988  14.289 -1.0517 -2.0411 -0.3603
15166TIP3    H266914   3.296   0.865  14.319  1.4212 -0.4547 -0.4308
15167TIP3   OH266915   6.090   4.453  16.756  0.9225  0.0950  0.0363
15167TIP3    H166916   6.053   4.509  16.824 -0.8034 -0.2786 -0.5441
15167TIP3    H266917   6.171   4.497  16.730  1.3838  0.4852  1.9678
15168TIP3   OH266918   3.137   5.326  14.870  0.3139 -0.1438 -0.1994
15168TIP3    H166919   3.191   5.334  14.948 -1.5678 -0.4500  1.1863
15168TIP3    H266920   3.063   5.272  14.896 -0.3896 -0.2454 -2.1950
15169TIP3   OH266921   4.129   5.657   4.964 -0.1072 -0.7546  0.3619
15169TIP3    H166922   4.161   5.690   4.880  0.0892  0.8803  1.0337
15169TIP3    H266923   4.208   5.638   5.015 -0.2254 -1.8010  0.1619
15170TIP3   OH266924   6.195   1.916   4.176  0.6283  0.2397 -0.0271
15170TIP3    H166925   6.196   1.824   4.149 -1.5392  0.6516 -1.6986
15170TIP3    H266926   6.253   1.918   4.253  0.0838 -2.6696  0.5885
15171TIP3   OH266927   3.851   3.014  15.112  0.3723 -0.6293  0.7797
15171TIP3    H166928   3.859   3.095  15.062 -0.8634 -0.6950  0.4337
15171TIP3    H266929   3.829   2.948  15.046  2.7532 -1.5648  0.8408
15172TIP3   OH266930   6.351   5.393   2.514 -0.7106  0.5780  0.0690
15172TIP3    H166931   6.297   5.319   2.487  0.3106  0.2052 -1.0163
15172TIP3    H266932   6.288   5.464   2.529 -1.7463 -0.5809  1.5767
15173TIP3   OH266933   0.261   5.270   2.572  0.9291  0.0217  0.3750
15173TIP3    H166934   0.320   5.240   2.503 -1.8542 -0.5127 -1.9683
15173TIP3    H266935   0.243   5.191   2.624  0.2610 -0.4635 -0.5546
15174TIP3   OH266936   3.421   4.904  13.884  0.5987  0.8198  0.5473
15174TIP3    H166937   3.362   4.864  13.820  0.1922  0.6435  1.0198
15174TIP3    H266938   3.378   4.986  13.908  0.4965  0.6505  0.9552
15175TIP3   OH266939   1.848   0.633  14.653  0.0468  0.4601 -0.4558
15175TIP3    H166940   1.905   0.699  14.614 -0.1063  1.0264  0.2671
15175TIP3    H266941   1.764   0.645  14.609 -0.5227  2.0111  0.9542
15176TIP3   OH266942   2.307   0.404  14.707  0.1371 -0.1673 -0.6935
15176TIP3    H166943   2.395   0.366  14.713  0.4703  0.6547 -0.2495
15176TIP3    H266944   2.260   0.367  14.782 -0.5109 -2.1113 -1.9967
15177TIP3   OH266945   5.676   1.369  16.067  0.9040 -0.1184 -0.3780
15177TIP3    H166946   5.606   1.354  16.131  1.3850  0.5346  0.3174
15177TIP3    H266947   5.716   1.283  16.054 -0.6525 -0.7181 -1.5591
15178TIP3   OH266948   1.710   1.253   4.389 -0.4288 -0.5472  0.4258
15178TIP3    H166949   1.737   1.342   4.368  1.2522 -0.7404  1.5144
15178TIP3    H266950   1.685   1.215   4.305  2.3484 -0.1444 -0.7075
15179TIP3   OH266951   3.020   2.963   5.209 -0.0223 -0.1845 -0.7051
15179TIP3    H166952   3.076   2.897   5.248 -2.1725 -1.0038  1.2599
15179TIP3    H266953   3.000   2.930   5.121 -0.4895 -1.8432 -0.0125
15180TIP3   OH266954   1.886   6.275   2.378  0.5050  0.1677  0.2085
15180TIP3    H166955   1.848   6.220   2.447 -0.0511  0.6185  0.2731
15180TIP3    H266956   1.813   6.328   2.347  0.9808  0.7123 -0.0059
15181TIP3   OH266957   3.222   3.097   0.546  0.1838  0.0914 -0.4148
15181TIP3    H166958   3.150   3.078   0.486 -0.5519 -0.4643  0.6081
15181TIP3    H266959   3.288   3.030   0.526 -1.2639 -2.0174  1.3113
15182TIP3   OH266960   2.360   1.405   6.416 -0.2551  0.3097 -0.1333
15182TIP3    H166961   2.443   1.438   6.381  0.5016  0.2361  1.4932
15182TIP3    H266962   2.385   1.338   6.479 -1.5487  0.3507  0.4621
15183TIP3   OH266963   3.350   6.608   4.028 -0.2105  0.5615 -0.1347
15183TIP3    H166964   3.434   6.651   4.009  0.5838  0.0412  1.8675
15183TIP3    H266965   3.284   6.670   3.998  0.9020  2.0631  0.3643
15184TIP3   OH266966   0.723   0.013   5.894 -0.4724 -0.2544  0.1585
15184TIP3    H166967   0.752   0.092   5.939 -1.4851 -0.2951  0.9359
15184TIP3    H266968   0.635   0.036   5.861 -0.0187 -0.4407 -1.2666
15185TIP3   OH266969   5.511   5.898   3.604  0.5771 -0.2183  0.7281
15185TIP3    H166970   5.525   5.924   3.695 -1.5329 -0.4022  1.1475
15185TIP3    H266971   5.421   5.865   3.602 -0.0191  1.3289 -1.7880
15186TIP3   OH266972   6.465   3.253   1.457  0.1671  0.1109 -0.2957
15186TIP3    H166973   6.424   3.199   1.389 -0.9194  0.1144  0.3406
15186TIP3    H266974   6.501   3.189   1.519  2.2134  0.0778 -1.4272
15187TIP3   OH266975   4.735   4.294  14.191  0.3391  0.1049  0.1920
15187TIP3    H166976   4.680   4.357  14.145 -1.2523 -0.8904  0.6697
15187TIP3    H266977   4.729   4.319  14.283 -1.0094 -1.2254  0.4924
15188TIP3   OH266978   6.498   2.806   4.128  0.5968  0.3137 -0.5522
15188TIP3    H166979   6.415   2.770   4.159  0.6247 -0.1736 -1.0428
15188TIP3    H266980   6.498   2.896   4.162  0.9594 -0.3954  1.4781
15189TIP3   OH266981   4.255   1.986   1.445  0.7558 -0.2940  0.3730
15189TIP3    H166982   4.160   1.991   1.455  0.7370 -1.2593  0.8363
15189TIP3    H266983   4.268   1.968   1.352  0.3258 -2.6653  0.7068
15190TIP3   OH266984   6.189   3.177  11.828  0.3913  0.1003 -0.1998
15190TIP3    H166985   6.209   3.194  11.737  0.1755  0.2074 -0.2298
15190TIP3    H266986   6.183   3.081  11.835 -3.0004  0.1072 -1.0874
15191TIP3   OH266987   2.245   3.955  15.445  0.4016 -0.0526  0.4189
15191TIP3    H166988   2.314   3.902  15.486  0.7170  0.8038  1.0103
15191TIP3    H266989   2.220   3.905  15.367  0.5009 -1.2139  1.0966
15192TIP3   OH266990   0.897   0.760   4.949  0.1991 -0.0724  0.5816
15192TIP3    H166991   0.919   0.809   5.027  0.2180  1.0019 -0.0838
15192TIP3    H266992   0.806   0.784   4.930  1.4240  3.1182 -2.1337
15193TIP3   OH266993   0.634   0.344   3.111  0.3270  0.3093  0.4573
15193TIP3    H166994   0.675   0.261   3.134  1.5475  0.4277 -1.1355
15193TIP3    H266995   0.544   0.320   3.087 -0.5737  0.0109  3.7035
15194TIP3   OH266996   5.162   1.638  13.340 -0.3807 -0.0094  0.1687
15194TIP3    H166997   5.088   1.584  13.311  0.2889 -0.0176 -1.6187
15194TIP3    H266998   5.146   1.651  13.434 -0.7021 -3.0881  0.6641
15195TIP3   OH266999   0.305   1.165   4.356  0.0622 -0.1285 -0.6027
15195TIP3    H167000   0.288   1.076   4.327  0.5159 -0.0855 -1.0313
15195TIP3    H267001   0.347   1.156   4.441 -0.2538 -0.3107 -0.4699
15196TIP3   OH267002   1.865   6.331  14.945  0.0508  0.1635  0.2052
15196TIP3    H167003   1.960   6.346  14.952  0.3434 -1.0054 -0.9143
15196TIP3    H267004   1.845   6.350  14.854 -0.4563 -1.2617 -0.0036
15197TIP3   OH267005   3.125   0.277  13.867 -0.2894  0.5143  0.5452
15197TIP3    H167006   3.171   0.211  13.815 -1.8974  0.7088 -1.2338
15197TIP3    H267007   3.126   0.356  13.813 -0.2307  1.3544  1.7298
15198TIP3   OH267008   1.582   4.661   2.245  0.2846  0.3028  0.5175
15198TIP3    H167009   1.529   4.640   2.168  2.0249  0.6435 -0.8187
15198TIP3    H267010   1.544   4.743   2.277 -1.0133 -0.2950  0.5889
15199TIP3   OH267011   0.853   2.296  16.833 -0.0966 -0.3422 -0.1800
15199TIP3    H167012   0.792   2.228  16.860 -0.8317 -0.0047 -0.9501
15199TIP3    H267013   0.935   2.275  16.879 -0.6590 -1.0442  0.5243
15200TIP3   OH267014   0.953   2.373   1.124 -0.2884 -0.1046  0.8049
15200TIP3    H167015   1.027   2.377   1.184  0.6445 -1.4661 -0.1857
15200TIP3    H267016   0.968   2.294   1.072 -2.6835 -0.6770  0.8605
15201TIP3   OH267017   2.654   6.544  12.376 -0.0126  0.5507 -0.3659
15201TIP3    H167018   2.733   6.532  12.322  0.0847 -0.2440 -0.0649
15201TIP3    H267019   2.592   6.588  12.319 -0.2723 -1.1781 -1.4833
15202TIP3   OH267020   4.845   4.290   4.816  0.1294  0.1649 -0.0800
15202TIP3    H167021   4.906   4.327   4.751  0.0654  1.6553  0.6636
15202TIP3    H267022   4.822   4.364   4.872  0.4533 -1.1313  1.8808
15203TIP3   OH267023   5.369   1.609  16.534  0.0016 -0.3987  0.0362
15203TIP3    H167024   5.405   1.666  16.601 -0.7453 -0.3858  0.4356
15203TIP3    H267025   5.274   1.623  16.537 -0.3038 -2.2857  0.7599
15204TIP3   OH267026   2.320   1.653  11.214 -0.1273 -0.0991 -0.1164
15204TIP3    H167027   2.387   1.721  11.224 -0.8966  0.3918  2.3815
15204TIP3    H267028   2.343   1.587  11.279 -0.3802 -1.4380 -1.3387
15205TIP3   OH267029   5.234   4.817   2.641 -0.1485  0.4253 -0.4319
15205TIP3    H167030   5.155   4.870   2.654  0.4843  1.1273  0.7166
15205TIP3    H267031   5.200   4.731   2.616 -1.2825  0.7496 -0.0964
15206TIP3   OH267032   6.094   1.728  14.069 -0.3008 -0.9729  0.4122
15206TIP3    H167033   6.039   1.653  14.046  0.6264 -1.0477 -1.8523
15206TIP3    H267034   6.184   1.697  14.055  0.1171  0.3952 -0.0814
15207TIP3   OH267035   1.219   1.061   5.168 -0.0500  0.4408 -0.1377
15207TIP3    H167036   1.282   1.133   5.173  1.0573 -0.5137  0.0371
15207TIP3    H267037   1.268   0.989   5.128 -0.2106 -1.1572  2.3011
15208TIP3   OH267038   2.786   1.779  15.588  0.5359  0.6248 -0.0150
15208TIP3    H167039   2.733   1.756  15.664 -0.1284 -1.2793 -0.9959
15208TIP3    H267040   2.857   1.833  15.624 -0.2673  0.5488  1.7909
15209TIP3   OH267041   2.631   4.106  12.186 -0.3120  0.2680  0.0161
15209TIP3    H167042   2.594   4.052  12.256  1.4245 -1.7560 -0.5508
15209TIP3    H267043   2.614   4.058  12.106  0.6607  0.9286 -0.6041
15210TIP3   OH267044   5.058   5.354  16.544  0.2470 -0.3853 -0.1730
15210TIP3    H167045   5.025   5.264  16.548  0.1275 -0.3121  0.8635
15210TIP3    H267046   5.023   5.396  16.623 -1.5937  1.2454 -1.7554
15211TIP3   OH267047   1.683   4.730  12.346 -0.0737 -0.5412  0.7048
15211TIP3    H167048   1.641   4.656  12.302  1.3416 -0.1202 -1.4861
15211TIP3    H267049   1.777   4.711  12.343  0.2294  0.7048  1.3300
15212TIP3   OH267050   3.244   1.047  16.705 -0.3565  0.0869 -0.3705
15212TIP3    H167051   3.234   1.135  16.739  0.3317 -0.1666  0.5183
15212TIP3    H267052   3.239   1.057  16.610  0.7290  1.2257 -0.3285
15213TIP3   OH267053   2.214   6.109  17.093  0.3827  0.2687  0.1551
15213TIP3    H167054   2.223   6.032  17.036  0.5713  1.9371 -2.1783
15213TIP3    H267055   2.123   6.136  17.081  0.3943  0.5770  0.7642
15214TIP3   OH267056   3.293   3.402  12.189 -0.5863  0.4455  0.1117
15214TIP3    H167057   3.269   3.382  12.099  0.8133  3.1262 -0.9483
15214TIP3    H267058   3.269   3.323  12.238 -1.2787 -1.1362 -2.5863
15215TIP3   OH267059   2.281   1.125   3.584  0.2747 -0.0949 -0.6986
15215TIP3    H167060   2.243   1.191   3.526  1.4833  2.3518  1.0949
15215TIP3    H267061   2.210   1.099   3.642 -0.0078  0.2678 -0.8799
15216TIP3   OH267062   2.483   2.346  16.542  0.0188  0.0383  0.3796
15216TIP3    H167063   2.544   2.409  16.582 -0.6577  0.0575  1.4020
15216TIP3    H267064   2.526   2.261  16.552  0.2529  0.1527  0.3516
15217TIP3   OH267065   6.622   4.915   2.950  0.2779 -0.0480 -0.3142
15217TIP3    H167066   6.530   4.890   2.946  0.7090 -1.9365  0.4418
15217TIP3    H267067   6.646   4.936   2.860 -1.4256  2.7784 -0.2308
15218TIP3   OH267068   1.154   3.515  11.371  0.4662  0.3547 -0.7423
15218TIP3    H167069   1.111   3.527  11.456 -0.2786  1.5521 -1.2616
15218TIP3    H267070   1.232   3.464  11.391  0.3785  0.7302  0.6849
15219TIP3   OH267071   5.393   1.249  12.633 -0.0326  0.5095 -0.0087
15219TIP3    H167072   5.373   1.273  12.542 -0.0818 -0.1080 -0.1646
15219TIP3    H267073   5.464   1.186  12.627  0.4189  0.9626  0.4280
15220TIP3   OH267074   1.969   5.290   4.020 -0.2039  0.1591 -0.1172
15220TIP3    H167075   1.957   5.199   4.047  1.4905  0.6922  2.8406
15220TIP3    H267076   1.889   5.334   4.047 -0.3261 -0.1226 -0.0135
15221TIP3   OH267077   4.372   1.620   3.611  0.8238  0.2586  0.1508
15221TIP3    H167078   4.424   1.602   3.533  0.5492 -2.3603  0.4704
15221TIP3    H267079   4.436   1.640   3.679  1.1593  0.9864 -0.3756
15222TIP3   OH267080   3.615   0.433  17.046 -0.3630 -0.3045  0.2066
15222TIP3    H167081   3.559   0.390  17.110  0.4417 -0.8822  0.5337
15222TIP3    H267082   3.643   0.362  16.988 -0.1399  0.0147 -0.0754
15223TIP3   OH267083   1.520   5.062   5.419 -0.7067  0.1812 -0.0344
15223TIP3    H167084   1.557   5.078   5.332  0.4984 -1.0084  0.2073
15223TIP3    H267085   1.496   5.148   5.452  0.0345  0.7887 -1.0310
15224TIP3   OH267086   0.305   1.209   0.544 -0.0819  0.4617 -0.4926
15224TIP3    H167087   0.383   1.259   0.521  0.3132  0.9071  1.5436
15224TIP3    H267088   0.255   1.267   0.601 -0.5007 -0.7925  0.4872
15225TIP3   OH267089   3.182   4.832  14.486  0.9126  0.3819  0.1853
15225TIP3    H167090   3.109   4.891  14.504 -0.6372 -1.2591 -0.4070
15225TIP3    H267091   3.256   4.872  14.531 -0.6011  1.4859  1.8564
15226TIP3   OH267092   1.893   5.020  14.538  0.6725  0.2584  0.0439
15226TIP3    H167093   1.909   5.103  14.582  0.7077  0.8529 -1.0488
15226TIP3    H267094   1.980   4.982  14.526  0.6920  0.2635  0.1690
15227TIP3   OH267095   3.767   5.844  13.501 -0.5560  0.3596  0.1199
15227TIP3    H167096   3.830   5.801  13.444  0.3126  0.4194  0.9966
15227TIP3    H267097   3.816   5.916  13.541 -0.9839  0.0178  1.3046
15228TIP3   OH267098   5.806   2.936   2.125 -0.2846  0.0398  0.0845
15228TIP3    H167099   5.881   2.880   2.145 -0.6508 -0.6595 -0.4522
15228TIP3    H267100   5.781   2.974   2.209  1.0314  0.7578  0.1812
15229TIP3   OH267101   0.856   0.970   5.552 -0.1305  0.0396  0.5031
15229TIP3    H167102   0.842   0.951   5.645 -0.1005 -3.2377 -0.0579
15229TIP3    H267103   0.768   0.973   5.515 -0.0768 -0.9574  0.2754
15230TIP3   OH267104   6.366   4.301   1.720 -0.1039  0.3148 -0.1605
15230TIP3    H167105   6.298   4.265   1.777  0.3405 -0.2349  0.0342
15230TIP3    H267106   6.431   4.231   1.714 -0.2806  0.2553 -1.6007
15231TIP3   OH267107   5.175   3.660   1.142  0.2848 -0.2156 -0.4789
15231TIP3    H167108   5.248   3.714   1.112  1.3472 -1.5475 -0.3761
15231TIP3    H267109   5.148   3.611   1.064  0.8936 -1.2562 -0.0573
15232TIP3   OH267110   4.221   2.982  11.454  0.3220 -0.8684 -0.0388
15232TIP3    H167111   4.133   3.018  11.455  0.1344 -1.1164 -2.2203
15232TIP3    H267112   4.268   3.030  11.522 -1.3100 -0.2901  0.7234
15233TIP3   OH267113   3.081   0.597  10.382  0.4517 -0.0664 -0.1586
15233TIP3    H167114   3.166   0.557  10.363  0.4811 -1.4039  2.3806
15233TIP3    H267115   3.100   0.661  10.451 -0.6259 -0.6863  0.7406
15234TIP3   OH267116   1.030   5.223  15.089 -0.2998  0.0137 -0.6994
15234TIP3    H167117   0.980   5.267  15.020  0.8874 -0.0145 -1.6189
15234TIP3    H267118   1.099   5.286  15.112  0.7881 -0.9286 -1.2876
15235TIP3   OH267119   0.129   1.957  16.629 -0.1704  0.5908 -0.5065
15235TIP3    H167120   0.157   1.867  16.644  0.5069  0.6441 -1.3555
15235TIP3    H267121   0.147   1.973  16.536 -0.0867  1.6662 -0.3220
15236TIP3   OH267122   1.173   2.528  16.124  0.6733 -0.4596  0.7223
15236TIP3    H167123   1.219   2.468  16.065 -1.4010 -0.3158 -1.1894
15236TIP3    H267124   1.240   2.559  16.185  2.6350 -1.6988 -0.7064
15237TIP3   OH267125   5.576   0.825   2.485 -0.4042 -0.2029 -0.1773
15237TIP3    H167126   5.480   0.834   2.485 -0.2335  2.8976  0.8741
15237TIP3    H267127   5.604   0.861   2.401 -0.1403 -0.3578 -0.1564
15238TIP3   OH267128   0.944   2.046   0.568  0.5482  0.0424  0.2084
15238TIP3    H167129   0.853   2.018   0.576  0.2884  1.0282  0.9523
15238TIP3    H267130   0.963   2.041   0.474 -0.5160  0.5248 -0.0450
15239TIP3   OH267131   0.154   1.420   5.695  0.7605 -0.2277  0.3469
15239TIP3    H167132   0.185   1.510   5.707 -0.6248  0.2917  0.1960
15239TIP3    H267133   0.061   1.423   5.717  0.7274 -1.6749  0.5167
15240TIP3   OH267134   0.250   0.093   0.610 -0.2341 -0.7664 -0.3407
15240TIP3    H167135   0.325   0.039   0.584  1.5865  1.6801 -0.4744
15240TIP3    H267136   0.225   0.138   0.529 -0.8987 -0.4236  0.0523
15241TIP3   OH267137   4.187   6.421  12.917  0.1922 -0.4154  0.3679
15241TIP3    H167138   4.175   6.507  12.958 -0.8647 -1.0120  1.3627
15241TIP3    H267139   4.144   6.360  12.976  1.2208 -1.6928 -0.1517
15242TIP3   OH267140   1.299   3.619  14.232  0.0972  0.0422  0.5950
15242TIP3    H167141   1.301   3.676  14.309  0.9683  0.6441  0.1453
15242TIP3    H267142   1.234   3.660  14.174 -0.1667 -0.1124  0.7783
15243TIP3   OH267143   2.117   6.268   4.849  0.0784 -0.2842 -0.0994
15243TIP3    H167144   2.178   6.296   4.781  0.6400 -1.8219 -0.2780
15243TIP3    H267145   2.145   6.179   4.871 -0.8898 -0.2904  1.2385
15244TIP3   OH267146   2.697   5.895  15.886 -0.0927  0.1392 -0.1128
15244TIP3    H167147   2.686   5.927  15.975 -0.1715  0.5035 -0.2525
15244TIP3    H267148   2.669   5.804  15.890 -2.4289  0.8043 -0.2887
15245TIP3   OH267149   0.942   4.440   5.686  0.4476  0.0034  0.5297
15245TIP3    H167150   0.877   4.486   5.633  0.4811  0.2890  0.7292
15245TIP3    H267151   1.013   4.503   5.696  1.1494 -0.6105 -0.4153
15246TIP3   OH267152   1.242   3.452   5.444 -0.3179 -0.1571 -0.5305
15246TIP3    H167153   1.223   3.546   5.440  1.0373  0.1979  0.5634
15246TIP3    H267154   1.289   3.440   5.527 -0.8522 -1.8850 -0.4352
15247TIP3   OH267155   1.953   5.416   4.898  0.1694  0.8693 -0.6015
15247TIP3    H167156   2.025   5.358   4.873  0.4112  2.0901 -3.0859
15247TIP3    H267157   1.989   5.504   4.886 -0.4729  1.5958  2.1603
15248TIP3   OH267158   6.242   5.914  14.941 -0.2568  0.4719  0.9757
15248TIP3    H167159   6.230   5.839  14.882  0.5423 -0.4014  1.8885
15248TIP3    H267160   6.163   5.914  14.995 -1.5608  1.9910 -0.7910
15249TIP3   OH267161   1.075   4.137  15.136 -0.1034 -0.7052 -0.5172
15249TIP3    H167162   1.065   4.073  15.066  2.1960 -1.0795 -0.5869
15249TIP3    H267163   1.097   4.219  15.091 -0.9276 -0.3665 -0.3242
15250TIP3   OH267164   6.623   3.482   3.897  0.0978 -0.5073  0.2829
15250TIP3    H167165   6.619   3.401   3.845  1.2108 -0.9664  0.8858
15250TIP3    H267166   6.638   3.453   3.986 -0.2463  0.3494  0.6294
15251TIP3   OH267167   0.506   0.464   3.915 -0.1187  0.3543 -0.0406
15251TIP3    H167168   0.532   0.520   3.988  0.6674 -1.1634  0.8956
15251TIP3    H267169   0.439   0.406   3.952 -0.5329  0.3033 -0.8420
15252TIP3   OH267170   4.833   0.117   4.221  0.6710 -0.0461  0.3390
15252TIP3    H167171   4.798   0.203   4.243  0.2420 -0.1063 -0.0924
15252TIP3    H267172   4.921   0.134   4.189  0.8913  0.1493  1.0295
15253TIP3   OH267173   1.519   0.349   0.161  0.2492 -0.3086 -0.3377
15253TIP3    H167174   1.579   0.389   0.224 -0.2497  1.5139 -0.9591
15253TIP3    H267175   1.576   0.310   0.096  0.7825  0.1705 -0.1689
15254TIP3   OH267176   5.094   6.006   3.878 -0.0870 -0.3055  0.3223
15254TIP3    H167177   5.015   6.024   3.828  1.8165  1.4487 -2.3263
15254TIP3    H267178   5.138   6.090   3.885  2.3902 -1.4955  0.1433
15255TIP3   OH267179   1.183   5.294  13.917 -0.5229  0.6219 -0.3296
15255TIP3    H167180   1.178   5.382  13.881  0.4594  0.4188 -1.0008
15255TIP3    H267181   1.178   5.306  14.012 -1.0054  1.3392 -0.4420
15256TIP3   OH267182   0.964   2.345   5.504  0.3502 -0.0811  0.4258
15256TIP3    H167183   1.024   2.277   5.536  0.2704 -0.8340 -0.9785
15256TIP3    H267184   0.898   2.353   5.573  0.4379 -1.3161  0.6714
15257TIP3   OH267185   6.538   3.849  13.878  0.0534  0.4663 -0.2153
15257TIP3    H167186   6.535   3.754  13.892 -2.7747  0.1011 -2.4156
15257TIP3    H267187   6.630   3.866  13.858  1.1840 -1.2810  2.7721
15258TIP3   OH267188   3.758   3.754  13.831  0.2069 -0.3455  0.5958
15258TIP3    H167189   3.739   3.702  13.753 -0.0681  0.4267  0.1298
15258TIP3    H267190   3.731   3.699  13.904 -1.3348 -0.3630  0.0552
15259TIP3   OH267191   0.087   0.386  15.127  0.5027 -0.1238  0.0664
15259TIP3    H167192   0.102   0.327  15.201 -2.9348 -1.1750  0.1166
15259TIP3    H267193   0.092   0.329  15.050 -2.3635 -0.5730  0.0837
15260TIP3   OH267194   6.357   3.735  12.539  0.7822  0.3765 -0.3252
15260TIP3    H167195   6.305   3.668  12.496  0.4024  0.5892 -0.2084
15260TIP3    H267196   6.354   3.712  12.632  0.2454  0.8188 -0.2266
15261TIP3   OH267197   5.003   3.317   5.654  0.2171 -0.4275  0.6863
15261TIP3    H167198   4.949   3.287   5.727  0.8432 -2.1936  0.4634
15261TIP3    H267199   5.033   3.404   5.681  1.2696 -1.4248  3.0358
15262TIP3   OH267200   1.026   5.368  13.587 -0.5372 -0.1296  0.0532
15262TIP3    H167201   1.107   5.404  13.553 -1.3168  0.4285 -1.2964
15262TIP3    H267202   1.024   5.278  13.554  1.3440 -1.5371  3.3119
15263TIP3   OH267203   1.726   5.512   5.806 -0.3197  0.1568 -0.0506
15263TIP3    H167204   1.685   5.588   5.847 -0.5328 -2.0800  4.5345
15263TIP3    H267205   1.662   5.481   5.742 -1.4747  2.1521  0.0626
15264TIP3   OH267206   4.316   0.436  16.958 -0.0107 -0.2636 -0.7331
15264TIP3    H167207   4.252   0.493  17.000 -0.6470  0.2254 -2.2853
15264TIP3    H267208   4.310   0.354  17.006 -1.7372 -0.1790 -0.7393
15265TIP3   OH267209   0.553   3.018   0.261  0.6322  0.0902 -0.3307
15265TIP3    H167210   0.589   2.929   0.256  0.7366  0.1175 -0.0637
15265TIP3    H267211   0.459   3.007   0.247  0.4769 -0.1964  0.7981
15266TIP3   OH267212   0.067   5.490   4.838 -0.4148  0.4225  0.5658
15266TIP3    H167213   0.030   5.411   4.800 -0.3541  0.7623 -0.2197
15266TIP3    H267214   0.159   5.489   4.811 -0.3006  0.5323  0.9382
15267TIP3   OH267215   0.053   3.030  14.323 -0.4701  0.3082  0.0268
15267TIP3    H167216   0.049   2.959  14.387  0.0920 -0.7760 -1.0836
15267TIP3    H267217   0.147   3.047  14.313 -0.5621  0.6018 -0.3524
15268TIP3   OH267218   4.449   6.746   1.550 -0.1771  0.4346 -0.4909
15268TIP3    H167219   4.472   6.818   1.609 -0.7397  0.7820 -0.6954
15268TIP3    H267220   4.359   6.764   1.524 -0.1364 -0.0537 -0.9735
15269TIP3   OH267221   6.250   4.709   4.024  0.4601 -0.0538  0.1680
15269TIP3    H167222   6.341   4.681   4.011  0.2918 -1.0057  0.9523
15269TIP3    H267223   6.238   4.712   4.119 -0.7503 -1.4101  0.0957
15270TIP3   OH267224   5.849   5.960   3.231 -0.4842 -0.0998 -0.7464
15270TIP3    H167225   5.781   5.926   3.288 -1.6015  1.6272 -0.9664
15270TIP3    H267226   5.829   5.923   3.145 -1.3096  0.5810 -0.8595
15271TIP3   OH267227   1.779   5.981   5.961 -0.0003 -0.7548 -0.1968
15271TIP3    H167228   1.796   5.911   6.024 -0.6130 -0.3522  0.4378
15271TIP3    H267229   1.704   6.029   5.998  2.2439  2.1037  0.9970
15272TIP3   OH267230   4.476   2.709  11.178 -0.1778 -0.0387  0.2216
15272TIP3    H167231   4.398   2.667  11.214 -0.4626  0.4021  0.1337
15272TIP3    H267232   4.538   2.638  11.164 -0.6497 -0.4257  0.0739
15273TIP3   OH267233   5.299   3.720   4.639  0.4062 -0.6083 -0.3705
15273TIP3    H167234   5.298   3.721   4.543  0.1442  0.0956 -0.3634
15273TIP3    H267235   5.379   3.671   4.662  0.3515 -0.9717 -0.9446
15274TIP3   OH267236   3.990   5.326   3.585  0.1920 -0.0903  0.0439
15274TIP3    H167237   3.960   5.406   3.541  1.2765  0.8491  0.9362
15274TIP3    H267238   4.043   5.281   3.520  1.9710  1.3972  0.3902
15275TIP3   OH267239   0.551   2.708   1.745 -0.5889 -0.0727 -0.1889
15275TIP3    H167240   0.574   2.633   1.690  1.2579  0.3912 -0.1090
15275TIP3    H267241   0.551   2.674   1.834  0.7826  0.1186 -0.1038
15276TIP3   OH267242   0.596   4.317  10.310  0.2550 -0.2985 -0.2564
15276TIP3    H167243   0.665   4.281  10.367 -0.4503 -0.7143  0.3489
15276TIP3    H267244   0.600   4.411  10.326  0.4299 -0.3579  0.0742
15277TIP3   OH267245   5.463   6.392  11.159 -0.4102  0.6795  0.0332
15277TIP3    H167246   5.535   6.387  11.096 -0.6299  1.9829 -0.3424
15277TIP3    H267247   5.384   6.387  11.105 -0.6408 -1.0762  0.4693
15278TIP3   OH267248   5.759   0.549  13.830  0.5163 -0.1561 -0.1606
15278TIP3    H167249   5.815   0.622  13.806 -0.4185  1.5466  2.4586
15278TIP3    H267250   5.767   0.543  13.925 -0.7863 -2.3627 -0.1262
15279TIP3   OH267251   3.554   6.417   5.107  0.8929  0.1049 -0.5582
15279TIP3    H167252   3.509   6.427   5.022  1.2819 -2.2971 -1.1351
15279TIP3    H267253   3.625   6.355   5.089  1.7591  0.4979  1.2811
15280TIP3   OH267254   0.078   0.406   1.262  0.3237  0.0144 -0.2197
15280TIP3    H167255   0.021   0.370   1.194  1.2712 -1.2819 -0.3568
15280TIP3    H267256   0.051   0.360   1.342  1.3133 -0.7864 -0.3291
15281TIP3   OH267257   3.164   0.516   4.624  0.7365  1.1605  0.4942
15281TIP3    H167258   3.165   0.488   4.716 -0.8863  0.3791  0.2958
15281TIP3    H267259   3.243   0.570   4.616  1.1319  0.9300  2.2409
15282TIP3   OH267260   0.323   3.878  11.257 -0.3398 -0.2037 -0.2104
15282TIP3    H167261   0.363   3.791  11.262 -1.3098 -0.6800 -0.5024
15282TIP3    H267262   0.387   3.936  11.298  1.8578 -0.5239 -2.8860
15283TIP3   OH267263   4.539   5.618  11.980  0.3029 -0.1140 -0.4960
15283TIP3    H167264   4.579   5.540  12.019 -0.4163 -1.3622 -2.1481
15283TIP3    H267265   4.610   5.658  11.929  0.2764 -0.5584 -0.8872
15284TIP3   OH267266   3.363   5.666  16.976  0.1979 -0.2419 -0.3434
15284TIP3    H167267   3.456   5.685  16.979  0.0553  0.4245  1.9386
15284TIP3    H267268   3.323   5.745  16.940  0.4958 -0.5347 -1.3349
15285TIP3   OH267269   2.611   3.771   0.805  0.0037  0.1722  0.7682
15285TIP3    H167270   2.697   3.783   0.765 -0.4821 -0.0920 -0.4070
15285TIP3    H267271   2.629   3.733   0.891  1.0404 -0.3010  0.3568
15286TIP3   OH267272   2.248   0.448   0.001  0.9264 -0.1199  0.5525
15286TIP3    H167273   2.247   0.355  -0.022  0.1593  0.4128 -1.7379
15286TIP3    H267274   2.196   0.453   0.082 -2.3771 -1.2526 -1.3213
15287TIP3   OH267275   1.390   4.193   2.929  0.0301  0.3702 -0.4815
15287TIP3    H167276   1.466   4.191   2.870  0.3583  0.9982 -0.0907
15287TIP3    H267277   1.401   4.274   2.979 -0.5959  0.1733 -0.0183
15288TIP3   OH267278   6.488   6.341   2.559 -0.2426  0.7330  0.4249
15288TIP3    H167279   6.463   6.429   2.532  0.5542  0.9028  0.2098
15288TIP3    H267280   6.575   6.352   2.598  1.6446 -0.4453 -3.0371
15289TIP3   OH267281   5.089   2.701  15.259 -0.1996  0.1398 -0.8446
15289TIP3    H167282   5.066   2.745  15.177 -0.6572  0.0907 -0.7445
15289TIP3    H267283   5.009   2.706  15.312 -0.2140 -0.7160 -0.7842
15290TIP3   OH267284   0.561   0.307   0.725  0.0893 -0.2395  0.3728
15290TIP3    H167285   0.551   0.380   0.787  0.4092  0.1782 -0.0648
15290TIP3    H267286   0.654   0.307   0.702  0.2482 -1.2595  0.9327
15291TIP3   OH267287   3.681   2.000  14.422  0.1434 -0.7066 -0.5672
15291TIP3    H167288   3.744   2.031  14.357  0.9213 -2.0581 -0.4866
15291TIP3    H267289   3.596   2.008  14.378  0.4236  0.3739 -0.9614
15292TIP3   OH267290   3.454   2.964   1.393  0.5024 -0.1983  0.2674
15292TIP3    H167291   3.468   3.033   1.458  1.1079 -1.3995  1.4504
15292TIP3    H267292   3.500   2.996   1.315  1.9709  0.1422  1.2273
15293TIP3   OH267293   5.142   3.981  14.258 -0.6397  0.2017 -0.2025
15293TIP3    H167294   5.095   3.897  14.259 -0.5083  0.1132 -1.0365
15293TIP3    H267295   5.195   3.978  14.179  1.4733 -0.0738  1.1416
15294TIP3   OH267296   4.537   0.960  14.687  0.2800 -0.1741  0.0195
15294TIP3    H167297   4.601   1.031  14.686  1.6193 -1.3434 -0.8857
15294TIP3    H267298   4.454   1.003  14.708  0.6261  2.0398 -2.5771
15295TIP3   OH267299   5.764   1.652   0.867 -0.2687  0.4668  0.2217
15295TIP3    H167300   5.851   1.648   0.905 -0.1727 -0.2037 -0.0567
15295TIP3    H267301   5.770   1.720   0.800  0.2516 -0.0810 -0.3031
15296TIP3   OH267302   2.871   1.972  14.622 -0.1988 -0.3347 -0.9297
15296TIP3    H167303   2.938   1.935  14.565  1.1645  0.1052  0.3188
15296TIP3    H267304   2.870   1.915  14.699  0.3773  0.9287  0.0578
15297TIP3   OH267305   5.309   3.589   5.193 -0.1760  0.1993  0.0766
15297TIP3    H167306   5.218   3.610   5.211 -0.2702 -0.8481  0.9851
15297TIP3    H267307   5.306   3.526   5.121 -0.0764  1.1842 -0.7944
15298TIP3   OH267308   4.524   0.264   6.025 -0.2601 -0.0820  0.0488
15298TIP3    H167309   4.469   0.300   6.095 -0.7478  1.4301 -1.0806
15298TIP3    H267310   4.489   0.301   5.944  0.4270 -1.6335 -1.0078
15299TIP3   OH267311   1.093   0.348  12.781 -0.1215  0.0980 -0.5068
15299TIP3    H167312   1.108   0.383  12.693  0.9142 -0.7302 -0.6779
15299TIP3    H267313   0.998   0.346  12.790 -0.2358  0.5048 -1.4740
15300TIP3   OH267314   2.362   5.576   4.627 -0.3328  0.7683  0.2580
15300TIP3    H167315   2.380   5.614   4.541  2.9009  2.1088  1.3552
15300TIP3    H267316   2.319   5.646   4.676 -3.7378 -0.5221 -0.5781
15301TIP3   OH267317   2.431   5.705  11.589 -0.3490  0.2972 -0.0066
15301TIP3    H167318   2.436   5.609  11.581 -0.3637  0.4468 -2.4777
15301TIP3    H267319   2.519   5.731  11.614 -0.5935 -0.4019  1.7211
15302TIP3   OH267320   6.768   4.901   1.626 -0.7950  0.0486 -0.0092
15302TIP3    H167321   6.754   4.852   1.706 -0.4421  2.5718  1.7287
15302TIP3    H267322   6.703   4.972   1.630  0.3628  1.2172 -1.0611
15303TIP3   OH267323   3.114   6.531   2.856 -0.1016 -0.2496 -0.1766
15303TIP3    H167324   3.020   6.540   2.841  0.0236  1.1817 -0.2135
15303TIP3    H267325   3.151   6.615   2.829  1.2307 -0.9088 -0.4682
15304TIP3   OH267326   6.710   4.144  15.344 -0.3704  0.0488 -0.3973
15304TIP3    H167327   6.748   4.069  15.390 -1.1128 -0.3189 -0.3641
15304TIP3    H267328   6.663   4.193  15.412  0.3537  0.7191 -0.3606
15305TIP3   OH267329   4.228   1.866  12.723 -0.3776  0.4201  0.3763
15305TIP3    H167330   4.162   1.925  12.759 -2.0259 -0.3724 -1.2382
15305TIP3    H267331   4.242   1.897  12.633  2.2119  1.1577  0.9400
15306TIP3   OH267332   1.138   0.455  16.877  0.2521  0.0960  0.1015
15306TIP3    H167333   1.072   0.394  16.844  1.6749 -1.1124 -0.6465
15306TIP3    H267334   1.149   0.430  16.969 -0.3879  0.3823  0.2626
15307TIP3   OH267335   6.067   6.010   0.899  0.2168  0.6575  0.6938
15307TIP3    H167336   6.128   5.937   0.891 -1.3586 -0.5340 -1.8992
15307TIP3    H267337   6.063   6.047   0.810 -2.2531  1.1240  0.9289
15308TIP3   OH267338   4.242   3.154  16.352 -0.0011  0.3687  0.3069
15308TIP3    H167339   4.246   3.077  16.294 -0.3804  0.1046  0.6316
15308TIP3    H267340   4.305   3.135  16.421 -0.3437  0.2000  0.5710
15309TIP3   OH267341   2.757   3.905   1.652 -0.1658 -0.0579 -0.0553
15309TIP3    H167342   2.700   3.832   1.675 -0.5171  0.3376  0.3465
15309TIP3    H267343   2.699   3.981   1.650  0.1811  0.1990 -0.5499
15310TIP3   OH267344   2.865   3.769   0.689 -0.4463 -0.5496 -0.5409
15310TIP3    H167345   2.914   3.688   0.675  1.3133  0.6829 -2.1654
15310TIP3    H267346   2.869   3.813   0.604 -1.5623  1.1317  0.2333
15311TIP3   OH267347   6.095   3.475  17.013  0.2014 -0.2878 -0.6380
15311TIP3    H167348   6.107   3.567  17.035  0.7233 -0.4934 -0.0025
15311TIP3    H267349   6.002   3.458  17.027  0.2084  0.0108 -0.2108
15312TIP3   OH267350   2.195   6.308   5.900  0.2099  0.2079  0.7569
15312TIP3    H167351   2.119   6.308   5.958 -1.0680  0.3409 -0.8586
15312TIP3    H267352   2.231   6.220   5.908  0.0891  0.2350  1.7530
15313TIP3   OH267353   1.102   2.604  12.177  0.0749  0.2619 -0.1650
15313TIP3    H167354   1.082   2.614  12.270  0.0743  0.7713 -0.2146
15313TIP3    H267355   1.197   2.592  12.174  0.0571  0.0922 -0.0903
15314TIP3   OH267356   5.913   6.162  13.708 -0.0752 -0.2142 -0.3838
15314TIP3    H167357   5.981   6.146  13.644 -0.9187  0.9048 -1.6073
15314TIP3    H267358   5.959   6.199  13.783  0.7694 -0.3788 -0.8142
15315TIP3   OH267359   4.795   0.495   0.353  0.2458  0.0845 -0.5546
15315TIP3    H167360   4.777   0.445   0.273  0.3890 -0.3564 -0.3128
15315TIP3    H267361   4.812   0.584   0.322 -1.5407  0.3588 -0.8639
15316TIP3   OH267362   1.037   2.644   1.360  0.1247 -0.0820  0.2519
15316TIP3    H167363   1.040   2.675   1.450 -0.4226 -0.7470  0.5074
15316TIP3    H267364   0.953   2.600   1.352  0.0991  0.1080 -0.6340
15317TIP3   OH267365   0.544   3.962  11.449  0.2463  0.6910 -0.1963
15317TIP3    H167366   0.628   3.946  11.406  0.4062 -0.0323  0.3634
15317TIP3    H267367   0.535   3.889  11.511  1.2177  2.9035  2.8032
15318TIP3   OH267368   3.917   0.243  11.044  0.5822  0.1680  0.0737
15318TIP3    H167369   3.915   0.338  11.054  0.0193  0.1465  0.2233
15318TIP3    H267370   3.930   0.209  11.133  0.9993  0.1065 -0.0076
15319TIP3   OH267371   2.181   0.364  16.272 -0.4451 -0.1698  0.1344
15319TIP3    H167372   2.247   0.418  16.227  0.2273 -0.6179  0.5681
15319TIP3    H267373   2.232   0.297  16.317 -1.2080 -0.5270  0.4728
15320TIP3   OH267374   2.419   5.018  13.951 -0.3103  0.7047  0.2968
15320TIP3    H167375   2.477   5.080  13.907 -1.0794  0.5515 -0.9794
15320TIP3    H267376   2.354   5.073  13.995 -2.1512  0.8652 -2.4267
15321TIP3   OH267377   2.082   2.463   3.050  0.2721  0.1620 -0.9439
15321TIP3    H167378   2.096   2.440   2.959  0.4436  2.4192 -1.5457
15321TIP3    H267379   1.990   2.490   3.054  0.3260  0.2917 -0.5141
15322TIP3   OH267380   5.843   5.477   4.437 -0.0765 -0.5737  1.0064
15322TIP3    H167381   5.865   5.517   4.521  1.0475 -0.8403  0.8506
15322TIP3    H267382   5.917   5.497   4.381 -1.1751  0.2977 -0.1845
15323TIP3   OH267383   4.763   0.210   5.149  0.1968  0.4834  0.0088
15323TIP3    H167384   4.819   0.143   5.187  2.1847  1.3705 -1.2426
15323TIP3    H267385   4.703   0.161   5.092  0.1080 -0.4108  0.8386
15324TIP3   OH267386   3.407   3.676   6.046 -0.0512  0.4942 -0.4005
15324TIP3    H167387   3.439   3.735   5.978 -0.1265 -0.0823 -0.9479
15324TIP3    H267388   3.325   3.715   6.075  0.2482  1.0277 -0.2624
15325TIP3   OH267389   4.478   2.094  14.959  0.3975 -0.1557 -0.2436
15325TIP3    H167390   4.402   2.043  14.932 -0.1259  0.9919 -1.0573
15325TIP3    H267391   4.516   2.126  14.877  1.5272 -0.3650  0.1683
15326TIP3   OH267392   5.788   0.868  14.503 -0.5566  0.0260  0.0584
15326TIP3    H167393   5.727   0.897  14.435 -1.9444 -1.0909  0.7653
15326TIP3    H267394   5.746   0.896  14.585 -0.0217 -0.5679  0.5452
15327TIP3   OH267395   6.425   2.936   4.848  0.5893  0.4006  0.9787
15327TIP3    H167396   6.465   2.851   4.862 -0.4208 -1.0065 -3.2768
15327TIP3    H267397   6.491   2.987   4.801 -0.2420  0.4018 -0.2402
15328TIP3   OH267398   1.843   3.658   4.001  0.6292 -0.8015  0.3253
15328TIP3    H167399   1.866   3.684   4.090  0.8530 -0.2515  0.1093
15328TIP3    H267400   1.893   3.577   3.986  1.2046 -0.4723  0.4232
15329TIP3   OH267401   4.023   5.894  16.476  0.2030 -0.2150 -0.5614
15329TIP3    H167402   3.976   5.819  16.439 -1.6202  0.3291  0.5349
15329TIP3    H267403   4.075   5.929  16.403 -2.3874  0.1590 -2.3380
15330TIP3   OH267404   1.460   0.508  16.942 -0.0883 -0.1701 -0.3907
15330TIP3    H167405   1.552   0.534  16.935 -0.1212  0.2713  0.6344
15330TIP3    H267406   1.462   0.421  16.981 -0.0708 -0.7384 -1.6117
15331TIP3   OH267407   0.415   4.112   3.683 -0.1564  0.4030 -0.2306
15331TIP3    H167408   0.446   4.130   3.771 -0.4866 -1.5267  0.3315
15331TIP3    H267409   0.492   4.125   3.627  0.7470 -0.8532  0.6861
15332TIP3   OH267410   1.519   5.441   1.989  0.5606 -0.3574  0.1149
15332TIP3    H167411   1.535   5.361   2.039  1.0079 -1.5416 -1.8027
15332TIP3    H267412   1.571   5.508   2.033 -0.5314 -0.8588  2.3107
15333TIP3   OH267413   4.955   0.809  12.115  0.0292 -0.5275 -0.2360
15333TIP3    H167414   5.022   0.878  12.116 -0.9845  0.5223 -0.9587
15333TIP3    H267415   4.973   0.757  12.193  0.5528  0.8408  0.5969
15334TIP3   OH267416   2.344   6.152  16.431  0.0492 -0.2379 -0.7737
15334TIP3    H167417   2.278   6.172  16.498  1.3505  0.5645  0.3172
15334TIP3    H267418   2.317   6.068  16.395 -0.1824 -1.1939  1.4579
15335TIP3   OH267419   2.555   4.767   0.534 -0.2774  0.5391 -0.1793
15335TIP3    H167420   2.460   4.755   0.533 -0.1734 -0.3254 -0.4316
15335TIP3    H267421   2.568   4.858   0.563 -1.1301  0.1482  1.5977
15336TIP3   OH267422   0.231   1.962  12.731 -0.4263  1.4491  0.0746
15336TIP3    H167423   0.267   1.955  12.819  0.0527 -0.0050 -0.2098
15336TIP3    H267424   0.307   1.977  12.675 -0.1289 -1.6292 -0.5300
15337TIP3   OH267425   0.077   3.670   0.386  0.7300 -0.3699 -0.0995
15337TIP3    H167426   0.135   3.724   0.332 -0.7527 -1.0103 -2.4975
15337TIP3    H267427   0.015   3.732   0.425 -1.6188 -0.1849 -3.6542
15338TIP3   OH267428   0.697   5.716   0.597 -0.6906 -0.1882 -0.0571
15338TIP3    H167429   0.608   5.688   0.576 -0.2276 -1.5903 -0.2325
15338TIP3    H267430   0.747   5.635   0.605 -0.0698  0.3543  3.0920
15339TIP3   OH267431   0.508   5.223  15.930  0.2010  0.1414  0.1735
15339TIP3    H167432   0.475   5.138  15.958  1.8832 -0.6777 -0.1548
15339TIP3    H267433   0.479   5.284  15.997 -0.4722 -0.8062  0.7629
15340TIP3   OH267434   2.016   2.244  16.005 -0.0268  0.1472 -0.1873
15340TIP3    H167435   1.986   2.320  15.955  0.6413  1.5125  1.3881
15340TIP3    H267436   2.111   2.251  16.003  0.0149  0.4651  1.5454
15341TIP3   OH267437   2.289   0.457   1.263  0.3184 -0.4633  0.2232
15341TIP3    H167438   2.319   0.547   1.249  0.4184 -0.6372 -0.7274
15341TIP3    H267439   2.194   0.463   1.261  0.2976 -0.2075  1.3339
15342TIP3   OH267440   4.336   4.905  12.900  0.4584 -0.6334  0.1973
15342TIP3    H167441   4.384   4.848  12.840  1.1844 -1.2435  1.3093
15342TIP3    H267442   4.320   4.985  12.851  2.1120 -0.6409 -0.4111
15343TIP3   OH267443   6.168   2.230   1.248 -0.0215  0.7571  0.0057
15343TIP3    H167444   6.167   2.216   1.153 -0.0868  0.7248  0.0115
15343TIP3    H267445   6.194   2.145   1.285 -2.2945  0.0776  0.1533
15344TIP3   OH267446   3.615   0.180  12.065 -0.3160 -0.0047  0.4791
15344TIP3    H167447   3.564   0.133  11.999  0.4844  0.1102 -0.2444
15344TIP3    H267448   3.578   0.152  12.149  0.2942 -2.1611  0.1052
15345TIP3   OH267449   4.439   3.980  15.935 -0.4220  0.0630  0.3825
15345TIP3    H167450   4.465   3.932  15.857  1.0690  0.3611  0.6542
15345TIP3    H267451   4.515   4.035  15.955 -1.0628  0.5394  1.6025
15346TIP3   OH267452   5.922   2.881   0.282 -0.0146 -0.1454  0.0499
15346TIP3    H167453   5.890   2.970   0.299  1.2267  0.4886 -0.7496
15346TIP3    H267454   6.008   2.894   0.241  1.0257 -1.7576  1.5653
15347TIP3   OH267455   1.088   1.033   3.472 -0.0888  0.0643  0.3054
15347TIP3    H167456   1.165   1.074   3.511  1.8804 -0.9643 -2.2841
15347TIP3    H267457   1.095   1.050   3.379 -1.6848 -2.1545 -0.3112
15348TIP3   OH267458   4.950   2.476   2.409 -0.2102 -0.0663 -0.0994
15348TIP3    H167459   4.889   2.519   2.350 -0.6384 -0.8767 -0.2622
15348TIP3    H267460   4.999   2.548   2.449  0.7387  0.4971 -2.1076
15349TIP3   OH267461   1.331   5.849  11.543  0.1951  0.1540 -0.6147
15349TIP3    H167462   1.359   5.940  11.548  0.2194  0.1302 -0.3205
15349TIP3    H267463   1.408   5.802  11.510 -0.4600  0.5477 -2.8843
15350TIP3   OH267464   1.903   5.847  14.891  0.0041  0.0462  0.1699
15350TIP3    H167465   1.927   5.929  14.933 -1.3527  1.4973 -1.6751
15350TIP3    H267466   1.879   5.872  14.801 -0.9842 -2.2766 -0.3033
15351TIP3   OH267467   5.615   2.873   6.218  0.6975 -0.0388 -0.4108
15351TIP3    H167468   5.616   2.794   6.272 -0.4558  0.1909 -0.0149
15351TIP3    H267469   5.618   2.945   6.281 -1.1744  0.2390 -0.5753
15352TIP3   OH267470   5.594   2.644   6.360  0.1533 -0.0955  0.5919
15352TIP3    H167471   5.539   2.664   6.436  1.4136  0.9277  1.2789
15352TIP3    H267472   5.608   2.549   6.365 -1.2109 -0.3263  0.5981
15353TIP3   OH267473   5.654   2.221   0.721 -0.1806  0.3051  0.4715
15353TIP3    H167474   5.659   2.314   0.741 -0.5111  0.5272 -0.4308
15353TIP3    H267475   5.608   2.182   0.795  1.3383  0.5925  1.6199
15354TIP3   OH267476   6.056   3.143   0.062  0.4259  0.0552  0.5267
15354TIP3    H167477   5.966   3.134   0.032  0.1241  2.7762  0.3753
15354TIP3    H267478   6.102   3.186  -0.011  1.3144  0.6153  1.3802
15355TIP3   OH267479   6.151   4.574  15.833  0.4185  0.1130  0.0358
15355TIP3    H167480   6.103   4.539  15.909 -1.5013 -1.7567 -1.9022
15355TIP3    H267481   6.101   4.651  15.807  1.4052  1.0939  0.9391
15356TIP3   OH267482   1.980   2.428   0.054 -0.2234  0.1922 -0.3306
15356TIP3    H167483   2.009   2.346   0.014  0.5652 -0.2079  1.0214
15356TIP3    H267484   1.930   2.401   0.131  1.0838  0.9770  0.8259
15357TIP3   OH267485   2.802   4.606  16.669 -0.7088 -0.6646  0.3317
15357TIP3    H167486   2.867   4.566  16.727  2.9514  1.7288 -1.7777
15357TIP3    H267487   2.823   4.572  16.582 -1.4726  1.0755 -0.5796
15358TIP3   OH267488   1.409   2.251   0.156 -0.0049 -0.5935  0.1489
15358TIP3    H167489   1.376   2.196   0.085 -1.3541  1.0193 -0.5480
15358TIP3    H267490   1.352   2.329   0.154  1.0309  0.2579  1.8840
15359TIP3   OH267491   0.317   0.337  13.413 -0.4443  0.5375 -0.1503
15359TIP3    H167492   0.383   0.377  13.470  0.7732  1.1997 -1.9591
15359TIP3    H267493   0.318   0.245  13.438 -2.1127  1.2128  2.9316
15360TIP3   OH267494   6.480   2.448  11.643 -0.4184 -0.5277  0.6383
15360TIP3    H167495   6.451   2.464  11.553 -0.5014 -1.5465  0.4692
15360TIP3    H267496   6.575   2.453  11.639 -0.1892 -3.4197 -0.1665
15361TIP3   OH267497   6.548   1.554  11.815 -0.0675  0.0966  0.4096
15361TIP3    H167498   6.597   1.636  11.814  1.3561 -0.6191  2.6078
15361TIP3    H267499   6.510   1.547  11.728 -0.5647  3.2350  0.2605
15362TIP3   OH267500   4.292   1.860  10.208  0.6146  0.7228  0.0710
15362TIP3    H167501   4.216   1.913  10.232  0.2959  0.1774  0.2850
15362TIP3    H267502   4.352   1.870  10.282  0.8512  1.3321 -0.1983
15363TIP3   OH267503   6.796   0.827   1.892  0.1439 -0.4369  0.2684
15363TIP3    H167504   6.869   0.806   1.950  1.4099 -0.0961 -1.1269
15363TIP3    H267505   6.832   0.892   1.831 -1.1256 -0.7802 -0.8954
15364TIP3   OH267506   0.085   4.601   0.314  0.5727 -0.2232 -0.2357
15364TIP3    H167507   0.018   4.636   0.255  2.0369  1.5228 -0.9678
15364TIP3    H267508   0.139   4.545   0.258  1.1326  0.3232 -0.2630
15365TIP3   OH267509   2.454   3.799  16.672 -0.0857  0.5917 -0.7051
15365TIP3    H167510   2.373   3.748  16.665  0.2756  0.1950 -2.4482
15365TIP3    H267511   2.498   3.763  16.750 -0.3624 -0.9976 -1.2416
15366TIP3   OH267512   4.771   3.187  15.937  0.2498 -0.5027  0.4348
15366TIP3    H167513   4.786   3.102  15.895  1.9505 -0.4673  0.9058
15366TIP3    H267514   4.680   3.184  15.966 -0.1829 -1.5355 -0.9453
15367TIP3   OH267515   5.224   4.102  11.972 -0.3676 -0.0906  0.5650
15367TIP3    H167516   5.317   4.083  11.980 -0.4000 -0.0064  1.2225
15367TIP3    H267517   5.200   4.069  11.886  0.2634 -0.1307  0.3977
15368TIP3   OH267518   4.564   2.813  15.422 -0.1108  0.0081 -0.3529
15368TIP3    H167519   4.517   2.792  15.503 -0.1845  0.0894 -0.3742
15368TIP3    H267520   4.555   2.907  15.413 -1.3180 -0.1670 -1.2093
15369TIP3   OH267521   3.144   2.316  13.088 -0.2683 -0.0219 -0.0508
15369TIP3    H167522   3.221   2.303  13.033  0.8006  2.2798  0.8071
15369TIP3    H267523   3.154   2.252  13.158 -0.7864 -1.8291 -1.5246
15370TIP3   OH267524   0.108   0.657  12.281 -0.2194  0.3548 -0.2301
15370TIP3    H167525   0.146   0.590  12.338 -1.4424 -0.1851 -0.0240
15370TIP3    H267526   0.175   0.725  12.277  0.5488 -0.3230  0.5452
15371TIP3   OH267527   2.460   4.463   0.770 -0.4422 -0.1793  0.6463
15371TIP3    H167528   2.477   4.460   0.864  0.2272  1.0936  0.5886
15371TIP3    H267529   2.545   4.481   0.730 -0.6039 -1.2996 -0.2732
15372TIP3   OH267530   3.066   5.584   5.612 -0.3156 -0.2599 -0.0979
15372TIP3    H167531   3.117   5.524   5.558 -0.7251  0.6073 -1.5100
15372TIP3    H267532   3.131   5.627   5.668  0.3412 -0.1520 -0.9187
15373TIP3   OH267533   4.420   2.191  15.197 -0.2478 -0.5284  0.2178
15373TIP3    H167534   4.436   2.146  15.114  0.1125 -2.7941  1.4310
15373TIP3    H267535   4.341   2.243  15.181  0.0181 -0.6167 -1.6327
15374TIP3   OH267536   3.411   3.048   1.990 -0.5104 -0.5081  0.1337
15374TIP3    H167537   3.376   3.119   2.044 -0.3542 -0.8006  0.6287
15374TIP3    H267538   3.504   3.070   1.978 -0.9480  0.5346 -1.6091
15375TIP3   OH267539   5.071   3.796  13.452  0.2582 -0.0451  0.0754
15375TIP3    H167540   5.045   3.864  13.390  0.3228 -0.9723 -1.0107
15375TIP3    H267541   5.024   3.817  13.533  0.9450  1.7583  0.0540
15376TIP3   OH267542   0.938   2.127  15.050  0.3274  0.3236 -0.7169
15376TIP3    H167543   0.927   2.150  15.142 -1.8747  0.2150 -0.8998
15376TIP3    H267544   0.964   2.209  15.008  2.6011  0.1040  0.1351
15377TIP3   OH267545   0.311   0.922   0.795  0.7910 -0.1135 -0.1125
15377TIP3    H167546   0.318   0.828   0.810  2.5844  0.2671  2.0290
15377TIP3    H267547   0.219   0.937   0.774  0.3290 -2.2364  0.2007
15378TIP3   OH267548   0.660   2.846  16.312 -0.0592  0.0662  0.5053
15378TIP3    H167549   0.722   2.781  16.278 -1.1262  0.9328 -3.6829
15378TIP3    H267550   0.709   2.893  16.380  3.5160 -0.1003 -1.7069
15379TIP3   OH267551   5.508   6.168  12.154  0.4196 -0.3883  0.1558
15379TIP3    H167552   5.431   6.161  12.211  0.1291  0.2380 -0.1571
15379TIP3    H267553   5.530   6.261  12.154 -1.4656  0.1953 -3.1932
15380TIP3   OH267554   5.986   6.554  14.020  0.0253 -1.0873  0.5382
15380TIP3    H167555   6.053   6.606  13.974 -0.6998  0.4687  1.1556
15380TIP3    H267556   5.916   6.544  13.955  0.1858 -1.3211  0.4029
15381TIP3   OH267557   6.776   6.687   5.936 -0.1152 -0.3767  0.1414
15381TIP3    H167558   6.790   6.767   5.884  2.4283 -0.8972 -0.1219
15381TIP3    H267559   6.783   6.716   6.027 -2.5865  0.1983  0.2200
15382TIP3   OH267560   0.756   4.428  11.752  0.2282  0.0724  0.1683
15382TIP3    H167561   0.756   4.524  11.750 -3.5184  0.2289 -1.8642
15382TIP3    H267562   0.752   4.403  11.659 -3.8300 -1.7009  0.6182
15383TIP3   OH267563   3.168   4.409  14.171  0.2951 -0.1923  0.4855
15383TIP3    H167564   3.263   4.398  14.161  0.2274 -0.5835  0.2959
15383TIP3    H267565   3.147   4.485  14.116  0.3488 -0.6871 -0.2268
15384TIP3   OH267566   1.947   3.288   4.870  0.3190 -0.1320 -0.0155
15384TIP3    H167567   1.879   3.344   4.832  0.1984  0.1826  0.6582
15384TIP3    H267568   1.982   3.240   4.795 -3.9118 -4.0188  0.1114
15385TIP3   OH267569   5.426   4.540  13.799 -0.3412 -0.0146  0.0309
15385TIP3    H167570   5.475   4.617  13.829 -0.2087  0.4841 -1.4143
15385TIP3    H267571   5.336   4.573  13.789 -0.2620 -0.0101 -0.6978
15386TIP3   OH267572   4.487   0.793  13.097 -0.5998 -0.1040  0.1196
15386TIP3    H167573   4.435   0.871  13.079 -1.1252 -0.6163 -0.6847
15386TIP3    H267574   4.536   0.777  13.016 -0.1148 -0.3164  0.4517
15387TIP3   OH267575   6.786   3.090  14.584 -0.3552  0.1154  0.3115
15387TIP3    H167576   6.753   3.119  14.498 -0.6657  1.5147  0.8743
15387TIP3    H267577   6.727   3.131  14.647  0.8133  0.4147  1.2499
15388TIP3   OH267578   4.802   0.264  10.503  0.3999  0.8165  0.2782
15388TIP3    H167579   4.809   0.337  10.564 -0.2428  1.4098 -0.3309
15388TIP3    H267580   4.879   0.211  10.519  1.0002  1.7580  0.5707
15389TIP3   OH267581   0.509   2.875  11.043  0.6656  0.3065  0.2011
15389TIP3    H167582   0.528   2.799  10.989  0.0919  0.5630 -0.3681
15389TIP3    H267583   0.463   2.936  10.985 -2.3990 -0.4763  1.5982
15390TIP3   OH267584   5.907   2.115  14.422 -0.4439  0.0567 -0.0862
15390TIP3    H167585   5.868   2.102  14.509 -0.8695  1.4123 -0.0604
15390TIP3    H267586   5.980   2.053  14.420 -1.4594 -1.2145  0.5714
15391TIP3   OH267587   3.423   6.134   2.394 -0.0433  0.1114 -0.2382
15391TIP3    H167588   3.476   6.212   2.408 -1.2330  0.5787  2.2406
15391TIP3    H267589   3.485   6.062   2.399  0.6657  0.7468  0.6774
15392TIP3   OH267590   6.369   0.894  15.805 -0.0888  0.2677  0.4548
15392TIP3    H167591   6.462   0.872  15.802 -0.8365 -3.3249 -0.4471
15392TIP3    H267592   6.347   0.890  15.898  0.4361  0.1161  0.5748
15393TIP3   OH267593   5.842   1.633   3.008  0.1103  0.2385  0.0018
15393TIP3    H167594   5.866   1.541   3.019 -0.2868  0.3207  2.1697
15393TIP3    H267595   5.795   1.637   2.925 -1.0413 -1.8061  0.4961
15394TIP3   OH267596   0.708   3.648   2.641  0.0774 -0.3759  0.0038
15394TIP3    H167597   0.745   3.692   2.565  1.2572  0.6959  1.1528
15394TIP3    H267598   0.652   3.714   2.683 -1.0826 -1.1566 -0.2576
15395TIP3   OH267599   2.447   2.117   3.253 -0.2776 -0.6146  0.2372
15395TIP3    H167600   2.519   2.107   3.191  0.1207  1.6714  0.2533
15395TIP3    H267601   2.386   2.047   3.230  1.2202 -1.6504 -0.7765
15396TIP3   OH267602   6.699   1.044   4.063  0.2025 -0.3979 -0.2153
15396TIP3    H167603   6.684   1.123   4.116  0.4061  0.5756 -1.5515
15396TIP3    H267604   6.615   1.027   4.021  0.5596  0.0523 -1.1419
15397TIP3   OH267605   2.715   6.748  16.591  0.2875 -0.1413 -0.3339
15397TIP3    H167606   2.719   6.815  16.659  0.8904 -0.4416 -0.0620
15397TIP3    H267607   2.625   6.713  16.596 -0.4841  1.5681 -1.4074
15398TIP3   OH267608   2.210   3.568  16.533 -0.0082 -0.2669 -0.0012
15398TIP3    H167609   2.265   3.605  16.464  1.1257 -0.6441  0.6651
15398TIP3    H267610   2.185   3.643  16.587 -0.3454 -0.0616 -0.4404
15399TIP3   OH267611   0.988   4.736   2.846  0.1865  1.1942 -0.1569
15399TIP3    H167612   1.013   4.771   2.760  0.5597  2.0066  0.2729
15399TIP3    H267613   1.032   4.793   2.909  2.7327 -1.3531  0.6204
15400TIP3   OH267614   5.443   1.354   0.322 -0.1912  0.2130 -0.1832
15400TIP3    H167615   5.413   1.270   0.357 -0.3532 -0.6954 -2.3712
15400TIP3    H267616   5.391   1.420   0.369 -0.7412 -0.9438  0.8800
15401TIP3   OH267617   5.586   6.559   4.761 -0.4455  0.3714  0.0188
15401TIP3    H167618   5.534   6.493   4.714 -1.4446 -0.1065  1.7059
15401TIP3    H267619   5.677   6.540   4.737 -0.7667 -1.2169 -0.0430
15402TIP3   OH267620   5.056   5.087   2.564 -0.0301 -0.2668 -0.0855
15402TIP3    H167621   5.070   5.100   2.470 -0.8551 -0.3918 -0.2323
15402TIP3    H267622   5.092   5.165   2.604 -1.0712  0.5132 -0.6291
15403TIP3   OH267623   2.291   0.088   4.869  0.7885  0.1217  0.1066
15403TIP3    H167624   2.345   0.050   4.800  0.8796 -1.5079  1.0376
15403TIP3    H267625   2.280   0.180   4.843  0.2937 -0.5663 -2.4021
15404TIP3   OH267626   3.216   5.806  11.392  0.0219  0.0996  0.1376
15404TIP3    H167627   3.307   5.836  11.388 -0.1345  0.5320 -0.2221
15404TIP3    H267628   3.178   5.854  11.466 -0.8382  2.5514 -1.7521
15405TIP3   OH267629   6.771   2.186  14.496 -0.1231  0.1107  0.3666
15405TIP3    H167630   6.737   2.106  14.457 -0.0867  0.4578 -0.3965
15405TIP3    H267631   6.817   2.157  14.575 -1.0929 -0.4878  0.7168
15406TIP3   OH267632   3.743   1.913   0.537  0.0509  0.4085  0.4660
15406TIP3    H167633   3.760   1.850   0.467  0.7219  0.9855  0.0971
15406TIP3    H267634   3.769   1.868   0.617 -1.4034 -0.5262  0.4496
15407TIP3   OH267635   2.961   3.754   1.364  0.0991  0.2166  0.7196
15407TIP3    H167636   2.985   3.808   1.289  1.1373 -0.1486  0.7794
15407TIP3    H267637   2.866   3.746   1.357  0.0351  1.2222  0.1569
15408TIP3   OH267638   0.707   4.547   2.575  0.2578  0.0098  0.3412
15408TIP3    H167639   0.730   4.635   2.545 -2.2054  0.8702  0.7472
15408TIP3    H267640   0.729   4.547   2.668  0.8718 -0.0594  0.2032
15409TIP3   OH267641   3.649   5.964  16.235 -0.1641 -0.0539 -0.0094
15409TIP3    H167642   3.595   6.035  16.270 -1.0034 -0.7172  0.0867
15409TIP3    H267643   3.614   5.948  16.148  1.2662  0.9102 -0.8040
15410TIP3   OH267644   1.556   6.072  12.292 -0.4296 -0.0991 -0.1311
15410TIP3    H167645   1.629   6.130  12.315 -0.9229  0.5945 -0.2957
15410TIP3    H267646   1.539   6.021  12.371 -0.1152  0.1100  0.0710
15411TIP3   OH267647   1.467   4.603   4.384 -0.1378  0.0674 -0.0134
15411TIP3    H167648   1.510   4.586   4.300 -1.4121 -0.8446 -0.5192
15411TIP3    H267649   1.448   4.697   4.383  1.4617  0.4154  0.0652
15412TIP3   OH267650   6.469   1.557  16.089  0.4654 -0.6317 -0.4300
15412TIP3    H167651   6.544   1.599  16.046 -0.1908  1.2158  0.1120
15412TIP3    H267652   6.416   1.522  16.017  1.2940 -0.9945 -0.8759
15413TIP3   OH267653   3.007   1.365   2.983 -0.1466 -0.0391 -0.2602
15413TIP3    H167654   3.045   1.304   2.920 -0.0377  0.2304 -0.4558
15413TIP3    H267655   2.975   1.309   3.054  2.3411 -0.1439  0.8619
15414TIP3   OH267656   3.531   1.648   4.705 -0.3232 -0.2952  0.2094
15414TIP3    H167657   3.450   1.696   4.715  0.5708  1.1209  0.9088
15414TIP3    H267658   3.596   1.714   4.682  0.8116 -1.2580  0.5233
15415TIP3   OH267659   2.088   4.352  12.636 -0.3464 -0.1223 -0.6369
15415TIP3    H167660   2.100   4.351  12.731  0.6244 -0.6099 -0.7506
15415TIP3    H267661   1.997   4.378  12.623 -1.1866 -2.2715  0.5054
15416TIP3   OH267662   4.993   3.920  16.958 -0.2441  0.1470 -0.3975
15416TIP3    H167663   4.990   3.911  17.053 -0.8714 -0.8100 -0.4990
15416TIP3    H267664   4.923   3.864  16.926  1.0680 -0.9068 -1.5167
15417TIP3   OH267665   6.038   5.588  12.740  0.0112  0.1930 -0.4317
15417TIP3    H167666   6.043   5.612  12.832 -3.1317 -2.5886  0.6414
15417TIP3    H267667   6.104   5.519  12.730 -0.3692 -0.2560  0.0693
15418TIP3   OH267668   6.535   1.384   2.255  0.1083 -0.7412 -0.2713
15418TIP3    H167669   6.588   1.457   2.287  0.2055 -0.6328 -0.6733
15418TIP3    H267670   6.512   1.409   2.165 -2.4923  0.2837  0.5640
15419TIP3   OH267671   2.337   1.464  13.445 -0.2022  0.4450 -0.4333
15419TIP3    H167672   2.392   1.527  13.491  0.6624  0.1237 -1.0138
15419TIP3    H267673   2.344   1.488  13.353 -1.6315  0.8609 -0.4610
15420TIP3   OH267674   6.571   4.137  16.909 -0.6569 -0.1327 -0.3600
15420TIP3    H167675   6.518   4.187  16.847  1.0140 -0.1731 -1.8975
15420TIP3    H267676   6.538   4.047  16.899 -0.1469 -0.2110 -1.5183
15421TIP3   OH267677   0.713   0.028   2.261 -0.0812 -0.1930 -0.0177
15421TIP3    H167678   0.761   0.026   2.345  0.0117 -1.1521 -0.0721
15421TIP3    H267679   0.626   0.060   2.284 -0.3124 -1.1977  0.6078
15422TIP3   OH267680   3.201   2.282  11.124  0.0481 -0.2445  0.1645
15422TIP3    H167681   3.198   2.367  11.169  4.0886  0.3967 -0.4194
15422TIP3    H267682   3.123   2.282  11.069 -0.2840  2.9572  0.4186
15423TIP3   OH267683   6.094   2.355  16.393 -0.4487 -1.1638 -0.2250
15423TIP3    H167684   6.123   2.313  16.313 -0.5374 -0.6278 -0.5437
15423TIP3    H267685   6.088   2.284  16.457 -0.3121 -1.5816 -0.6715
15424TIP3   OH267686   4.854   0.750  14.940  0.1475  0.5353 -0.2754
15424TIP3    H167687   4.813   0.708  14.864 -0.8013  0.8219  0.0707
15424TIP3    H267688   4.795   0.730  15.013 -0.1957  2.2424 -0.0561
15425TIP3   OH267689   4.697   3.321   5.400  0.4074  0.3342  0.4577
15425TIP3    H167690   4.740   3.384   5.458  0.3517  0.2184  0.6262
15425TIP3    H267691   4.719   3.350   5.312  4.4017 -2.0637  0.4050
15426TIP3   OH267692   2.617   2.845   1.062  0.2981 -0.6174  0.2331
15426TIP3    H167693   2.580   2.769   1.106  0.7603 -0.8324  0.2578
15426TIP3    H267694   2.615   2.914   1.127 -2.8938  0.2867 -0.6442
15427TIP3   OH267695   5.273   1.324   1.392 -0.0050 -0.1393  0.2701
15427TIP3    H167696   5.287   1.377   1.314 -1.7052  0.3187  0.2452
15427TIP3    H267697   5.275   1.234   1.361 -1.0170  0.0513 -0.3714
15428TIP3   OH267698   5.521   4.831   4.033 -0.4403  0.6668  0.1057
15428TIP3    H167699   5.604   4.878   4.027 -0.5713  1.0969  1.3505
15428TIP3    H267700   5.488   4.830   3.943  0.6305  0.9921 -0.3115
15429TIP3   OH267701   6.088   1.503  14.810  0.3368 -0.3687  0.0213
15429TIP3    H167702   6.139   1.563  14.864  0.3233  0.5517 -0.9632
15429TIP3    H267703   6.145   1.482  14.737  0.8700 -2.6676  1.0015
15430TIP3   OH267704   1.818   2.744  14.622 -0.3842 -0.1594  0.1139
15430TIP3    H167705   1.858   2.659  14.604 -1.4476 -0.5219 -0.6233
15430TIP3    H267706   1.891   2.800  14.649  0.6669 -0.7183 -1.4868
15431TIP3   OH267707   1.663   2.175   2.293  0.1925 -0.8646  0.5044
15431TIP3    H167708   1.574   2.172   2.256  0.9240 -0.7227 -1.4030
15431TIP3    H267709   1.689   2.083   2.297  0.9227 -0.8073 -1.5820
15432TIP3   OH267710   0.896   4.117   6.356 -0.1166 -0.0448 -0.1543
15432TIP3    H167711   0.850   4.150   6.433  0.4481  1.3011 -0.3802
15432TIP3    H267712   0.852   4.033   6.337 -1.0038  0.1428  0.9388
15433TIP3   OH267713   2.024   1.424  11.007 -0.0216 -0.0736  0.5600
15433TIP3    H167714   1.997   1.510  10.976  1.0306  0.8310  2.0512
15433TIP3    H267715   2.001   1.422  11.100 -0.5908 -1.6464  0.4217
15434TIP3   OH267716   3.276   1.741  12.695  0.2172  0.1191  0.3909
15434TIP3    H167717   3.210   1.690  12.743  0.3909 -0.4005  0.0852
15434TIP3    H267718   3.243   1.744  12.605  0.4886  0.0564  0.2878
15435TIP3   OH267719   2.638   3.311  13.680 -0.1321  0.0283  0.0281
15435TIP3    H167720   2.720   3.300  13.631 -0.4869 -1.7221 -0.2567
15435TIP3    H267721   2.571   3.320  13.612 -0.2410  0.9916  0.2558
15436TIP3   OH267722   1.829   6.214  11.726 -0.3845  0.0032  0.1153
15436TIP3    H167723   1.759   6.149  11.717  0.9156 -1.3446 -0.6397
15436TIP3    H267724   1.870   6.218  11.640  0.4435  0.8094  0.5301
15437TIP3   OH267725   2.597   4.423   5.527  0.0801  0.2136 -0.0913
15437TIP3    H167726   2.533   4.477   5.480  0.4105 -0.1458 -0.9776
15437TIP3    H267727   2.649   4.486   5.577  0.7557  0.8011 -1.4580
15438TIP3   OH267728   4.099   0.079   5.117 -1.4170  0.2030 -0.7999
15438TIP3    H167729   4.099   0.071   5.022  4.1888  0.7469 -1.1830
15438TIP3    H267730   4.101   0.174   5.133 -0.7519  0.1176 -0.3051
15439TIP3   OH267731   4.190   0.896  16.346  0.2452  0.4488 -0.4463
15439TIP3    H167732   4.123   0.964  16.339  0.6294  1.0165  0.8758
15439TIP3    H267733   4.196   0.858  16.259  0.0290  2.1509 -1.2522
15440TIP3   OH267734   5.498   4.010   6.399  0.4247  0.4467  0.0177
15440TIP3    H167735   5.418   3.974   6.361  0.7213  0.9852 -1.1483
15440TIP3    H267736   5.480   4.013   6.493 -0.0110 -1.7026  0.0635
15441TIP3   OH267737   2.950   1.055  11.666 -0.1586  0.1549  0.0851
15441TIP3    H167738   2.976   1.084  11.753  2.5139 -0.3483 -0.4517
15441TIP3    H267739   2.905   0.972  11.680  0.1114  0.1552  0.9835
15442TIP3   OH267740   1.699   1.188   6.223 -0.4243 -0.0609 -0.4839
15442TIP3    H167741   1.774   1.247   6.223  2.0014 -2.9266 -1.2796
15442TIP3    H267742   1.639   1.225   6.288  2.1183  1.7978  0.9558
15443TIP3   OH267743   1.494   0.631  11.265  0.0035  0.1241 -0.1617
15443TIP3    H167744   1.512   0.720  11.235  1.3218 -0.3371 -0.8254
15443TIP3    H267745   1.399   0.620  11.252  0.0826  0.8865 -1.6373
15444TIP3   OH267746   6.578   4.242  13.056 -0.0594 -0.0509 -0.2459
15444TIP3    H167747   6.603   4.197  13.136  1.5614 -0.7188 -1.0745
15444TIP3    H267748   6.661   4.256  13.010 -0.5305  3.2833 -0.3156
15445TIP3   OH267749   2.685   2.311   4.743  0.0208  0.3431  0.1392
15445TIP3    H167750   2.774   2.280   4.758  0.3123  0.5007 -1.1261
15445TIP3    H267751   2.630   2.233   4.753  0.3890  0.0793  0.1233
15446TIP3   OH267752   5.168   1.890  16.252 -0.4098 -0.0978  0.4051
15446TIP3    H167753   5.232   1.950  16.214  1.6197 -2.2886  0.1570
15446TIP3    H267754   5.188   1.889  16.346 -0.1732 -0.6401  0.3542
15447TIP3   OH267755   0.962   6.142   0.783  0.2088 -0.0729 -0.1587
15447TIP3    H167756   0.896   6.135   0.713 -0.1038 -0.6369  0.1798
15447TIP3    H267757   1.043   6.114   0.742  0.1894  0.3746 -0.5110
15448TIP3   OH267758   3.755   1.349  11.635 -0.6888 -0.1453 -0.3232
15448TIP3    H167759   3.712   1.375  11.716 -1.0445  0.1130 -0.5912
15448TIP3    H267760   3.718   1.406  11.568 -0.8157 -0.7258 -0.7631
15449TIP3   OH267761   5.598   6.640   1.111  0.1122  0.4606 -0.0068
15449TIP3    H167762   5.554   6.666   1.030  1.4566 -0.4209 -1.0589
15449TIP3    H267763   5.526   6.611   1.169 -0.8584  1.0546 -0.8823
15450TIP3   OH267764   0.068   5.500  10.707 -0.2577 -0.4835  0.0718
15450TIP3    H167765   0.127   5.430  10.679 -0.9526 -1.0019 -0.1106
15450TIP3    H267766   0.108   5.580  10.672  0.7859 -0.7236  0.6669
15451TIP3   OH267767   4.576   3.977  12.540 -0.0776 -0.1389 -0.7499
15451TIP3    H167768   4.517   3.980  12.465 -0.6858 -1.3007 -0.3478
15451TIP3    H267769   4.519   3.993  12.615 -0.0254 -1.8110 -0.3111
15452TIP3   OH267770   2.594   1.380  13.886  0.4779 -0.0409  0.3668
15452TIP3    H167771   2.598   1.455  13.826  0.5932 -0.6331 -0.3701
15452TIP3    H267772   2.658   1.318  13.851 -1.8812 -1.8618 -0.9326
15453TIP3   OH267773   3.650   1.689  14.704 -0.4547  0.2115 -0.5899
15453TIP3    H167774   3.658   1.706  14.610 -1.0042  1.1269 -0.4766
15453TIP3    H267775   3.557   1.667  14.716 -0.1303 -1.2368 -0.4523
15454TIP3   OH267776   4.948   3.799   0.100 -0.2396  0.2066 -0.4317
15454TIP3    H167777   4.886   3.844   0.157  0.0506  0.5376 -0.3691
15454TIP3    H267778   5.003   3.748   0.160 -0.1474  0.2914 -0.4436
15455TIP3   OH267779   2.654   4.989  16.388  0.3442 -0.2396  0.7162
15455TIP3    H167780   2.630   5.074  16.425 -0.5181  0.1228 -0.6180
15455TIP3    H267781   2.586   4.929  16.421 -0.3014  0.0398 -0.0721
15456TIP3   OH267782   0.093   3.311   1.161  0.0883  0.2108  0.0869
15456TIP3    H167783   0.006   3.282   1.133  0.2248  1.3969 -1.7761
15456TIP3    H267784   0.081   3.404   1.182  0.9450  0.4356 -0.3865
15457TIP3   OH267785   1.143   4.432  14.236 -0.3703  0.6920 -0.1977
15457TIP3    H167786   1.133   4.514  14.284  0.3871  1.1115 -0.7295
15457TIP3    H267787   1.062   4.423  14.186 -0.1211  1.5573 -0.7848
15458TIP3   OH267788   2.438   1.202  14.805  0.0092 -0.4456 -0.1122
15458TIP3    H167789   2.398   1.118  14.827  0.4306 -0.6803 -0.2309
15458TIP3    H267790   2.391   1.266  14.860 -0.6477 -0.6848 -0.3852
15459TIP3   OH267791   5.392   2.424  16.121 -0.6936  0.0671  0.3068
15459TIP3    H167792   5.376   2.347  16.176  1.4396 -2.4556 -2.2082
15459TIP3    H267793   5.331   2.413  16.048 -1.6455  1.8734  0.7889
15460TIP3   OH267794   6.500   6.137  12.536  0.3061  0.6927 -0.1385
15460TIP3    H167795   6.469   6.190  12.462  1.1303  1.7142  0.2309
15460TIP3    H267796   6.495   6.047  12.503  1.0912  1.1478 -1.6238
15461TIP3   OH267797   6.681   4.464  16.508 -0.3117  0.3350  1.2154
15461TIP3    H167798   6.683   4.375  16.543 -0.7290 -0.2025 -0.0588
15461TIP3    H267799   6.750   4.466  16.442 -0.0109  1.0932  1.5456
15462TIP3   OH267800   1.047   0.700   6.000 -0.0854  0.1268  0.3791
15462TIP3    H167801   1.082   0.737   6.081  0.9332 -0.5316  0.2638
15462TIP3    H267802   1.125   0.678   5.948 -0.7152  0.2805 -0.6600
15463TIP3   OH267803   0.919   4.588  16.344  0.3351  0.3258  0.1593
15463TIP3    H167804   0.856   4.658  16.325 -0.1046 -0.0102  0.3709
15463TIP3    H267805   0.914   4.577  16.439 -1.4279 -1.6825 -0.0950
15464TIP3   OH267806   2.084   0.421  16.544  0.3824  0.6463  0.2638
15464TIP3    H167807   2.128   0.413  16.460 -0.9555  0.2250 -0.4201
15464TIP3    H267808   2.051   0.333  16.564  0.2700  0.8394  0.9890
15465TIP3   OH267809   4.401   1.152  15.448  0.2973  0.1534 -0.4946
15465TIP3    H167810   4.417   1.236  15.492 -3.5841 -0.1850  2.1073
15465TIP3    H267811   4.336   1.173  15.381  0.9556 -0.4569 -1.3365
15466TIP3   OH267812   1.997   6.230   3.056  0.0611  0.0256  0.0921
15466TIP3    H167813   2.084   6.197   3.079  0.4237  1.4156  0.8312
15466TIP3    H267814   2.005   6.325   3.065 -1.3524  0.2122 -0.4995
15467TIP3   OH267815   3.256   5.207  11.799  0.1581  0.0481 -0.0556
15467TIP3    H167816   3.321   5.277  11.803  0.1370  0.1716 -1.2957
15467TIP3    H267817   3.210   5.222  11.716 -0.3431 -0.9991  0.0142
15468TIP3   OH267818   6.501   1.416  14.486 -0.0903  0.1723 -0.0156
15468TIP3    H167819   6.515   1.358  14.561  3.3132  2.0351  1.0206
15468TIP3    H267820   6.581   1.406  14.433  0.2451  3.1212 -0.2541
15469TIP3   OH267821   0.781   3.567   4.646 -0.1646  0.5987  0.1918
15469TIP3    H167822   0.746   3.548   4.733 -1.3463 -3.0867 -0.8895
15469TIP3    H267823   0.861   3.515   4.640 -0.3307  0.4423 -1.0175
15470TIP3   OH267824   4.520   2.728  14.726  0.4841  0.8478  0.1427
15470TIP3    H167825   4.607   2.757  14.697  1.4703 -1.6269  0.3894
15470TIP3    H267826   4.474   2.709  14.644  1.5485 -1.4324  0.0103
15471TIP3   OH267827   4.565   4.919  16.067  0.1923  0.5060  0.1552
15471TIP3    H167828   4.534   5.006  16.043 -1.2537 -0.0003  0.0902
15471TIP3    H267829   4.585   4.926  16.161 -0.2567  0.8287  0.2315
15472TIP3   OH267830   1.783   3.055   0.297  0.0852  0.6456  0.5144
15472TIP3    H167831   1.834   3.079   0.220  0.0731  1.0473  0.6316
15472TIP3    H267832   1.768   2.961   0.287  0.0738  0.6961  0.0234
15473TIP3   OH267833   5.514   6.516   2.624  0.6636 -0.0234 -0.0972
15473TIP3    H167834   5.504   6.589   2.685  0.0335 -0.4459  0.3127
15473TIP3    H267835   5.424   6.491   2.602  0.8772  0.2529 -1.3622
15474TIP3   OH267836   6.774   1.743   5.138 -0.8941 -0.4132  0.0090
15474TIP3    H167837   6.859   1.764   5.177 -0.5454 -1.2693 -0.2525
15474TIP3    H267838   6.719   1.818   5.157 -0.0078  0.2530 -0.0163
15475TIP3   OH267839   5.809   1.040  11.024  0.4096  0.8919  0.0023
15475TIP3    H167840   5.718   1.023  11.001  0.8632  0.6157 -1.7668
15475TIP3    H267841   5.837   1.108  10.963  1.4178  0.8806  0.4327
15476TIP3   OH267842   4.646   0.125  10.687  0.3507  0.1578  0.2549
15476TIP3    H167843   4.585   0.064  10.645 -1.8014  1.7381  0.8888
15476TIP3    H267844   4.711   0.145  10.619 -0.2408 -1.0466 -0.6960
15477TIP3   OH267845   3.634   3.213  15.730  0.0161  0.2769 -0.0869
15477TIP3    H167846   3.640   3.215  15.826 -0.2022  0.9352 -0.0818
15477TIP3    H267847   3.721   3.240  15.700  0.4488 -1.0519 -0.0920
15478TIP3   OH267848   2.077   2.667  14.075  0.4280 -0.6664  0.6469
15478TIP3    H167849   2.111   2.741  14.125 -0.5310  0.7935 -0.7795
15478TIP3    H267850   2.151   2.607  14.069  1.6552  0.7840  0.6961
15479TIP3   OH267851   3.315   0.946   4.895 -0.1400  0.3620 -0.0183
15479TIP3    H167852   3.346   0.934   4.805 -0.6042  2.0418 -0.4271
15479TIP3    H267853   3.254   1.020   4.890 -0.7595 -0.0081  1.5547
15480TIP3   OH267854   0.699   2.434   4.805 -0.0687  0.1383  0.1226
15480TIP3    H167855   0.768   2.440   4.739  0.7093 -0.7132  0.8350
15480TIP3    H267856   0.708   2.513   4.858 -0.4878  0.6640 -0.5728
15481TIP3   OH267857   6.794   3.473  15.504  0.0237  0.1732  0.0554
15481TIP3    H167858   6.826   3.405  15.563 -2.5964 -2.0465 -0.8843
15481TIP3    H267859   6.801   3.554  15.555  0.7826 -1.1631  2.2269
15482TIP3   OH267860   2.893   5.880   6.344 -0.1437  0.4856 -0.2020
15482TIP3    H167861   2.889   5.802   6.400  2.4347 -0.1647 -0.8114
15482TIP3    H267862   2.900   5.953   6.406 -1.4450  0.1943  0.3452
15483TIP3   OH267863   5.581   0.341  16.628 -0.5227  0.2275 -0.2823
15483TIP3    H167864   5.557   0.409  16.691  1.2157  0.9026 -0.3016
15483TIP3    H267865   5.545   0.260  16.665  1.3806  0.4144  2.1942
15484TIP3   OH267866   6.089   5.918  16.916  0.6320 -0.1589 -0.4501
15484TIP3    H167867   6.018   5.894  16.976  0.1101 -0.5946 -1.2335
15484TIP3    H267868   6.050   5.985  16.860  1.3196  0.7270  0.1033
15485TIP3   OH267869   3.813   6.558   1.494 -0.0368  0.3908 -0.2955
15485TIP3    H167870   3.843   6.517   1.575  0.5375 -0.1507 -0.7747
15485TIP3    H267871   3.807   6.487   1.431  1.1192  1.0285 -1.1783
15486TIP3   OH267872   0.000   4.527   6.562  0.0155  0.0500  0.2125
15486TIP3    H167873   0.060   4.589   6.521 -0.2519  1.0016  1.2078
15486TIP3    H267874  -0.062   4.582   6.609  2.4859 -0.8289  5.1822
15487TIP3   OH267875   0.042   1.193  15.032  0.8248 -0.3563  0.3188
15487TIP3    H167876   0.110   1.200  15.098  0.1984 -1.3509  1.0895
15487TIP3    H267877  -0.039   1.217  15.077  0.4885 -0.3111 -0.2866
15488TIP3   OH267878   6.216   5.718   3.487 -0.1453  0.1248  0.7104
15488TIP3    H167879   6.156   5.738   3.415 -0.0712 -0.2969  0.5237
15488TIP3    H267880   6.303   5.722   3.449 -0.0279  1.0599  1.0613
15489TIP3   OH267881   1.084   0.025  11.295  0.3203 -0.8354 -0.7290
15489TIP3    H167882   1.074   0.114  11.261 -2.2672 -1.3186 -1.4804
15489TIP3    H267883   1.170   0.024  11.336  0.5157  1.9336 -0.9010
15490TIP3   OH267884   3.563   3.274  15.988  0.0015 -0.0468 -0.8371
15490TIP3    H167885   3.606   3.356  15.964  1.0698 -0.4240 -0.2926
15490TIP3    H267886   3.470   3.296  15.991  0.3153  1.2969 -0.1028
15491TIP3   OH267887   2.880   1.097   4.926  0.3398 -0.6247  0.6002
15491TIP3    H167888   2.832   1.016   4.910 -0.0496 -0.1004 -1.2079
15491TIP3    H267889   2.813   1.165   4.926  0.6271 -0.3161  2.4434
15492TIP3   OH267890   2.080   3.862  14.578  0.0187  0.4649 -0.6481
15492TIP3    H167891   2.039   3.810  14.647 -1.0368 -0.2300 -1.7589
15492TIP3    H267892   2.007   3.910  14.538  0.5206  0.4299 -1.6386
15493TIP3   OH267893   6.627   2.977  14.185 -0.1597 -0.3766 -0.2729
15493TIP3    H167894   6.617   3.065  14.221 -0.2501  0.2336 -1.7151
15493TIP3    H267895   6.721   2.960  14.187  0.0821  0.6134 -1.8781
15494TIP3   OH267896   6.068   3.002   0.681 -0.0835  0.0436 -0.1316
15494TIP3    H167897   6.072   2.914   0.719  0.6732  0.2683  0.3310
15494TIP3    H267898   6.001   3.047   0.731  0.6630  0.2261  0.7417
15495TIP3   OH267899   3.141   1.158  15.363  0.2908 -0.1931 -0.3288
15495TIP3    H167900   3.084   1.215  15.312  1.0123  0.3830 -0.5090
15495TIP3    H267901   3.225   1.203  15.364  0.7350 -1.0080 -0.0344
15496TIP3   OH267902   6.264   1.251   4.942 -0.8357  1.0769 -0.3985
15496TIP3    H167903   6.236   1.299   4.864 -0.9169  1.9818  0.1763
15496TIP3    H267904   6.359   1.262   4.944 -0.6265 -0.3225 -1.2506
15497TIP3   OH267905   6.610   5.865   2.752 -0.0629 -0.1326 -0.4008
15497TIP3    H167906   6.542   5.876   2.686 -0.5482  1.9585  0.3466
15497TIP3    H267907   6.692   5.863   2.703 -0.4275  1.2283 -1.1108
15498TIP3   OH267908   4.103   3.085  13.898  0.6533  0.9183  0.0802
15498TIP3    H167909   4.046   3.101  13.973  1.2199  0.4018  0.6249
15498TIP3    H267910   4.184   3.131  13.919  1.2951 -0.3287  0.4006
15499TIP3   OH267911   1.583   0.388   3.857 -0.4664 -0.4789 -0.3560
15499TIP3    H167912   1.622   0.360   3.940 -1.8556 -1.6946 -0.0830
15499TIP3    H267913   1.496   0.421   3.880 -0.6806 -0.3645 -1.2738
15500TIP3   OH267914   0.215   6.479   1.299 -0.4815  0.2069 -0.1865
15500TIP3    H167915   0.271   6.474   1.377  1.1379 -2.2779 -1.3961
15500TIP3    H267916   0.128   6.498   1.334  0.7436  2.8238  1.8961
15501TIP3   OH267917   5.238   2.453   4.396  0.5635  0.5677  0.1401
15501TIP3    H167918   5.305   2.481   4.334  0.8007 -1.4158 -0.5849
15501TIP3    H267919   5.173   2.409   4.342  0.6237 -0.9461  1.2393
15502TIP3   OH267920   5.178   5.530   1.558  0.8694 -0.3677 -0.5027
15502TIP3    H167921   5.225   5.449   1.579 -0.7229 -1.6300 -1.4796
15502TIP3    H267922   5.101   5.528   1.615 -0.0579 -0.4575 -1.7119
15503TIP3   OH267923   2.416   3.459  12.774 -0.4363  0.5806 -0.0231
15503TIP3    H167924   2.344   3.485  12.716 -1.0000 -0.9536 -0.0687
15503TIP3    H267925   2.489   3.440  12.716 -0.4332  0.7894 -0.0869
15504TIP3   OH267926   1.823   0.447  13.747  0.0710  0.9885 -0.2960
15504TIP3    H167927   1.845   0.377  13.809 -0.9863  0.9286  0.0298
15504TIP3    H267928   1.888   0.438  13.677 -1.0729 -1.4645 -1.1713
15505TIP3   OH267929   3.836   2.586   0.799 -0.8433 -0.3890 -0.0445
15505TIP3    H167930   3.746   2.579   0.768 -1.6355 -0.3272  2.1138
15505TIP3    H267931   3.830   2.633   0.882  1.0599 -1.3074  0.6749
15506TIP3   OH267932   0.309   2.197  11.074 -0.2391 -0.4871 -0.4025
15506TIP3    H167933   0.335   2.250  10.999 -2.1189 -2.2129 -2.4296
15506TIP3    H267934   0.383   2.137  11.087  0.9060  1.0550  0.4150
15507TIP3   OH267935   5.201   4.431   4.504  0.1950 -0.1396  0.1404
15507TIP3    H167936   5.226   4.523   4.489  0.2930 -0.3742 -1.2814
15507TIP3    H267937   5.284   4.387   4.521  0.0081  0.2733  2.4258
15508TIP3   OH267938   3.502   3.182   3.960  0.0016 -0.2400 -0.4493
15508TIP3    H167939   3.455   3.190   4.043  1.2275 -1.0320  0.3541
15508TIP3    H267940   3.440   3.138   3.902 -0.8180  0.1827  0.0894
15509TIP3   OH267941   3.389   2.564   0.403 -0.2323  1.0520  0.3160
15509TIP3    H167942   3.483   2.556   0.392  0.0179  1.6638  1.7796
15509TIP3    H267943   3.354   2.561   0.313  1.1131  0.3152 -0.2123
15510TIP3   OH267944   6.412   5.018   3.700  0.5573 -0.2272 -0.1227
15510TIP3    H167945   6.445   4.929   3.702  1.4874  0.1270  1.1468
15510TIP3    H267946   6.326   5.013   3.741  0.8957 -0.4280  0.5655
15511TIP3   OH267947   5.266   1.520  15.990 -0.7733  0.3869  0.2282
15511TIP3    H167948   5.261   1.459  15.917 -1.4450 -0.1761  0.7299
15511TIP3    H267949   5.318   1.593  15.957 -1.6913  0.4833 -1.0544
15512TIP3   OH267950   6.345   6.023   3.303 -0.1359  0.1288 -0.4275
15512TIP3    H167951   6.266   5.970   3.306 -0.3014  0.3831 -0.2063
15512TIP3    H267952   6.318   6.104   3.259 -0.6411  1.2563  1.7956
15513TIP3   OH267953   3.957   5.553  13.124  0.3167 -0.0315 -0.1962
15513TIP3    H167954   4.038   5.548  13.073 -0.0454 -1.3191 -0.6826
15513TIP3    H267955   3.888   5.571  13.060 -0.3425 -3.0275 -0.4703
15514TIP3   OH267956   0.872   3.460   1.452  0.3129 -0.1018 -0.4864
15514TIP3    H167957   0.779   3.449   1.473  0.4300  0.6388  0.4728
15514TIP3    H267958   0.900   3.372   1.425 -0.8571 -0.1611 -1.6317
15515TIP3   OH267959   1.044   4.210  12.534 -0.2777 -0.1030 -0.1281
15515TIP3    H167960   1.042   4.229  12.628  0.1341 -2.7583  0.5046
15515TIP3    H267961   1.011   4.290  12.493 -2.3537  0.4782  2.3708
15516TIP3   OH267962   2.074   0.865   0.588  0.1912 -0.3500 -0.0701
15516TIP3    H167963   2.085   0.935   0.524 -2.6891  2.0179  1.7796
15516TIP3    H267964   2.151   0.873   0.645  0.1821  0.9502 -0.2158
15517TIP3   OH267965   1.409   0.471  14.320  0.2357  0.5487 -0.7750
15517TIP3    H167966   1.342   0.504  14.381  1.1882  0.5001  0.3291
15517TIP3    H267967   1.443   0.392  14.362  0.9180  0.5179 -1.3711
15518TIP3   OH267968   6.136   2.612   3.964 -0.0616 -0.3355 -0.0613
15518TIP3    H167969   6.155   2.678   3.897 -0.7407  0.3304  0.3787
15518TIP3    H267970   6.054   2.572   3.936  1.3160 -2.4137 -1.3658
15519TIP3   OH267971   4.091   5.791  14.091 -0.1547 -0.2775 -0.5166
15519TIP3    H167972   3.998   5.783  14.073 -0.1406  0.4637 -0.9889
15519TIP3    H267973   4.129   5.817  14.007  0.6419 -1.6550 -0.6044
15520TIP3   OH267974   5.427   4.725  15.909 -0.0895  0.2864 -0.4752
15520TIP3    H167975   5.474   4.683  15.981 -2.6327 -1.0482  0.5353
15520TIP3    H267976   5.463   4.684  15.830 -0.3778 -1.6034  0.3327
15521TIP3   OH267977   5.422   4.112  14.605 -0.6860  0.0064  0.4535
15521TIP3    H167978   5.373   4.116  14.523 -0.9164  0.9326  0.6243
15521TIP3    H267979   5.485   4.184  14.598  1.4139 -1.8051 -0.2336
15522TIP3   OH267980   0.874   5.258   4.196  0.4400  0.5732 -0.0185
15522TIP3    H167981   0.936   5.200   4.152  1.5689  1.9682 -0.3386
15522TIP3    H267982   0.826   5.201   4.256  0.1590 -1.0295 -1.6817
15523TIP3   OH267983   4.751   4.779   0.880 -0.5413  0.1564  0.6701
15523TIP3    H167984   4.799   4.811   0.957 -1.0822 -0.8593  1.4593
15523TIP3    H267985   4.770   4.843   0.812  0.2215  0.9107  1.5551
15524TIP3   OH267986   5.990   6.043  11.954 -0.4376  0.9735  0.0386
15524TIP3    H167987   5.954   6.043  12.043  0.6678  1.0937  0.5059
15524TIP3    H267988   5.994   5.951  11.930  0.9463  0.7955  0.8445
15525TIP3   OH267989   5.747   0.506   4.030 -0.2660  0.4110 -0.6246
15525TIP3    H167990   5.746   0.426   3.976  0.1041 -1.0558  1.4423
15525TIP3    H267991   5.827   0.551   4.003  0.3243 -0.6851 -0.7834
15526TIP3   OH267992   3.364   0.158   4.646 -0.0359  0.3680 -0.4831
15526TIP3    H167993   3.270   0.173   4.647 -0.0119  0.5690 -0.9445
15526TIP3    H267994   3.402   0.242   4.671 -0.0129 -0.2329  1.7322
15527TIP3   OH267995   3.262   4.157   5.637 -0.6152  0.6259  0.1360
15527TIP3    H167996   3.243   4.071   5.599 -2.8840  1.3534 -0.5408
15527TIP3    H267997   3.275   4.214   5.561 -2.6638  1.5649  0.4110
15528TIP3   OH267998   4.216   5.930  16.277  0.7063 -0.1041 -0.0421
15528TIP3    H167999   4.286   5.866  16.291  0.0384 -1.3871 -2.1590
15528TIP3    H268000   4.176   5.904  16.194 -4.6896 -1.7949  2.6300
15529TIP3   OH268001   1.887   1.334   6.089  0.1631  0.4997 -0.2604
15529TIP3    H168002   1.949   1.267   6.060  1.9288  2.0328 -0.1705
15529TIP3    H268003   1.837   1.355   6.010  0.9297  0.4725 -0.7641
15530TIP3   OH268004   4.104   6.571   3.910  0.2791 -0.2349 -0.0535
15530TIP3    H168005   4.080   6.585   4.001 -1.2520 -2.2485 -0.0618
15530TIP3    H268006   4.096   6.476   3.898 -0.8497  0.0921 -2.5822
15531TIP3   OH268007   1.778   0.017   5.310  0.4110  0.2237 -0.2817
15531TIP3    H168008   1.848   0.078   5.333  1.6169 -0.5955 -1.5860
15531TIP3    H268009   1.794  -0.004   5.218 -0.8419 -0.9229 -0.2659
15532TIP3   OH268010   3.699   5.285   2.318  0.0362  0.2698  0.1550
15532TIP3    H168011   3.669   5.231   2.391  0.2870  0.4986  0.4297
15532TIP3    H268012   3.750   5.355   2.359 -0.7805  1.0636 -0.1494
15533TIP3   OH268013   6.755   6.325   2.202 -0.1332  0.1529 -0.6630
15533TIP3    H168014   6.763   6.258   2.134 -0.3660 -1.1960  0.5646
15533TIP3    H268015   6.672   6.304   2.245  0.6968  0.0311  0.9494
15534TIP3   OH268016   1.339   6.273   0.764 -0.4836  0.1099  0.0102
15534TIP3    H168017   1.366   6.328   0.690 -1.8335  0.2916 -0.3852
15534TIP3    H268018   1.271   6.217   0.727  0.5283 -1.5068  0.5346
15535TIP3   OH268019   6.615   5.115   5.135  0.0117 -0.2339  0.2370
15535TIP3    H168020   6.655   5.038   5.095  0.0431 -0.6221  0.9777
15535TIP3    H268021   6.610   5.092   5.228  0.5319  0.8910  0.5485
15536TIP3   OH268022   4.401   4.410   0.579  0.1867 -0.1324 -0.4262
15536TIP3    H168023   4.356   4.494   0.592 -2.4018 -0.7749 -3.8209
15536TIP3    H268024   4.375   4.357   0.654 -0.8907  1.0260  0.0661
15537TIP3   OH268025   3.221   6.766   1.381  0.3386 -0.5309  0.4500
15537TIP3    H168026   3.214   6.804   1.294 -1.8099 -0.5469  0.5645
15537TIP3    H268027   3.195   6.675   1.370 -1.7206 -0.0913  1.3679
15538TIP3   OH268028   3.467   6.748   0.999  0.8192 -0.2188 -0.8919
15538TIP3    H168029   3.442   6.809   0.929 -2.8210  0.7833  1.0482
15538TIP3    H268030   3.463   6.662   0.957  0.2447  0.4439 -2.2805
15539TIP3   OH268031   4.731   1.317  12.431 -0.6192 -0.0915  0.3036
15539TIP3    H168032   4.670   1.372  12.481 -0.5563 -0.0894  0.3787
15539TIP3    H268033   4.807   1.374  12.416 -0.9532  0.1640 -0.4639
15540TIP3   OH268034   1.477   0.883  15.581  0.0853  0.2259  0.3100
15540TIP3    H168035   1.391   0.844  15.567  0.6957 -2.2843  2.6462
15540TIP3    H268036   1.459   0.964  15.629 -1.0075  0.4353 -0.4239
15541TIP3   OH268037   6.528   6.722   3.928  0.2117 -0.7856 -0.1260
15541TIP3    H168038   6.446   6.714   3.879 -0.9024  1.1628  1.2691
15541TIP3    H268039   6.513   6.674   4.009  1.2109 -2.0765 -0.6738
15542TIP3   OH268040   2.732   6.276   3.753 -0.5723  0.0330 -0.2460
15542TIP3    H168041   2.720   6.190   3.793  0.4702  0.6480  1.5059
15542TIP3    H268042   2.823   6.275   3.721 -0.8210  0.2018 -0.9769
15543TIP3   OH268043   6.205   2.591   4.900  0.6955 -0.2284  0.4763
15543TIP3    H168044   6.128   2.591   4.844  1.0293 -1.6657 -0.0345
15543TIP3    H268045   6.195   2.668   4.956  0.9105  1.9284 -2.2657
15544TIP3   OH268046   5.804   1.116  16.084 -0.1991 -0.5907  0.4992
15544TIP3    H168047   5.823   1.108  15.990 -2.7516  1.9186 -0.3652
15544TIP3    H268048   5.878   1.074  16.127  1.2390 -1.5321 -2.6206
15545TIP3   OH268049   3.808   4.173  13.661  0.6431 -0.2029  0.4736
15545TIP3    H168050   3.727   4.183  13.610  1.1464 -1.2017 -0.5682
15545TIP3    H268051   3.796   4.232  13.736  0.3944  2.3778 -1.4276
15546TIP3   OH268052   2.581   6.254   4.415  0.4606  0.5785  0.5284
15546TIP3    H168053   2.532   6.188   4.366  0.5881 -0.6982  2.0349
15546TIP3    H268054   2.669   6.250   4.378 -0.1362  1.7765 -1.1298
15547TIP3   OH268055   1.423   3.283   4.472  0.1164 -0.4104 -0.0207
15547TIP3    H168056   1.378   3.314   4.393  2.2620 -2.0397 -2.0273
15547TIP3    H268057   1.419   3.188   4.466 -0.0779 -0.5853  2.1506
15548TIP3   OH268058   5.036   2.213   0.417 -0.6117 -0.2082  0.0992
15548TIP3    H168059   5.071   2.208   0.506 -0.9245  0.7406  0.2875
15548TIP3    H268060   5.036   2.122   0.386 -2.0497 -0.7884  1.6634
15549TIP3   OH268061   1.904   1.903  16.261  0.6134  0.1434  0.2271
15549TIP3    H168062   1.927   1.811  16.268  3.5849  0.8079  0.3703
15549TIP3    H268063   1.911   1.923  16.167  0.0320  0.2567  0.2017
15550TIP3   OH268064   3.853   6.539  17.011 -0.3019 -0.4455 -0.0351
15550TIP3    H168065   3.929   6.570  16.963 -0.8419 -0.8845 -1.2192
15550TIP3    H268066   3.787   6.608  16.999 -0.3150 -0.3845  0.3905
15551TIP3   OH268067   0.398   2.723  13.279 -0.3082 -0.3291 -0.2690
15551TIP3    H168068   0.339   2.706  13.205 -0.0416 -1.4893 -0.2314
15551TIP3    H268069   0.344   2.706  13.357 -0.3840  0.2066 -0.1978
15552TIP3   OH268070   4.445   6.171  12.335  0.5193 -0.6113  0.7902
15552TIP3    H168071   4.406   6.245  12.288  2.2980 -0.0270  0.1320
15552TIP3    H268072   4.408   6.175  12.423  0.3065  0.8580  0.6575
15553TIP3   OH268073   5.743   5.627  12.312  0.1864 -0.0562 -0.2614
15553TIP3    H168074   5.788   5.606  12.394  0.0062  0.4198 -0.0382
15553TIP3    H268075   5.807   5.608  12.244  0.8935  1.0618  0.0721
15554TIP3   OH268076   4.920   1.475   1.704  0.4579  0.1145 -0.3341
15554TIP3    H168077   5.013   1.454   1.701  0.2134 -1.0813 -0.2266
15554TIP3    H268078   4.882   1.423   1.633 -0.7095 -2.7659  2.1989
15555TIP3   OH268079   5.958   1.243  11.387  0.0394 -0.0989 -0.3694
15555TIP3    H168080   6.043   1.207  11.361  0.5567  1.6765 -1.3016
15555TIP3    H268081   5.976   1.293  11.466 -0.1041  0.3846 -0.6386
15556TIP3   OH268082   2.276   0.765   1.592  0.3086  0.6547  0.5287
15556TIP3    H168083   2.242   0.677   1.611  1.2091  0.0839 -0.4028
15556TIP3    H268084   2.216   0.800   1.527 -0.2932  0.9052  1.2075
15557TIP3   OH268085   3.463   1.864   2.704  0.2614 -0.0825 -0.0046
15557TIP3    H168086   3.476   1.909   2.787 -0.7889 -0.5332  0.4178
15557TIP3    H268087   3.534   1.896   2.648 -1.4819  3.6302 -0.3981
15558TIP3   OH268088   3.439   0.695   0.568  0.1770 -0.1561 -0.5832
15558TIP3    H168089   3.500   0.670   0.498 -0.3336  0.0030 -1.0854
15558TIP3    H268090   3.360   0.722   0.523 -0.4208 -0.7556  0.0852
15559TIP3   OH268091   5.827   0.269   0.044  0.2776 -0.7530 -0.0402
15559TIP3    H168092   5.816   0.210  -0.031 -1.0305 -0.4074 -0.1418
15559TIP3    H268093   5.746   0.319   0.047  1.5381  1.4633 -0.3099
15560TIP3   OH268094   5.809   5.151  15.536  0.0684  0.4873 -0.5953
15560TIP3    H168095   5.761   5.230  15.512 -0.1123  0.6619  0.3149
15560TIP3    H268096   5.748   5.100  15.589  0.0017 -0.5245 -1.5927
15561TIP3   OH268097   3.517   2.270  13.538  0.0483 -0.1889 -0.2152
15561TIP3    H168098   3.435   2.231  13.568  0.1323 -0.8795 -0.8557
15561TIP3    H268099   3.575   2.266  13.615 -0.1563 -0.7410 -0.0832
15562TIP3   OH268100   1.376   5.737   2.012  0.3830  0.3500  0.1873
15562TIP3    H168101   1.320   5.805   2.049  0.6726  0.9427 -0.4501
15562TIP3    H268102   1.318   5.660   2.004 -1.0996  1.6050 -2.7289
15563TIP3   OH268103   0.220   0.522   3.479  0.8907 -0.2260  0.0407
15563TIP3    H168104   0.126   0.540   3.486  0.7597 -0.2935 -1.2594
15563TIP3    H268105   0.260   0.609   3.473  0.9651 -0.1826  1.0481
15564TIP3   OH268106   4.981   3.300   6.204 -1.0184 -0.5598  0.6932
15564TIP3    H168107   5.051   3.312   6.268  0.0424 -2.2542 -0.0847
15564TIP3    H268108   5.025   3.307   6.119 -1.8587 -1.2594  0.1871
15565TIP3   OH268109   3.638   4.286   4.876 -0.2800 -0.4320 -0.2175
15565TIP3    H168110   3.667   4.243   4.795 -1.1654  1.1621 -1.4432
15565TIP3    H268111   3.653   4.221   4.944 -0.0480 -2.0604 -1.7407
15566TIP3   OH268112   0.780   0.732   3.859 -0.5954  0.6425 -0.0274
15566TIP3    H168113   0.821   0.752   3.944  1.2990 -0.5318 -0.5980
15566TIP3    H268114   0.816   0.647   3.835  0.2804  1.6739 -2.7959
15567TIP3   OH268115   2.325   4.328   4.172 -0.4396 -0.1399  0.1725
15567TIP3    H168116   2.350   4.317   4.263  0.3192  1.0973  0.1343
15567TIP3    H268117   2.245   4.381   4.175  0.1764  0.8069  0.0912
15568TIP3   OH268118   1.616   3.967  11.254 -0.1131 -0.1828 -0.0438
15568TIP3    H168119   1.586   4.056  11.237  1.0781  0.1347 -0.5709
15568TIP3    H268120   1.674   3.946  11.181  1.2522 -0.6181  1.1048
15569TIP3   OH268121   4.264   5.754   1.987  0.4613 -0.4253 -0.1180
15569TIP3    H168122   4.282   5.841   1.952 -0.3229 -0.4164 -0.5226
15569TIP3    H268123   4.349   5.721   2.014  0.6185  0.9831  1.2765
15570TIP3   OH268124   6.341   5.655  13.906 -0.0310 -0.1885  0.1808
15570TIP3    H168125   6.289   5.577  13.922 -2.5829  1.7937  2.4364
15570TIP3    H268126   6.313   5.686  13.820  0.0397 -1.0169 -0.1488
15571TIP3   OH268127   3.874   3.911   3.749  0.1399  0.1556  0.5676
15571TIP3    H168128   3.847   3.828   3.788 -1.6034 -0.5444 -1.9087
15571TIP3    H268129   3.862   3.899   3.655  1.5765  2.6323 -0.0343
15572TIP3   OH268130   1.794   5.904   0.097 -0.0575  0.1415  0.7130
15572TIP3    H168131   1.861   5.866   0.154  0.0767  1.2231  1.2963
15572TIP3    H268132   1.844   5.943   0.024  0.1785  2.5843  2.0643
15573TIP3   OH268133   5.211   5.421   1.139 -0.0330  0.1930  0.8464
15573TIP3    H168134   5.130   5.456   1.176 -1.7929 -2.5856 -0.1155
15573TIP3    H268135   5.234   5.348   1.196  0.0455 -0.9715 -0.6310
15574TIP3   OH268136   2.177   4.843   1.862  0.4814 -0.0474  0.2883
15574TIP3    H168137   2.097   4.880   1.898 -0.6144 -0.8329 -1.2789
15574TIP3    H268138   2.165   4.845   1.768  1.5023 -1.9110  0.0691
15575TIP3   OH268139   5.100   2.699  11.127  0.3185 -0.4261 -0.4805
15575TIP3    H168140   5.136   2.610  11.125  0.6227 -0.2934 -1.8428
15575TIP3    H268141   5.012   2.688  11.161  0.3136 -1.2699 -0.7362
15576TIP3   OH268142   0.647   3.344  13.685  0.3720  0.1588 -0.0215
15576TIP3    H168143   0.671   3.433  13.713  1.5519  0.3159 -1.4101
15576TIP3    H268144   0.643   3.294  13.767  0.0011  1.4033  0.7528
15577TIP3   OH268145   3.488   3.500   3.328 -0.0253  0.3201 -0.4945
15577TIP3    H168146   3.436   3.578   3.350  2.9169  1.9610  1.3313
15577TIP3    H268147   3.476   3.441   3.402  0.7590  0.7603 -0.0047
15578TIP3   OH268148   3.929   5.699   3.653 -0.0718 -0.1151  0.0836
15578TIP3    H168149   3.939   5.748   3.572  1.9278 -0.2840  0.1824
15578TIP3    H268150   4.018   5.669   3.674 -1.2677 -4.9187 -0.6622
15579TIP3   OH268151   6.439   6.052   6.103 -0.2795 -0.3873 -0.4692
15579TIP3    H168152   6.433   6.130   6.158  3.8552 -0.3635  0.2813
15579TIP3    H268153   6.349   6.020   6.097 -1.8793  3.2229  0.8783
15580TIP3   OH268154   6.492   1.275   1.983  0.0936  0.0368  0.5299
15580TIP3    H168155   6.489   1.230   1.898  0.1198 -2.1135  1.6107
15580TIP3    H268156   6.403   1.265   2.018  0.2400  0.3936  1.0120
15581TIP3   OH268157   4.106   4.103   3.843 -0.5092 -0.1701 -0.6007
15581TIP3    H168158   4.187   4.065   3.807 -0.6594 -1.3572  0.2731
15581TIP3    H268159   4.039   4.037   3.825 -0.6547 -0.6644  1.5192
15582TIP3   OH268160   6.171   0.849   3.417 -0.4469  0.0864  0.2194
15582TIP3    H168161   6.174   0.824   3.325  1.6399  1.4647 -0.1457
15582TIP3    H268162   6.204   0.772   3.463  3.9871  1.1687 -0.7366
15583TIP3   OH268163   2.947   5.067  14.506  0.3339  0.2221 -0.3785
15583TIP3    H168164   2.880   5.069  14.574  0.6974 -0.1435 -0.0026
15583TIP3    H268165   3.029   5.088  14.552  0.5648  0.0977 -0.7231
15584TIP3   OH268166   3.407   1.084   2.860 -0.0248 -0.0921  0.1510
15584TIP3    H168167   3.350   1.016   2.896 -1.3213  0.1789 -1.2833
15584TIP3    H268168   3.392   1.160   2.916  0.3621 -0.5519  0.8992
15585TIP3   OH268169   2.199   2.019  13.542 -0.2321 -0.3004  0.1436
15585TIP3    H168170   2.280   2.018  13.491  0.2012  0.1256  0.8059
15585TIP3    H268171   2.220   2.072  13.619 -0.5937 -1.6991  1.2416
15586TIP3   OH268172   3.638   6.637  11.109  0.3821  0.2994 -0.3414
15586TIP3    H168173   3.613   6.552  11.071  0.4637  0.1146  0.0160
15586TIP3    H268174   3.727   6.652  11.077  0.4275  0.1729 -0.2772
15587TIP3   OH268175   5.036   6.197   0.580  0.7996  0.1946 -0.3335
15587TIP3    H168176   5.115   6.146   0.597  0.2996 -0.6868 -0.6079
15587TIP3    H268177   5.045   6.226   0.489  1.1292  0.6839 -0.1475
15588TIP3   OH268178   3.020   4.749   4.603  0.7586 -0.6908 -0.5084
15588TIP3    H168179   2.967   4.706   4.670  1.7323 -0.3171  0.5323
15588TIP3    H268180   3.025   4.840   4.632  1.6004 -0.6293 -0.8307
15589TIP3   OH268181   3.882   0.746   3.486  0.3770  0.5370  0.1464
15589TIP3    H168182   3.875   0.828   3.437  0.8520  0.9648  0.7867
15589TIP3    H268183   3.813   0.690   3.449 -0.5725  1.5524  0.3549
15590TIP3   OH268184   2.750   0.221   2.537  1.0588 -0.2537 -0.1867
15590TIP3    H168185   2.837   0.245   2.505  0.8812  1.4218  0.4716
15590TIP3    H268186   2.720   0.299   2.584 -1.0553 -0.5508 -0.9409
15591TIP3   OH268187   6.701   1.565  15.565 -0.2529 -0.2392  0.0214
15591TIP3    H168188   6.668   1.530  15.648 -0.2783 -0.4990 -0.0978
15591TIP3    H268189   6.749   1.644  15.590 -0.9312  0.1265  0.1995
15592TIP3   OH268190   6.357   4.241   2.329  0.3512 -0.3194  0.3568
15592TIP3    H168191   6.439   4.290   2.319  0.7250 -0.9084  0.4752
15592TIP3    H268192   6.305   4.266   2.253  1.2236 -1.0221 -0.5086
15593TIP3   OH268193   4.762   5.154   3.620 -0.7139  0.0765 -0.5472
15593TIP3    H168194   4.769   5.112   3.705 -0.4297 -0.4079 -0.8103
15593TIP3    H268195   4.767   5.083   3.556 -1.0642  0.4188 -0.9681
15594TIP3   OH268196   2.561   1.781   3.817 -0.2490  1.1134  0.3398
15594TIP3    H168197   2.477   1.801   3.775 -0.7910  0.1974  0.9573
15594TIP3    H268198   2.616   1.747   3.746 -0.2896  1.9999 -0.1276
15595TIP3   OH268199   4.344   6.280   0.574 -0.1542 -0.0221  0.2209
15595TIP3    H168200   4.402   6.267   0.499 -0.9377  0.7886 -0.5428
15595TIP3    H268201   4.262   6.236   0.550 -0.0624 -0.7077  1.0755
15596TIP3   OH268202   6.356   3.936   6.984  0.4268  0.3597  0.5034
15596TIP3    H168203   6.449   3.913   6.989  0.0191 -2.1431 -1.5187
15596TIP3    H268204   6.344   3.969   6.895 -0.6668  0.4383  0.6645
15597TIP3   OH268205   2.356   4.960   2.415 -0.0246  0.9222 -0.4060
15597TIP3    H168206   2.307   4.967   2.333  2.2343 -1.7867 -2.1662
15597TIP3    H268207   2.403   5.043   2.423 -0.9758  1.5704 -1.3347
15598TIP3   OH268208   1.186   5.121   1.791 -0.3336 -0.2669  0.4143
15598TIP3    H168209   1.248   5.124   1.718 -2.2138 -1.6923 -1.3677
15598TIP3    H268210   1.136   5.202   1.784  0.8110  0.5652  1.4412
15599TIP3   OH268211   6.227   3.842  16.623 -0.3037  0.3838 -0.3080
15599TIP3    H168212   6.278   3.766  16.653 -0.2467  0.3461 -0.4978
15599TIP3    H268213   6.254   3.853  16.532  0.1320  1.0004 -0.1116
15600TIP3   OH268214   5.381   1.066   2.331  0.4935 -0.1532 -0.1716
15600TIP3    H168215   5.399   0.975   2.307  0.9007  0.1135 -0.9140
15600TIP3    H268216   5.348   1.106   2.250  0.7255  0.4688  0.0378
15601TIP3   OH268217   1.693   3.314  15.055 -0.0283  0.4097  0.0951
15601TIP3    H168218   1.668   3.238  15.107  1.3538  0.7229  1.2697
15601TIP3    H268219   1.670   3.389  15.109  1.6449  0.7371  0.4018
15602TIP3   OH268220   1.840   5.021  13.285  0.4020  0.0963  0.4638
15602TIP3    H168221   1.876   4.973  13.359 -2.3734 -1.2700  1.0506
15602TIP3    H268222   1.775   5.080  13.323 -1.9735 -1.4872 -0.8209
15603TIP3   OH268223   5.820   0.864  16.309 -0.5197  0.6727  0.1621
15603TIP3    H168224   5.895   0.916  16.280 -0.1552  0.7655  1.2347
15603TIP3    H268225   5.794   0.904  16.393 -0.3506 -0.7545  0.9177
15604TIP3   OH268226   5.358   4.206   3.397  0.0471  0.4341 -0.3361
15604TIP3    H168227   5.293   4.139   3.419  1.9938 -1.2532  0.6718
15604TIP3    H268228   5.332   4.283   3.446 -0.4021 -0.6674  1.2310
15605TIP3   OH268229   3.868   0.149  13.408 -0.1931  0.3672  0.8547
15605TIP3    H168230   3.961   0.129  13.420 -0.4004 -0.1448  1.6445
15605TIP3    H268231   3.855   0.230  13.457  0.5056  2.2795 -1.8303
15606TIP3   OH268232   1.467   4.905   2.225  0.4579 -0.0613  0.1436
15606TIP3    H168233   1.397   4.959   2.188 -0.5031 -1.1992  0.2354
15606TIP3    H268234   1.459   4.917   2.320  1.6783  1.3316  0.1143
15607TIP3   OH268235   4.736   4.904   3.500  0.1250 -0.5426  0.6192
15607TIP3    H168236   4.806   4.842   3.481 -1.2805 -2.0157 -0.0225
15607TIP3    H268237   4.668   4.851   3.543 -0.9574  0.6181  0.4036
15608TIP3   OH268238   2.403   5.092  16.252  0.3270  0.2858  0.3907
15608TIP3    H168239   2.410   5.144  16.332 -0.8606  1.0389  0.0217
15608TIP3    H268240   2.417   5.156  16.181 -2.8373  0.5151 -0.1331
15609TIP3   OH268241   1.991   0.815   6.446  0.0511  0.3472  0.0276
15609TIP3    H168242   2.078   0.849   6.468  0.1392 -0.1632  0.5068
15609TIP3    H268243   1.962   0.867   6.371  0.4872  0.9715  0.2884
15610TIP3   OH268244   4.537   5.548  12.452  0.7391  0.2850  0.4130
15610TIP3    H168245   4.488   5.559  12.533  1.0597 -2.0340  0.9943
15610TIP3    H268246   4.471   5.527  12.386  0.7684 -2.1546  1.0532
15611TIP3   OH268247   6.807   4.852   6.176  0.1679 -0.5703 -0.0345
15611TIP3    H168248   6.754   4.814   6.246 -0.1408  0.5833  0.3919
15611TIP3    H268249   6.897   4.839   6.204  0.0496  0.7430  1.1111
15612TIP3   OH268250   3.878   2.144   0.656  0.1013 -0.0547  0.6219
15612TIP3    H168251   3.838   2.057   0.663 -1.6046  0.5622 -0.6295
15612TIP3    H268252   3.817   2.201   0.703  0.4078  0.6920  0.1152
15613TIP3   OH268253   0.667   3.470  12.400 -0.2985  0.3554 -0.2408
15613TIP3    H168254   0.662   3.467  12.304 -0.2399 -1.1310 -0.2117
15613TIP3    H268255   0.586   3.514  12.426 -0.0432  1.3040 -0.9814
15614TIP3   OH268256   6.509   6.630  16.760 -0.2810  0.1270  0.7151
15614TIP3    H168257   6.481   6.721  16.761 -0.5422  0.1247  3.8610
15614TIP3    H268258   6.446   6.584  16.815  0.9955 -1.5522  0.8923
15615TIP3   OH268259   5.133   6.079   4.178 -0.3247 -0.1642 -0.1896
15615TIP3    H168260   5.171   6.055   4.093 -2.3191  0.5947 -1.3880
15615TIP3    H268261   5.208   6.090   4.236  1.0628 -1.5641 -1.6086
15616TIP3   OH268262   2.093   2.747   2.855  0.1553 -0.8387 -0.0205
15616TIP3    H168263   2.061   2.672   2.805  0.4541 -0.3984 -0.9057
15616TIP3    H268264   2.167   2.714   2.905  0.4767 -1.0745 -0.6409
15617TIP3   OH268265   2.231   1.006  16.157 -0.3091 -0.3897  0.3559
15617TIP3    H168266   2.304   1.061  16.129  0.0969  0.0823  2.2287
15617TIP3    H268267   2.267   0.952  16.226 -1.1826 -1.7744 -0.2269
15618TIP3   OH268268   3.490   5.854   4.811  0.2395 -0.0429  0.3140
15618TIP3    H168269   3.494   5.877   4.904  1.0298  0.0912  0.2568
15618TIP3    H268270   3.452   5.932   4.769 -1.8599 -0.7976  0.7316
15619TIP3   OH268271   0.918   3.022  12.880  0.1626  0.2082 -0.2623
15619TIP3    H168272   0.889   2.944  12.834 -0.3475  0.8614 -1.0698
15619TIP3    H268273   1.012   3.008  12.895  0.2788 -0.1263 -1.2565
15620TIP3   OH268274   0.687   1.881   0.328 -0.1802 -0.0924 -0.2156
15620TIP3    H168275   0.676   1.974   0.346  0.8003 -0.1074  0.5623
15620TIP3    H268276   0.778   1.872   0.300 -0.0806 -0.8930  0.3088
15621TIP3   OH268277   1.772   0.219   3.302 -0.4755  0.0503 -0.1862
15621TIP3    H168278   1.683   0.183   3.301 -0.7667  0.7603 -1.4485
15621TIP3    H268279   1.774   0.275   3.379 -0.8568 -0.6037  0.3101
15622TIP3   OH268280   0.990   0.786   2.420  0.1782  0.1231  0.0385
15622TIP3    H168281   0.942   0.839   2.484  0.8553  1.1148 -0.2497
15622TIP3    H268282   0.991   0.840   2.341  0.5862 -0.4785 -0.3752
15623TIP3   OH268283   1.877   3.587  14.307  0.1680 -0.0472  0.0546
15623TIP3    H168284   1.823   3.522  14.262  0.4730  0.0013 -0.3867
15623TIP3    H268285   1.955   3.538  14.334 -0.5806 -0.3978  1.7004
15624TIP3   OH268286   3.376   2.022   0.840 -0.0116  0.2857 -0.0550
15624TIP3    H168287   3.415   2.015   0.752  0.4614 -2.1388  0.2933
15624TIP3    H268288   3.447   2.056   0.894 -0.4410  2.2588 -0.6289
15625TIP3   OH268289   4.908   3.688   2.770  0.2867 -0.1828  0.0951
15625TIP3    H168290   4.984   3.738   2.798 -1.0172  0.8872  1.9621
15625TIP3    H268291   4.882   3.729   2.687  1.7261 -0.5858 -0.5796
15626TIP3   OH268292   5.523   2.468   0.702 -0.4806  0.4015 -0.2565
15626TIP3    H168293   5.526   2.530   0.774  1.9464  0.7047 -0.5500
15626TIP3    H268294   5.476   2.514   0.633  1.7166  2.2332 -0.6615
15627TIP3   OH268295   3.804   0.290   1.786 -0.4449 -0.3494  0.2066
15627TIP3    H168296   3.756   0.371   1.766  3.2540  2.3667  1.2280
15627TIP3    H268297   3.828   0.299   1.878  0.9490 -2.1476  0.0626
15628TIP3   OH268298   1.762   5.037   2.424  0.5815  0.2772  0.0933
15628TIP3    H168299   1.816   5.027   2.503 -0.0221 -0.5760  0.4153
15628TIP3    H268300   1.820   5.013   2.352  0.8900  0.2209  0.3584
15629TIP3   OH268301   2.783   5.779  17.016  0.1329  0.0983  0.3346
15629TIP3    H168302   2.754   5.749  16.929 -3.5671 -0.3000  1.5324
15629TIP3    H268303   2.801   5.698  17.064  0.8490  0.2725  0.3692
15630TIP3   OH268304   0.836   3.242  16.611  0.3960 -0.3030  0.1486
15630TIP3    H168305   0.778   3.227  16.536 -0.5771  2.6076  0.1892
15630TIP3    H268306   0.820   3.333  16.636  3.2993 -0.0908  1.6940
15631TIP3   OH268307   5.143   6.178  15.811  0.1395 -0.0431  0.2485
15631TIP3    H168308   5.201   6.104  15.792  2.4687  1.9300 -0.9846
15631TIP3    H268309   5.148   6.233  15.733 -1.2047  1.5818  1.2427
15632TIP3   OH268310   5.771   4.186  15.773  0.2431  0.0256  0.5345
15632TIP3    H168311   5.683   4.153  15.757 -0.5264  0.9037  2.5564
15632TIP3    H268312   5.792   4.240  15.696 -1.6931  1.1444  0.7375
15633TIP3   OH268313   6.397   1.495   1.513  0.3510  0.1112 -0.0063
15633TIP3    H168314   6.399   1.555   1.439 -0.3380 -1.1673 -1.0969
15633TIP3    H268315   6.311   1.509   1.552  1.0433  1.4381  1.1756
15634TIP3   OH268316   6.088   0.028  10.522  0.8892  0.1796 -0.2291
15634TIP3    H168317   6.170   0.004  10.479  2.0951 -0.3196  2.2158
15634TIP3    H268318   6.114   0.071  10.603 -1.2514 -0.4420  0.8772
15635TIP3   OH268319   5.209   3.521   3.863  0.2169  0.5336  0.2767
15635TIP3    H168320   5.156   3.453   3.821  0.5203  0.5133 -0.0821
15635TIP3    H268321   5.187   3.514   3.956  0.9288 -0.6904  0.3853
15636TIP3   OH268322   4.700   5.477  15.210  0.3898  0.3541  0.1065
15636TIP3    H168323   4.680   5.570  15.201  0.7076  0.3923 -0.2096
15636TIP3    H268324   4.630   5.433  15.162 -0.2006  0.3931  0.9076
15637TIP3   OH268325   0.282   0.107  13.615  0.1629 -0.3041  0.4506
15637TIP3    H168326   0.216   0.064  13.670 -0.2486 -0.6298 -0.2918
15637TIP3    H268327   0.329   0.036  13.573 -2.3506 -0.1810 -3.0147
15638TIP3   OH268328   6.699   5.397  16.457  0.2720  0.2809  0.3793
15638TIP3    H168329   6.758   5.328  16.488  0.6198 -0.0152 -0.9033
15638TIP3    H268330   6.750   5.445  16.392 -0.7572  0.2946 -0.4327
15639TIP3   OH268331   2.892   6.536   0.606 -0.2013 -0.1453 -0.3814
15639TIP3    H168332   2.986   6.520   0.610 -0.1639  0.1995  0.5374
15639TIP3    H268333   2.859   6.502   0.689 -1.2173 -2.1869 -1.5708
15640TIP3   OH268334   3.950   1.839  12.962 -0.3800 -0.3420  0.0243
15640TIP3    H168335   3.930   1.791  12.882  0.0173 -2.7433  1.2921
15640TIP3    H268336   4.008   1.782  13.012 -0.4958  1.1266  1.9908
15641TIP3   OH268337   4.262   6.154   4.371  0.1498  0.4932 -0.2535
15641TIP3    H168338   4.353   6.185   4.376  0.9927 -1.3189 -2.4977
15641TIP3    H268339   4.266   6.065   4.407 -0.6710  0.3130 -0.5969
15642TIP3   OH268340   5.872   0.112   3.330  0.8876 -0.2503  0.4680
15642TIP3    H168341   5.785   0.115   3.290  1.0668  1.0448  0.1424
15642TIP3    H268342   5.858   0.135   3.422  0.6842 -1.7082  0.8304
15643TIP3   OH268343   1.989   3.322   0.015 -0.7225  0.2460  0.1342
15643TIP3    H168344   1.999   3.230   0.042 -1.3553 -0.3881 -1.6540
15643TIP3    H268345   2.012   3.372   0.094  0.3544 -1.4104  0.9436
15644TIP3   OH268346   0.405   6.243  12.760  0.0255 -0.3618 -0.1012
15644TIP3    H168347   0.493   6.234  12.796  0.3252 -1.4215 -1.0585
15644TIP3    H268348   0.404   6.184  12.685 -0.9517  0.9356 -1.1351
15645TIP3   OH268349   0.671   5.263   2.191 -0.1520 -0.2652  0.2911
15645TIP3    H168350   0.638   5.282   2.279 -0.4069 -1.5237  0.4792
15645TIP3    H268351   0.592   5.256   2.137 -0.0216  4.1744 -0.9493
15646TIP3   OH268352   3.757   6.381  12.589  0.8098  0.3098  0.0657
15646TIP3    H168353   3.795   6.427  12.665 -0.0966  1.1031  0.0524
15646TIP3    H268354   3.797   6.423  12.513 -1.3098  2.3995 -0.0282
15647TIP3   OH268355   0.398   4.198  16.181 -0.0760 -0.0756  0.0241
15647TIP3    H168356   0.405   4.292  16.168  0.4144 -0.1764 -0.4865
15647TIP3    H268357   0.314   4.175  16.141  0.4243 -0.0478 -1.1001
15648TIP3   OH268358   6.729   1.516   4.140  0.4081  0.1864 -0.5123
15648TIP3    H168359   6.670   1.580   4.100 -0.8801  0.7941  2.1356
15648TIP3    H268360   6.804   1.568   4.169 -0.1366  0.3352  0.6674
15649TIP3   OH268361   2.397   6.386   1.399  0.4372 -0.5357 -0.3893
15649TIP3    H168362   2.323   6.344   1.353  1.5512 -2.9138 -0.1376
15649TIP3    H268363   2.361   6.411   1.484 -0.1125 -1.7828 -0.2204
15650TIP3   OH268364   6.570   3.547  16.833 -0.0860  0.0975 -0.0407
15650TIP3    H168365   6.512   3.613  16.871  1.6783  2.5013 -1.2986
15650TIP3    H268366   6.522   3.515  16.757 -0.2836  1.2019 -0.4014
15651TIP3   OH268367   6.160   5.339   1.923  0.0397 -0.5856 -0.0299
15651TIP3    H168368   6.165   5.340   2.019 -0.1353  0.4379 -0.0192
15651TIP3    H268369   6.068   5.320   1.904  0.2351 -1.6022 -0.0158
15652TIP3   OH268370   5.853   5.652   6.126  0.5285 -0.3139 -0.1553
15652TIP3    H168371   5.790   5.720   6.149  1.8717  0.9690 -0.0893
15652TIP3    H268372   5.804   5.570   6.133 -1.1121  0.6277 -0.1261
15653TIP3   OH268373   0.515   4.182   2.079  0.3782 -0.1141  0.1845
15653TIP3    H168374   0.421   4.193   2.069 -0.0666 -4.0168 -1.3757
15653TIP3    H268375   0.553   4.240   2.013 -0.7904  1.7420  1.0346
15654TIP3   OH268376   2.414   3.203   3.811  0.4985 -0.2364  0.8213
15654TIP3    H168377   2.491   3.148   3.823  0.3195 -0.1688  2.4975
15654TIP3    H268378   2.389   3.190   3.720  2.4341 -0.3169  0.2701
15655TIP3   OH268379   1.639   0.284  17.019  0.1534  0.2415  0.1151
15655TIP3    H168380   1.646   0.221  16.947 -1.4254  0.6036 -0.3869
15655TIP3    H268381   1.707   0.349  17.000 -1.9753  1.8761 -2.6994
15656TIP3   OH268382   2.186   5.942  10.330  0.5585 -0.7407 -0.0001
15656TIP3    H168383   2.197   6.021  10.382  0.7123 -0.7366 -0.0367
15656TIP3    H268384   2.092   5.926  10.329  0.6512 -1.7030  1.7328
15657TIP3   OH268385   0.218   1.756   4.643 -0.1971 -0.5960 -0.0453
15657TIP3    H168386   0.269   1.762   4.562  0.9056  0.7644  0.7264
15657TIP3    H268387   0.283   1.753   4.713 -1.1288  0.7694  0.9394
15658TIP3   OH268388   5.795   1.964  14.065 -0.2616  0.3441 -0.7883
15658TIP3    H168389   5.728   1.961  13.996 -0.1247 -0.7155 -0.8881
15658TIP3    H268390   5.873   1.999  14.021  0.1375 -1.3246 -1.4632
15659TIP3   OH268391   3.681   0.593  14.199 -0.1741  0.2457  0.2245
15659TIP3    H168392   3.696   0.681  14.164 -0.8690 -0.5550 -2.3350
15659TIP3    H268393   3.642   0.545  14.126  1.2133 -2.5128  1.1538
15660TIP3   OH268394   3.197   5.614  11.706 -0.3819  0.3064  0.8295
15660TIP3    H168395   3.274   5.608  11.650  0.1703 -0.2057  1.6184
15660TIP3    H268396   3.199   5.704  11.739 -0.7914  0.6528 -0.0713
15661TIP3   OH268397   5.707   0.655  11.629  0.3413 -0.2458  0.2112
15661TIP3    H168398   5.775   0.642  11.563  0.5543  0.8881  0.1862
15661TIP3    H268399   5.755   0.679  11.708  0.0018  0.0000  0.3423
15662TIP3   OH268400   0.791   2.153  15.822  0.5941 -0.4451  0.4438
15662TIP3    H168401   0.772   2.083  15.884  1.6573 -0.1344  1.1564
15662TIP3    H268402   0.735   2.225  15.850 -0.7016 -1.0736 -0.4567
15663TIP3   OH268403   3.065   4.962  10.840 -0.3804  0.0620  0.1376
15663TIP3    H168404   3.128   5.034  10.837 -0.2745 -0.0429 -0.2987
15663TIP3    H268405   2.980   5.004  10.829 -0.3390  0.1504  0.1570
15664TIP3   OH268406   2.198   0.732  11.621 -0.2178  0.3441 -0.4988
15664TIP3    H168407   2.247   0.811  11.643 -0.0755  0.4480 -1.1674
15664TIP3    H268408   2.225   0.668  11.687  1.3739  0.1912 -1.2370
15665TIP3   OH268409   5.680   5.457  14.863 -0.4521 -0.3996  0.1546
15665TIP3    H168410   5.640   5.434  14.946  0.5443 -1.9624  0.2298
15665TIP3    H268411   5.761   5.503  14.886  0.0126 -1.1623  0.0649
15666TIP3   OH268412   0.217   4.344  12.662  0.1077  0.7198 -0.0970
15666TIP3    H168413   0.140   4.392  12.693  1.0701  3.4178 -1.5011
15666TIP3    H268414   0.283   4.361  12.729 -0.5797 -2.1968  1.4832
15667TIP3   OH268415   5.131   3.972  12.211  0.1519 -0.2639 -0.1218
15667TIP3    H168416   5.096   4.057  12.237  0.2301  0.3983 -2.0470
15667TIP3    H268417   5.210   3.992  12.161  0.9694 -1.5546  0.6107
15668TIP3   OH268418   4.153   3.119   0.570 -0.3625 -0.6109  0.7942
15668TIP3    H168419   4.136   3.088   0.659  0.8054 -1.8597  0.6311
15668TIP3    H268420   4.232   3.174   0.578 -1.5432  1.1486  0.8404
15669TIP3   OH268421   0.060   1.809   0.899 -0.1505  0.5587 -0.3062
15669TIP3    H168422  -0.012   1.745   0.899 -1.0855  1.5529  1.5869
15669TIP3    H268423   0.071   1.833   0.991  1.1491  2.0837 -0.8228
15670TIP3   OH268424   5.701   6.204   3.319  0.2515  0.1917  0.9773
15670TIP3    H168425   5.753   6.152   3.258 -3.8268 -1.8428 -1.1463
15670TIP3    H268426   5.703   6.292   3.283 -0.3190 -0.5359 -0.9782
15671TIP3   OH268427   2.980   6.325   0.213 -0.4283  0.3180  0.2110
15671TIP3    H168428   3.050   6.390   0.218 -0.9691  0.8409  1.3815
15671TIP3    H268429   3.025   6.241   0.226  0.3639  0.3504 -1.9266
15672TIP3   OH268430   2.805   4.387   4.031 -0.1849 -0.0351  0.1513
15672TIP3    H168431   2.749   4.365   4.106  0.8253  0.0760  0.9656
15672TIP3    H268432   2.891   4.400   4.069  0.7951 -1.8618 -1.2613
15673TIP3   OH268433   6.718   3.349  15.894  0.1751 -0.5691  0.6362
15673TIP3    H168434   6.696   3.292  15.967 -0.5801 -2.3440 -0.9019
15673TIP3    H268435   6.644   3.342  15.834  1.1073  0.1934 -0.6703
15674TIP3   OH268436   3.144   2.245   0.182 -0.8374 -0.4471 -0.2599
15674TIP3    H168437   3.083   2.248   0.255 -2.0067 -0.1736 -1.2155
15674TIP3    H268438   3.148   2.153   0.157 -1.5554 -0.3593 -0.7388
15675TIP3   OH268439   4.633   6.436  12.541 -0.0552 -0.0445 -0.6928
15675TIP3    H168440   4.586   6.367  12.588 -1.9976  0.1987 -2.1701
15675TIP3    H268441   4.681   6.483  12.609 -0.8003 -1.2061  0.6936
15676TIP3   OH268442   2.848   1.910  16.185  0.1463  0.0269  0.3791
15676TIP3    H168443   2.931   1.864  16.168  0.8964  0.0540  3.3202
15676TIP3    H268444   2.781   1.844  16.169  0.7553 -0.2559 -1.2279
15677TIP3   OH268445   4.426   4.271  16.496 -0.6703  0.5576 -0.7284
15677TIP3    H168446   4.460   4.277  16.585 -2.4087 -1.2144  0.1423
15677TIP3    H268447   4.470   4.342  16.449  4.7729 -1.8175 -0.0224
15678TIP3   OH268448   0.984   4.531   3.893 -0.0343  0.3873 -0.0550
15678TIP3    H168449   0.994   4.489   3.978 -0.2906  1.9808  0.8057
15678TIP3    H268450   1.072   4.561   3.871  0.4879 -1.9431 -1.4612
15679TIP3   OH268451   0.338   1.241  11.641  0.1419 -0.2984 -0.2472
15679TIP3    H168452   0.400   1.308  11.612 -0.1055  0.5472  1.0649
15679TIP3    H268453   0.302   1.204  11.560  1.9525 -0.4492 -1.0152
15680TIP3   OH268454   1.098   0.945  15.734 -0.0771 -0.5926  0.3125
15680TIP3    H168455   1.076   0.966  15.824  1.1429  1.7091  0.1589
15680TIP3    H268456   1.042   1.002  15.681  0.7064 -0.3531 -0.2852
15681TIP3   OH268457   0.264   0.615   1.120 -0.1107  0.1961  0.1814
15681TIP3    H168458   0.226   0.565   1.193 -0.2041  0.6463  0.4443
15681TIP3    H268459   0.256   0.556   1.045  0.7889 -0.6147  0.7029
15682TIP3   OH268460   2.187   5.880   0.871  1.1061  0.3312 -0.0400
15682TIP3    H168461   2.142   5.958   0.903  0.6895 -0.1946  0.6883
15682TIP3    H268462   2.203   5.898   0.779  0.3220  0.9528 -0.0661
15683TIP3   OH268463   4.067   0.733   5.230 -0.0842 -0.1379  0.1523
15683TIP3    H168464   4.039   0.822   5.254  0.7304  0.0843  0.3097
15683TIP3    H268465   4.058   0.731   5.134 -0.4271 -0.0051  0.1790
15684TIP3   OH268466   5.394   5.978  15.766  0.0903 -0.3192 -0.2206
15684TIP3    H168467   5.487   5.958  15.752  1.1191  2.3974  1.9282
15684TIP3    H268468   5.378   5.954  15.857 -1.6653 -1.6912 -0.8444
15685TIP3   OH268469   3.485   2.459   1.487  0.5085  0.1085  0.1007
15685TIP3    H168470   3.420   2.528   1.475  0.4503  0.2422  1.0549
15685TIP3    H268471   3.558   2.485   1.431 -0.4951 -0.3854 -1.4960
15686TIP3   OH268472   0.612   2.093   5.300  0.0038 -0.1701  0.2747
15686TIP3    H168473   0.620   1.998   5.310 -1.4809 -0.1877  1.8003
15686TIP3    H268474   0.577   2.105   5.212 -0.1314 -1.0597  0.1953
15687TIP3   OH268475   6.714   1.664   1.350 -0.0867  0.6672  0.5313
15687TIP3    H168476   6.697   1.618   1.433 -0.2401  0.9545  0.6649
15687TIP3    H268477   6.627   1.673   1.310  0.3047 -2.5758 -1.3845
15688TIP3   OH268478   0.992   6.097   3.988 -0.6925 -0.2595  0.0805
15688TIP3    H168479   1.014   6.018   3.940  0.7721  0.7282 -0.9459
15688TIP3    H268480   0.961   6.158   3.921 -0.3722  0.5314  0.6377
15689TIP3   OH268481   6.455   4.617  14.383  0.4686  0.2969 -0.2880
15689TIP3    H168482   6.461   4.607  14.288 -1.4978 -0.7062 -0.3729
15689TIP3    H268483   6.482   4.707  14.401  2.9293 -0.1226 -1.5249
15690TIP3   OH268484   0.650   1.863  10.303 -0.5474 -0.4347 -0.4644
15690TIP3    H168485   0.709   1.801  10.345 -0.4188  0.3564  0.5499
15690TIP3    H268486   0.684   1.949  10.326 -1.8323  0.0359 -0.2175
15691TIP3   OH268487   3.872   4.399   4.286  0.1491  0.3656  0.0588
15691TIP3    H168488   3.876   4.412   4.191  1.3300  2.5673  0.3518
15691TIP3    H268489   3.831   4.478   4.319 -0.2090 -0.3631  1.4227
15692TIP3   OH268490   4.487   1.433  11.778  0.0094 -0.0257 -0.6321
15692TIP3    H168491   4.531   1.360  11.822  0.2437  1.3337  1.5400
15692TIP3    H268492   4.558   1.488  11.745 -0.0161  0.9208  0.7614
15693TIP3   OH268493   0.050   3.150   3.731  0.6283 -0.4540  0.7750
15693TIP3    H168494   0.072   3.102   3.651  0.0150  1.2344 -0.4506
15693TIP3    H268495   0.019   3.082   3.791  0.4123 -1.6834 -0.6609
15694TIP3   OH268496   1.967   2.003  16.597 -0.1197 -0.4195 -0.2327
15694TIP3    H168497   2.023   1.991  16.674  0.0867  0.6933 -0.1879
15694TIP3    H268498   2.019   1.971  16.524  0.1521 -0.3909 -0.0526
15695TIP3   OH268499   1.985   5.665  10.996  0.5303  0.0191 -0.1595
15695TIP3    H168500   1.956   5.666  10.905 -0.5305  1.5219  0.1648
15695TIP3    H268501   1.982   5.756  11.024  1.8171 -0.2846  1.1029
15696TIP3   OH268502   3.274   5.769  14.489  0.6435  0.0585  0.2038
15696TIP3    H168503   3.229   5.837  14.441  1.6629  1.7769  1.5597
15696TIP3    H268504   3.233   5.769  14.576  0.0481 -1.7302 -0.0233
15697TIP3   OH268505   5.862   1.873   4.391 -0.3080 -0.0730  0.0192
15697TIP3    H168506   5.781   1.853   4.436 -0.4627  0.8640  0.1792
15697TIP3    H268507   5.891   1.957   4.428  1.9448 -1.4468  1.6448
15698TIP3   OH268508   6.012   1.827  16.700 -0.1951  0.2254  0.2341
15698TIP3    H168509   5.949   1.759  16.677 -0.6659  0.8769 -0.4848
15698TIP3    H268510   5.959   1.895  16.741  0.1254  0.5333  0.1397
15699TIP3   OH268511   0.208   3.089  11.584  0.1395  0.1516  0.1467
15699TIP3    H168512   0.220   3.163  11.524 -2.0841  0.0244 -0.5328
15699TIP3    H268513   0.124   3.107  11.627 -0.2225 -1.7425  0.2927
15700TIP3   OH268514   3.671   5.252  14.034 -0.3737  0.5639  0.8404
15700TIP3    H168515   3.684   5.157  14.033 -0.4452  0.5560  0.2866
15700TIP3    H268516   3.637   5.273  13.947  0.0528  1.1512  0.8046
15701TIP3   OH268517   2.196   3.774  11.037 -0.2096 -0.1649 -0.6200
15701TIP3    H168518   2.287   3.799  11.025  0.0175 -1.2748 -1.4397
15701TIP3    H268519   2.153   3.799  10.955 -0.4009 -0.6306 -0.6640
15702TIP3   OH268520   5.701   5.032   1.900  0.3466 -0.9446  0.0525
15702TIP3    H168521   5.768   4.967   1.879  1.8184  0.2159  0.9848
15702TIP3    H268522   5.654   4.995   1.975  0.9756 -1.0653  0.3886
15703TIP3   OH268523   1.476   3.322   1.419 -0.1430 -0.0631 -0.3858
15703TIP3    H168524   1.395   3.279   1.447  1.5085 -0.9878  3.6848
15703TIP3    H268525   1.529   3.251   1.382  0.0186 -0.1506  0.0075
15704TIP3   OH268526   3.582   5.152   2.529 -0.8280 -0.2413  0.6298
15704TIP3    H168527   3.513   5.218   2.520  0.5538  1.0527 -1.3975
15704TIP3    H268528   3.606   5.154   2.621  0.1817  3.2788  0.4227
15705TIP3   OH268529   6.684   5.576   0.432 -0.3072  0.7570  0.5357
15705TIP3    H168530   6.608   5.529   0.467 -1.6350  0.9138 -1.9768
15705TIP3    H268531   6.667   5.668   0.452 -1.5822  0.9652 -1.3160
15706TIP3   OH268532   6.245   5.037  11.580  0.2987 -0.0738 -0.1780
15706TIP3    H168533   6.225   5.110  11.638 -3.2352 -0.7813 -0.2999
15706TIP3    H268534   6.212   5.065  11.494 -0.5417 -1.5342 -0.3634
15707TIP3   OH268535   3.663   0.169   2.674 -0.0447  0.2672  0.1238
15707TIP3    H168536   3.598   0.098   2.670 -0.7656  0.9174  0.0270
15707TIP3    H268537   3.686   0.175   2.767 -0.7876  0.6056  0.2943
15708TIP3   OH268538   3.105   1.552  12.816  0.1048  0.0912  0.1116
15708TIP3    H168539   3.118   1.489  12.887 -0.0321  1.3371  1.2749
15708TIP3    H268540   3.025   1.598  12.839 -0.8551 -0.5656 -1.7086
15709TIP3   OH268541   1.508   6.510  15.433  0.4409  0.5222 -0.4005
15709TIP3    H168542   1.556   6.572  15.488  0.2228  0.2098  0.1566
15709TIP3    H268543   1.419   6.510  15.470 -0.1078  1.3924 -1.6612
15710TIP3   OH268544   1.984   1.205  14.724  0.0049 -0.6972 -0.3926
15710TIP3    H168545   1.946   1.292  14.720  0.0604 -0.6562 -0.0320
15710TIP3    H268546   2.038   1.199  14.645  0.3532 -0.2416 -0.1915
15711TIP3   OH268547   1.340   4.698  13.370  0.1837 -0.8104 -0.6207
15711TIP3    H168548   1.360   4.644  13.446  1.5676  1.4270  0.7323
15711TIP3    H268549   1.259   4.743  13.393  0.5072 -0.2635 -0.5421
15712TIP3   OH268550   1.823   1.700  11.438  0.0101  0.0632 -0.4844
15712TIP3    H168551   1.866   1.623  11.475 -1.1650 -1.3997 -2.0744
15712TIP3    H268552   1.893   1.746  11.390  0.3931 -0.8290 -0.7965
15713TIP3   OH268553   5.131   2.125   5.137 -0.1097 -0.0436  0.1675
15713TIP3    H168554   5.117   2.030   5.125 -0.0422 -0.0554  0.1845
15713TIP3    H268555   5.150   2.135   5.230  1.7197 -0.2408 -0.1468
15714TIP3   OH268556   4.333   4.348  16.858  0.4621  0.0351 -0.9262
15714TIP3    H168557   4.339   4.289  16.933  1.2001  0.9857 -0.2107
15714TIP3    H268558   4.404   4.319  16.800 -0.3142 -0.9097 -1.4411
15715TIP3   OH268559   3.188   0.808  15.670  0.0103 -0.8793 -0.0739
15715TIP3    H168560   3.135   0.848  15.739  1.4372 -0.4233  0.7979
15715TIP3    H268561   3.278   0.835  15.690  0.2721  1.3318 -3.4832
15716TIP3   OH268562   1.201   4.037  13.844 -0.0913 -0.0939 -0.2917
15716TIP3    H168563   1.151   4.010  13.767  0.2058 -0.0528 -0.5016
15716TIP3    H268564   1.289   4.000  13.830  0.9443  2.5971 -1.5745
15717TIP3   OH268565   0.113   1.658  17.105  0.3150 -0.3053  0.6419
15717TIP3    H168566   0.196   1.638  17.063 -0.8932 -1.4643 -1.3519
15717TIP3    H268567   0.085   1.575  17.144 -1.3380 -0.8194 -1.4556
15718TIP3   OH268568   6.342   4.360  14.084 -0.3602  0.6967  0.6981
15718TIP3    H168569   6.329   4.356  13.989 -2.3987  2.2673  0.8287
15718TIP3    H268570   6.269   4.309  14.120  1.3650 -1.3913  1.4827
15719TIP3   OH268571   3.067   4.105  12.492  0.1902  0.4340  0.1359
15719TIP3    H168572   3.077   4.177  12.555  1.0009  0.2384  0.2338
15719TIP3    H268573   3.149   4.103  12.444 -0.1563  0.1245 -0.4629
15720TIP3   OH268574   2.668   4.180   4.279 -0.0114  0.0637 -0.3062
15720TIP3    H168575   2.643   4.268   4.307 -2.2055 -0.3420 -0.7756
15720TIP3    H268576   2.609   4.162   4.205 -0.4088 -2.2161  0.5116
15721TIP3   OH268577   2.115   0.598  16.063  0.8491  0.3916 -0.2886
15721TIP3    H168578   2.024   0.578  16.040  1.1419 -1.0626 -0.2836
15721TIP3    H268579   2.111   0.628  16.153  0.4744 -0.7711  0.1027
15722TIP3   OH268580   5.962   6.792  17.107  0.2068  0.0883  0.0645
15722TIP3    H168581   5.872   6.767  17.128  0.2872  0.8387  1.4584
15722TIP3    H268582   5.994   6.835  17.187  1.3106  1.1528 -0.9128
15723TIP3   OH268583   2.862   5.607  13.540  0.0581  0.3201  0.0306
15723TIP3    H168584   2.929   5.637  13.601 -0.0856  0.2403  0.2268
15723TIP3    H268585   2.855   5.513  13.554 -1.4899  0.5918  1.4192
15724TIP3   OH268586   1.290   2.728  12.585 -0.2788  0.0920  0.1747
15724TIP3    H168587   1.359   2.663  12.569  0.5117  1.1448 -0.9486
15724TIP3    H268588   1.253   2.703  12.669  3.6105  1.2313  2.5066
15725TIP3   OH268589   2.626   1.611   3.346 -0.6024  0.3144  0.7358
15725TIP3    H168590   2.534   1.613   3.370 -0.2650  0.8539  2.0851
15725TIP3    H268591   2.630   1.552   3.271 -2.2693  1.5954 -0.4515
15726TIP3   OH268592   0.128   4.719   0.967  0.1125  0.5950  0.4005
15726TIP3    H168593   0.106   4.774   1.042  2.4004  0.7001  1.0575
15726TIP3    H268594   0.136   4.780   0.894  0.3067  0.8384  0.6207
15727TIP3   OH268595   0.228   3.506   2.945 -0.1010 -0.5145 -0.4969
15727TIP3    H168596   0.144   3.543   2.919  0.2869  0.9944  0.2584
15727TIP3    H268597   0.293   3.555   2.894  0.5783  1.5562  2.0933
15728TIP3   OH268598   6.132   2.761  11.439 -0.1209  0.4083  0.0975
15728TIP3    H168599   6.207   2.809  11.474 -0.6856  0.2661  1.5703
15728TIP3    H268600   6.073   2.828  11.405  0.1724  0.5864 -0.0651
15729TIP3   OH268601   2.792   2.049  14.208 -0.1176 -0.1532  0.1132
15729TIP3    H168602   2.879   2.013  14.191 -0.2524 -0.9464  1.0163
15729TIP3    H268603   2.734   1.972  14.210 -0.8389  0.3568 -0.3982
15730TIP3   OH268604   3.461   0.435  14.580 -0.1702 -0.4642  0.5045
15730TIP3    H168605   3.494   0.388  14.503 -0.2719 -1.9391  1.3313
15730TIP3    H268606   3.519   0.511  14.588  2.1580 -2.1992  1.0626
15731TIP3   OH268607   3.198   1.842   3.108  0.3502  0.6341 -0.5168
15731TIP3    H168608   3.151   1.762   3.132  0.4034  1.4471  2.7647
15731TIP3    H268609   3.133   1.911   3.118  0.7054  1.2149 -1.9278
15732TIP3   OH268610   3.311   6.652   2.409 -0.0870  0.5225 -0.0834
15732TIP3    H168611   3.261   6.699   2.341  0.0487 -1.7439 -1.8679
15732TIP3    H268612   3.398   6.690   2.405  0.3150 -0.4876 -2.2400
15733TIP3   OH268613   1.738   2.853   4.500  0.3089 -0.1718 -0.6227
15733TIP3    H168614   1.752   2.759   4.508  0.6463 -0.1367 -0.8022
15733TIP3    H268615   1.647   2.866   4.525  0.3151 -0.5234 -0.4159
15734TIP3   OH268616   1.517   0.387   5.538 -0.2524  0.0234 -0.2960
15734TIP3    H168617   1.581   0.376   5.609 -0.9566 -1.2593  0.1902
15734TIP3    H268618   1.482   0.299   5.525  0.2465  0.1153 -2.6444
15735TIP3   OH268619   2.456   1.040  14.246 -0.1572 -0.3835 -0.1271
15735TIP3    H168620   2.534   1.018  14.195  1.1350  1.0825  1.0835
15735TIP3    H268621   2.425   0.956  14.280  1.3294 -0.9529 -0.0880
15736TIP3   OH268622   4.603   2.957   4.855 -0.0650 -0.6420  0.0118
15736TIP3    H168623   4.507   2.959   4.865 -0.1354 -0.7651 -0.6104
15736TIP3    H268624   4.626   2.864   4.858  0.0742 -0.5949  0.4800
15737TIP3   OH268625   5.655   4.556  11.982 -0.2832  0.0829 -0.6785
15737TIP3    H168626   5.595   4.630  11.994  0.9623  1.2445 -1.2515
15737TIP3    H268627   5.624   4.512  11.903 -1.1547 -0.1432 -0.2250
15738TIP3   OH268628   6.652   1.048  13.494  0.5698 -0.0164  0.2147
15738TIP3    H168629   6.738   1.015  13.470 -0.1924 -1.2579 -1.0164
15738TIP3    H268630   6.627   0.997  13.571  0.2266 -0.9636 -0.4961
15739TIP3   OH268631   2.369   3.789   1.867  0.3344  0.3336  0.1917
15739TIP3    H168632   2.346   3.869   1.913  0.6994 -0.6637  2.2439
15739TIP3    H268633   2.459   3.803   1.837 -0.0447  1.1432 -0.6072
15740TIP3   OH268634   4.333   3.199  17.096  0.6483 -0.1787  0.6818
15740TIP3    H168635   4.261   3.147  17.061  2.0148 -0.3176 -2.2220
15740TIP3    H268636   4.396   3.135  17.129  0.4930 -0.1566  1.0273
15741TIP3   OH268637   4.733   6.773   4.966 -0.2135 -0.1093  0.2595
15741TIP3    H168638   4.666   6.803   5.028  0.6287 -0.3404  1.3121
15741TIP3    H268639   4.691   6.700   4.920 -1.2093  0.7192 -0.1858
15742TIP3   OH268640   4.156   5.098   0.579  0.4310  0.0120 -0.6151
15742TIP3    H168641   4.118   5.011   0.592 -1.5276  0.9900  0.6839
15742TIP3    H268642   4.082   5.153   0.556  1.1192  1.8996  1.3800
15743TIP3   OH268643   2.641   3.536  11.833 -0.0329 -0.2062  0.2701
15743TIP3    H168644   2.585   3.462  11.859 -0.5299  0.1660  0.2672
15743TIP3    H268645   2.727   3.513  11.867 -0.0998 -0.9685 -0.0490
15744TIP3   OH268646   3.891   2.878  11.905 -0.5682  0.4032 -0.8309
15744TIP3    H168647   3.901   2.790  11.868 -2.7623 -0.6418  0.7702
15744TIP3    H268648   3.956   2.882  11.975 -0.8857 -0.2470 -0.4819
15745TIP3   OH268649   2.949   1.854  12.869  0.0274  0.0194 -0.0288
15745TIP3    H168650   2.889   1.898  12.930 -0.6947 -1.2394  0.2138
15745TIP3    H268651   3.032   1.848  12.917  0.1539  1.0978 -0.0770
15746TIP3   OH268652   1.756   4.379   1.270 -0.1948  0.8230  0.4436
15746TIP3    H168653   1.845   4.346   1.253 -1.3000 -0.9308 -2.9494
15746TIP3    H268654   1.708   4.303   1.302 -0.6488  1.6235  1.7300
15747TIP3   OH268655   0.669   3.016   2.040  0.2576  0.0586  0.5482
15747TIP3    H168656   0.623   3.098   2.021 -0.2513 -0.2261  0.5571
15747TIP3    H268657   0.606   2.963   2.088  0.6782 -0.2361  0.7842
15748TIP3   OH268658   2.843   2.975   6.386 -0.7102 -0.8044 -0.3072
15748TIP3    H168659   2.893   3.053   6.411 -0.3110 -0.9673 -0.5917
15748TIP3    H268660   2.909   2.908   6.368 -1.0459 -1.2011 -0.1059
15749TIP3   OH268661   2.003   4.885   3.326  0.0984  0.3745 -0.2438
15749TIP3    H168662   2.021   4.857   3.415 -2.1588  0.8380  0.4078
15749TIP3    H268663   1.963   4.809   3.284  0.5548  0.3640 -0.6687
15750TIP3   OH268664   2.329   4.380   4.869 -0.2508 -0.5382 -0.4388
15750TIP3    H168665   2.267   4.441   4.830  0.9179  0.4793 -0.7566
15750TIP3    H268666   2.411   4.429   4.875  0.1378 -1.3303  1.4356
15751TIP3   OH268667   5.729   4.755   6.584 -0.1597 -0.4262 -0.1095
15751TIP3    H168668   5.797   4.699   6.620  0.1570  0.4827  0.7785
15751TIP3    H268669   5.673   4.776   6.659  1.1004  2.3554  0.2109
15752TIP3   OH268670   0.598   0.229   2.441 -0.3058 -0.6521  0.2289
15752TIP3    H168671   0.582   0.298   2.506  0.3237 -0.5264  0.2579
15752TIP3    H268672   0.564   0.264   2.359 -1.2727 -0.8841  0.5136
15753TIP3   OH268673   5.546   2.953  13.215 -0.0555 -0.2251  0.2124
15753TIP3    H168674   5.549   3.000  13.299 -1.1928  0.4899 -0.1195
15753TIP3    H268675   5.637   2.940  13.191  0.2813  1.1113  0.7184
15754TIP3   OH268676   3.096   6.334   2.697 -0.3080  0.0217  0.3289
15754TIP3    H168677   3.154   6.266   2.733  0.4930 -0.5633 -1.9258
15754TIP3    H268678   3.113   6.411   2.751  2.6761 -0.1227 -0.2553
15755TIP3   OH268679   3.595   3.109  14.979  0.0702  0.1807  0.0021
15755TIP3    H168680   3.649   3.166  14.924  0.6942 -0.1156  0.2982
15755TIP3    H268681   3.629   3.021  14.962 -0.8365 -0.1096 -0.4009
15756TIP3   OH268682   6.022   4.423   0.842  0.4095 -0.3379 -0.2840
15756TIP3    H168683   6.015   4.341   0.793  0.3035  0.1808 -1.1749
15756TIP3    H268684   5.963   4.483   0.796  1.4180  0.5883 -0.4206
15757TIP3   OH268685   2.157   1.744   4.700 -0.4011  0.9875  0.0081
15757TIP3    H168686   2.152   1.834   4.733 -0.1683  1.4380 -1.1316
15757TIP3    H268687   2.067   1.724   4.672 -0.0667  1.6798 -1.7192
15758TIP3   OH268688   6.301   2.822  16.361 -0.3221  0.3876  0.9182
15758TIP3    H168689   6.269   2.808  16.451 -0.9799 -1.3997  0.4412
15758TIP3    H268690   6.251   2.761  16.308  1.3399  0.1281 -0.4221
15759TIP3   OH268691   5.852   5.828   0.580  0.4914  0.6258  0.5450
15759TIP3    H168692   5.783   5.807   0.643  1.2866  0.7824  1.4827
15759TIP3    H268693   5.843   5.922   0.566  0.5650  0.6601  0.7252
15760TIP3   OH268694   0.162   4.654  13.138  0.6335 -0.8908  0.5809
15760TIP3    H168695   0.153   4.726  13.200  0.4241  0.3668 -0.8329
15760TIP3    H268696   0.210   4.586  13.185  1.2673  0.3694  1.8020
15761TIP3   OH268697   3.437   2.219   0.412 -0.1387  0.6334 -0.0607
15761TIP3    H168698   3.403   2.307   0.397  0.0413  0.7005 -0.0838
15761TIP3    H268699   3.497   2.203   0.339  3.2173  2.2122  2.0584
15762TIP3   OH268700   4.760   2.471   3.878 -0.6175  0.3834  0.1312
15762TIP3    H168701   4.723   2.559   3.874  1.5891  1.3010 -1.8606
15762TIP3    H268702   4.697   2.416   3.831 -2.6068  0.5617  2.3969
15763TIP3   OH268703   2.103   6.222   1.729 -0.5815 -0.0906  0.6948
15763TIP3    H168704   2.017   6.221   1.687  0.7024  1.1484 -2.2074
15763TIP3    H268705   2.136   6.310   1.714  1.7046 -0.9020  0.5963
15764TIP3   OH268706   4.508   1.863  15.675  0.5558  0.5336 -0.0524
15764TIP3    H168707   4.539   1.781  15.714 -0.5333  0.5201  0.8270
15764TIP3    H268708   4.451   1.836  15.603  2.6064  0.5583 -1.7951
15765TIP3   OH268709   2.370   0.825  12.685 -0.7752  0.1890 -0.3463
15765TIP3    H168710   2.327   0.909  12.672  1.5325  1.5512  0.2509
15765TIP3    H268711   2.339   0.795  12.770 -1.4806  0.5087 -0.4828
15766TIP3   OH268712   3.702   4.280   3.157 -0.3679 -0.1908  0.6252
15766TIP3    H168713   3.680   4.260   3.248 -1.1752 -0.2025  0.4280
15766TIP3    H268714   3.640   4.347   3.130 -0.2913 -0.3555  0.0094
15767TIP3   OH268715   5.054   2.259   1.499  0.2582  0.2750 -0.1050
15767TIP3    H168716   4.993   2.331   1.486  1.0793  1.1071  0.5073
15767TIP3    H268717   5.012   2.204   1.565  0.7020  1.5440  1.3145
15768TIP3   OH268718   1.762   6.566   5.353 -0.4652  0.2522 -0.3571
15768TIP3    H168719   1.851   6.553   5.387 -0.7079 -0.5033  0.0319
15768TIP3    H268720   1.750   6.661   5.352  1.0252  0.4714 -2.2409
15769TIP3   OH268721   6.446   1.493   0.716  0.6474  0.4444  0.1110
15769TIP3    H168722   6.451   1.588   0.708 -1.0083  0.5728  0.3873
15769TIP3    H268723   6.420   1.478   0.807 -0.6620 -0.1930 -0.3469
15770TIP3   OH268724   3.199   6.576   0.697  0.3567  0.2889 -0.3891
15770TIP3    H168725   3.287   6.547   0.674  0.5309  0.9142 -0.5371
15770TIP3    H268726   3.187   6.548   0.787  1.2249  1.3629  0.0841
15771TIP3   OH268727   3.710   4.164   4.281  0.2640 -0.5496  0.1685
15771TIP3    H168728   3.626   4.209   4.278  0.0054 -1.0392 -0.0522
15771TIP3    H268729   3.775   4.235   4.285 -0.0622 -0.1073 -1.5248
15772TIP3   OH268730   4.897   2.567   0.360  0.3583  0.5691 -0.2101
15772TIP3    H168731   4.893   2.486   0.411 -1.2428  0.7964  0.0935
15772TIP3    H268732   4.990   2.589   0.355  0.7133 -0.6489  0.7103
15773TIP3   OH268733   2.602   6.012   0.235 -0.0262  0.2093  0.4185
15773TIP3    H168734   2.692   5.987   0.213 -0.4962 -0.7465 -0.5077
15773TIP3    H268735   2.604   6.108   0.238  1.2033  0.1928  1.2774
15774TIP3   OH268736   6.437   5.767  13.155  0.3142  0.0090 -0.1345
15774TIP3    H168737   6.429   5.857  13.124 -0.2600  0.1002  0.2529
15774TIP3    H268738   6.412   5.713  13.081 -1.2787  0.2293  0.2076
15775TIP3   OH268739   0.394   3.653   2.811 -0.0235  0.4217  0.2632
15775TIP3    H168740   0.384   3.638   2.717 -0.3554 -0.9373  0.4926
15775TIP3    H268741   0.394   3.749   2.821 -1.2163  0.5784 -0.9904
15776TIP3   OH268742   0.517   4.110   3.248  0.0985 -0.1644  0.2870
15776TIP3    H168743   0.493   4.203   3.248  2.9683  0.6930  2.4481
15776TIP3    H268744   0.438   4.065   3.279 -1.7660  1.2905 -1.9524
15777TIP3   OH268745   1.057   4.772  14.086 -0.2907 -0.1724 -0.0608
15777TIP3    H168746   1.113   4.760  14.010  0.5999  0.8227  0.4165
15777TIP3    H268747   0.992   4.702  14.079  0.9056 -1.2644 -0.7051
15778TIP3   OH268748   0.882   5.275  15.584  0.4356  0.5164 -0.2430
15778TIP3    H168749   0.905   5.368  15.595  1.5706  0.1563  0.5986
15778TIP3    H268750   0.966   5.230  15.577 -0.0839 -0.2739 -2.5782
15779TIP3   OH268751   1.508   1.938  12.655 -0.0182  0.4280  0.2371
15779TIP3    H168752   1.598   1.953  12.627 -0.1329 -0.3107 -0.5868
15779TIP3    H268753   1.515   1.874  12.725  0.0914  0.1882  0.0108
15780TIP3   OH268754   5.555   0.210   0.310 -0.3700 -0.0816 -0.0801
15780TIP3    H168755   5.577   0.119   0.328  1.4129  0.0814 -1.1880
15780TIP3    H268756   5.470   0.206   0.266  0.3674 -1.3735 -1.4769
15781TIP3   OH268757   2.239   2.309   4.661  0.1034  0.1108  0.3452
15781TIP3    H168758   2.151   2.271   4.668  0.5510 -1.2475 -1.0558
15781TIP3    H268759   2.276   2.299   4.749 -0.3461 -1.3121  0.3978
15782TIP3   OH268760   6.285   2.326  16.916  0.5003 -0.3900 -0.6469
15782TIP3    H168761   6.325   2.365  16.838  1.8961  0.7280  0.5599
15782TIP3    H268762   6.245   2.400  16.961  0.5895 -0.8423  0.1874
15783TIP3   OH268763   4.550   0.602   4.362  0.4248  0.0418 -0.1695
15783TIP3    H168764   4.595   0.682   4.336  0.1438 -0.1318 -1.2502
15783TIP3    H268765   4.458   0.628   4.372 -0.2325 -0.6109 -3.2502
15784TIP3   OH268766   2.072   3.603   2.389 -0.2548 -0.1965 -0.2391
15784TIP3    H168767   2.120   3.588   2.470 -0.1165  1.1971 -0.0317
15784TIP3    H268768   2.001   3.539   2.391 -0.2702 -0.1672  1.0105
15785TIP3   OH268769   3.694   0.119  15.438  0.2189  0.4291 -0.1399
15785TIP3    H168770   3.704   0.037  15.486 -1.3192 -0.1751 -0.8089
15785TIP3    H268771   3.612   0.156  15.470  0.6886  1.5165 -0.1446
15786TIP3   OH268772   4.210   4.593   2.655  0.0503 -0.2785  0.1578
15786TIP3    H168773   4.264   4.615   2.579 -1.5202  0.6376 -0.7469
15786TIP3    H268774   4.224   4.665   2.716  0.5103 -0.4923  0.3121
15787TIP3   OH268775   5.648   0.607   0.504 -0.5282  0.1552 -0.2299
15787TIP3    H168776   5.703   0.677   0.468  1.3605 -1.5082 -0.7071
15787TIP3    H268777   5.621   0.556   0.428 -2.3004  0.5612  0.0637
15788TIP3   OH268778   3.007   2.515   3.975  0.7644 -0.3451  0.1353
15788TIP3    H168779   3.001   2.574   4.050  0.6307  0.1862 -0.2896
15788TIP3    H268780   2.927   2.532   3.924  0.9454 -0.5618 -0.2290
15789TIP3   OH268781   5.010   0.236   6.483  0.5768  0.0432  0.0359
15789TIP3    H168782   5.092   0.189   6.467 -0.2537 -0.8483 -1.8347
15789TIP3    H268783   5.029   0.327   6.460  1.2216 -0.0302  0.2677
15790TIP3   OH268784   5.845   4.527  13.175 -0.6327 -0.1626  0.2040
15790TIP3    H168785   5.755   4.550  13.196 -0.5999  0.4669 -0.3199
15790TIP3    H268786   5.838   4.455  13.113 -0.8174  0.9274 -1.0731
15791TIP3   OH268787   6.022   1.185   1.847 -0.4356  0.3460  0.1883
15791TIP3    H168788   6.054   1.224   1.766  2.9242 -1.1774  0.6091
15791TIP3    H268789   5.957   1.121   1.818  0.3629  0.1615 -1.3074
15792TIP3   OH268790   6.760   5.907   4.036 -0.4922  0.5447  0.1440
15792TIP3    H168791   6.749   5.925   3.942 -0.7552 -0.0160  0.0583
15792TIP3    H268792   6.853   5.891   4.047 -0.4982  0.3525 -0.0743
15793TIP3   OH268793   4.520   3.247   2.535 -0.7165  0.5617 -0.5233
15793TIP3    H168794   4.593   3.291   2.490 -2.2087  1.7239 -1.9432
15793TIP3    H268795   4.520   3.284   2.623  1.4304 -0.7412  0.1110
15794TIP3   OH268796   6.179   4.090   3.893  0.1776  0.3693  0.5842
15794TIP3    H168797   6.190   4.131   3.979 -2.8171 -0.0470  1.2672
15794TIP3    H268798   6.097   4.041   3.899  0.4460 -0.6326 -2.1699
15795TIP3   OH268799   4.165   3.494  15.957 -0.5197  0.2792 -0.2994
15795TIP3    H168800   4.077   3.457  15.961 -0.9557  1.3147  0.0299
15795TIP3    H268801   4.177   3.538  16.042  0.4671 -0.1868 -0.1818
15796TIP3   OH268802   3.838   2.884  14.173  0.0115 -0.6003  0.1842
15796TIP3    H168803   3.860   2.977  14.167 -0.5242 -0.4674  0.1955
15796TIP3    H268804   3.786   2.877  14.253 -0.8649 -0.7148 -0.3835
15797TIP3   OH268805   1.008   5.278  16.010  0.5240  1.1432  0.0116
15797TIP3    H168806   0.979   5.356  15.962 -2.4330  2.1450  3.0120
15797TIP3    H268807   0.937   5.215  15.999  1.3531  0.1309  0.3030
15798TIP3   OH268808   2.079   3.647   3.726 -0.3461  0.5586 -0.1012
15798TIP3    H168809   1.983   3.653   3.728 -0.4254 -0.4285 -0.2468
15798TIP3    H268810   2.097   3.574   3.666  0.4904  0.6703  0.0057
15799TIP3   OH268811   3.335   2.923  15.827  0.7204  0.1496  0.2060
15799TIP3    H168812   3.335   3.012  15.793 -2.0010 -0.1778 -0.9573
15799TIP3    H268813   3.404   2.879  15.777  1.2208  1.2870 -0.1433
15800TIP3   OH268814   1.175   1.689   4.541 -0.0274 -0.1833  0.0598
15800TIP3    H168815   1.267   1.716   4.550  0.0810 -0.4189 -0.3167
15800TIP3    H268816   1.141   1.689   4.631  0.3294 -0.0502  0.1958
15801TIP3   OH268817   6.370   1.597  11.364  0.2947 -0.5921  0.0845
15801TIP3    H168818   6.364   1.692  11.369  3.1163 -0.3691  0.6463
15801TIP3    H268819   6.411   1.580  11.279  0.3930 -1.2576  0.2569
15802TIP3   OH268820   4.885   4.413   1.873  0.6329  0.1609  0.2158
15802TIP3    H168821   4.904   4.399   1.780  0.2406 -0.6669  0.2535
15802TIP3    H268822   4.793   4.442   1.874 -0.0559 -1.8875  0.4803
15803TIP3   OH268823   2.244   3.381  13.257 -0.7674  0.3373  0.3460
15803TIP3    H168824   2.296   3.444  13.307  2.3091 -1.8818  0.2462
15803TIP3    H268825   2.279   3.386  13.168 -0.8682 -1.0506  0.2090
15804TIP3   OH268826   4.616   0.825  13.332 -0.2324  0.4766 -0.5525
15804TIP3    H168827   4.577   0.908  13.359  1.7902  1.4615 -0.4946
15804TIP3    H268828   4.582   0.811  13.244 -0.3696  1.5190 -0.6854
15805TIP3   OH268829   4.617   6.002  14.770  0.1609  0.5499 -0.1827
15805TIP3    H168830   4.521   6.002  14.780  0.3292 -0.2802  1.8241
15805TIP3    H268831   4.646   6.082  14.814  0.4326  0.4731 -0.2217
15806TIP3   OH268832   6.321   0.865   6.437  0.2782 -0.4250 -0.2337
15806TIP3    H168833   6.399   0.862   6.382  0.0889 -0.0881 -0.5235
15806TIP3    H268834   6.248   0.876   6.375 -0.1795 -2.4618 -0.1228
15807TIP3   OH268835   0.008   6.600  12.945 -0.7763 -0.3123 -0.4412
15807TIP3    H168836   0.023   6.608  12.851 -0.2165  0.7487 -0.2802
15807TIP3    H268837  -0.082   6.632  12.959 -0.3053  1.0916 -0.4413
15808TIP3   OH268838   0.290   3.758   2.435  0.3021 -0.1427 -0.0018
15808TIP3    H168839   0.325   3.810   2.362 -1.6827 -0.0874 -0.9623
15808TIP3    H268840   0.298   3.816   2.511 -0.4506  0.9992 -0.7616
15809TIP3   OH268841   4.045   2.927   5.051 -0.3239  0.0232  0.0753
15809TIP3    H168842   3.959   2.966   5.035  0.4643  1.5925 -0.5555
15809TIP3    H268843   4.043   2.844   5.002 -1.6883 -0.2933  0.6179
15810TIP3   OH268844   5.404   3.051   6.151  0.2609 -0.4181  0.1190
15810TIP3    H168845   5.453   2.969   6.151  1.1223  0.0901 -0.1036
15810TIP3    H268846   5.446   3.104   6.219 -0.6178 -0.3433  0.6217
15811TIP3   OH268847   1.590   6.189   4.924 -0.3278  0.3679 -0.3086
15811TIP3    H168848   1.555   6.238   4.850 -0.3619 -3.2009 -2.9097
15811TIP3    H268849   1.685   6.193   4.913 -0.2945  0.7580  0.1163
15812TIP3   OH268850   6.169   3.183  14.266 -0.2409  0.0580  0.6258
15812TIP3    H168851   6.109   3.239  14.217 -0.5132 -0.6982  0.0940
15812TIP3    H268852   6.168   3.220  14.355 -0.0594  1.1804  0.1837
15813TIP3   OH268853   6.034   6.631   1.847 -0.3035 -0.4369 -1.1008
15813TIP3    H168854   6.084   6.683   1.784 -1.2460  0.6123 -1.0171
15813TIP3    H268855   5.999   6.696   1.908  3.5752 -1.5786  2.8401
15814TIP3   OH268856   4.047   0.691   6.016  0.5766 -0.4741 -0.8161
15814TIP3    H168857   4.039   0.787   6.019  0.3816 -0.4710 -1.2868
15814TIP3    H268858   3.957   0.659   6.014  0.6315 -0.7022  0.0516
15815TIP3   OH268859   0.653   5.826  10.993 -0.3402  0.5172 -0.0100
15815TIP3    H168860   0.728   5.811  10.934  0.3901 -0.1920  1.0710
15815TIP3    H268861   0.577   5.807  10.938  0.3117  0.0358 -0.7895
15816TIP3   OH268862   3.243   5.632   2.217 -0.1352 -0.6939  0.5442
15816TIP3    H168863   3.198   5.635   2.132 -1.8325 -0.8061  1.4056
15816TIP3    H268864   3.298   5.554   2.213 -0.1676 -0.6815 -0.4426
15817TIP3   OH268865   4.595   1.117   2.623  0.0483  0.0439  0.5004
15817TIP3    H168866   4.562   1.157   2.703 -0.0700  0.2397  0.3569
15817TIP3    H268867   4.690   1.127   2.628  0.0958 -0.6404  0.9794
15818TIP3   OH268868   5.466   1.514   0.891  0.1401  0.2224  0.3883
15818TIP3    H168869   5.558   1.535   0.875  0.6151 -1.6050  0.4916
15818TIP3    H268870   5.462   1.497   0.985  0.0040 -0.9608  0.1881
15819TIP3   OH268871   2.251   6.190  12.758 -0.1574  0.1449  0.4980
15819TIP3    H168872   2.218   6.269  12.800 -4.4358 -0.1159 -1.7793
15819TIP3    H268873   2.252   6.211  12.664 -0.0264 -2.0228 -0.0500
15820TIP3   OH268874   1.568   5.977  14.776  0.0093  0.2348  0.5242
15820TIP3    H168875   1.502   6.001  14.710 -0.1896  0.9561  0.9771
15820TIP3    H268876   1.651   5.981  14.729 -0.0875  1.1742  0.4156
15821TIP3   OH268877   2.819   6.274   4.677 -0.5790 -0.6017  0.2962
15821TIP3    H168878   2.825   6.369   4.674 -0.6574 -0.5964  0.3092
15821TIP3    H268879   2.826   6.247   4.585  2.2392 -0.7605  0.4687
15822TIP3   OH268880   3.487   5.479   0.959 -0.3185 -0.3788  0.0058
15822TIP3    H168881   3.481   5.539   1.033  0.5563 -0.6854  0.3424
15822TIP3    H268882   3.411   5.421   0.968 -1.9777  1.5213 -1.1203
15823TIP3   OH268883   0.536   5.569  14.919  0.2348 -0.1657  0.1140
15823TIP3    H168884   0.579   5.494  14.877  0.8042  0.8836 -1.2607
15823TIP3    H268885   0.493   5.532  14.996  1.2762 -1.7426 -0.0136
15824TIP3   OH268886   5.809   3.835  14.650 -0.0023 -0.0482  0.0574
15824TIP3    H168887   5.762   3.770  14.598  0.8071 -0.9238  0.3773
15824TIP3    H268888   5.742   3.897  14.678 -0.5388  0.1822 -1.6039
15825TIP3   OH268889   6.785   2.897   0.825 -0.4634  0.4235 -0.4908
15825TIP3    H168890   6.738   2.819   0.853 -0.8228  0.3060 -1.3952
15825TIP3    H268891   6.717   2.963   0.812 -0.2092  0.7494 -0.1888
15826TIP3   OH268892   3.998   4.909   0.699  0.5208 -0.4058 -0.3522
15826TIP3    H168893   4.017   4.815   0.703  1.6304 -0.3059 -2.4489
15826TIP3    H268894   3.929   4.921   0.765  0.9540 -2.5151  0.5824
15827TIP3   OH268895   3.155   5.571   0.436  0.0714 -0.5202  0.2574
15827TIP3    H168896   3.098   5.643   0.460  1.2594 -0.0167  1.7197
15827TIP3    H268897   3.096   5.497   0.422 -1.0201  0.2874  0.4791
15828TIP3   OH268898   0.166   3.810  16.666  0.1477  0.1927  0.5488
15828TIP3    H168899   0.248   3.811  16.617 -0.1168 -2.0093 -0.0570
15828TIP3    H268900   0.176   3.738  16.728 -1.8595 -1.1686 -0.5855
15829TIP3   OH268901   1.781   4.568   2.399 -0.1113 -0.5097 -0.0293
15829TIP3    H168902   1.701   4.615   2.373  0.4188 -0.6209 -1.9862
15829TIP3    H268903   1.852   4.617   2.359  1.0126  0.3404  2.7435
15830TIP3   OH268904   4.695   5.773  12.390  0.3901  0.5045  0.5988
15830TIP3    H168905   4.767   5.720  12.359 -0.2532  1.0771 -2.1016
15830TIP3    H268906   4.627   5.710  12.416 -0.2212 -0.1087 -2.1969
15831TIP3   OH268907   5.705   4.079  10.648 -0.5031  0.1023 -0.2511
15831TIP3    H168908   5.627   4.041  10.608 -1.0013  1.9388 -1.0852
15831TIP3    H268909   5.680   4.169  10.670  1.5919  0.9886 -1.2285
15832TIP3   OH268910   1.337   1.102   5.495  0.0535 -0.0989 -0.0874
15832TIP3    H168911   1.251   1.120   5.458 -0.2092 -0.0841  0.5182
15832TIP3    H268912   1.322   1.032   5.558  0.0838  1.3434  1.6008
15833TIP3   OH268913   6.746   0.806  11.644 -0.3452  0.7178 -0.5018
15833TIP3    H168914   6.688   0.882  11.638  0.8272  1.5977 -1.0257
15833TIP3    H268915   6.704   0.740  11.589 -1.7547  0.6985  0.5350
15834TIP3   OH268916   2.790   5.331  14.479 -0.1029  0.0186  0.7880
15834TIP3    H168917   2.815   5.239  14.477 -0.1841  0.0063 -0.7217
15834TIP3    H268918   2.831   5.365  14.559  2.3814 -0.6745 -0.0864
15835TIP3   OH268919   1.465   4.594  13.597  0.2641 -0.5167 -0.1923
15835TIP3    H168920   1.418   4.572  13.678  1.7867  1.1546  1.2137
15835TIP3    H268921   1.518   4.670  13.620  3.3963 -2.0598 -1.7875
15836TIP3   OH268922   2.563   5.502  13.419  0.4563 -0.1309  0.6566
15836TIP3    H168923   2.597   5.493  13.508  1.9299  1.5124  0.3380
15836TIP3    H268924   2.596   5.587  13.390 -0.3476 -0.4343 -1.3134
15837TIP3   OH268925   3.832   4.835  13.760 -0.0784 -0.2191  0.4370
15837TIP3    H168926   3.921   4.854  13.788  0.7207 -1.8238 -0.9191
15837TIP3    H268927   3.819   4.889  13.682 -0.1368 -0.3363  0.3653
15838TIP3   OH268928   4.640   6.785   2.342 -0.9328 -0.2487  0.0927
15838TIP3    H168929   4.580   6.785   2.416 -1.2531  0.5359 -0.1583
15838TIP3    H268930   4.616   6.862   2.291 -0.4531 -0.5511 -0.6144
15839TIP3   OH268931   1.728   6.659  13.351  0.2635  0.1592 -0.9792
15839TIP3    H168932   1.715   6.683  13.442  1.1989  0.3523 -0.8806
15839TIP3    H268933   1.782   6.729  13.314  3.0231 -1.6378 -0.6831
15840TIP3   OH268934   4.621   5.594  10.654  0.4681  0.4351  0.0117
15840TIP3    H168935   4.672   5.525  10.611  0.8113  0.8930 -0.3320
15840TIP3    H268936   4.686   5.656  10.685  0.1554  0.6502  0.2461
15841TIP3   OH268937   0.935   2.956   1.343 -0.5278  0.2859 -0.5060
15841TIP3    H168938   0.864   2.967   1.280 -2.3214  0.6150  1.4611
15841TIP3    H268939   0.891   2.930   1.424  1.7741 -1.0820  0.3795
15842TIP3   OH268940   1.368   4.644   2.974  0.3566 -0.5434 -0.2745
15842TIP3    H168941   1.427   4.572   2.996  0.8403  0.0499  0.3956
15842TIP3    H268942   1.328   4.618   2.891  0.2533 -1.7512  0.1377
15843TIP3   OH268943   5.097   3.227   4.015  0.6927  0.3629 -0.4990
15843TIP3    H168944   5.048   3.292   3.964 -1.3674 -1.5499 -1.0803
15843TIP3    H268945   5.165   3.196   3.955  0.5394  0.6863 -0.8436
15844TIP3   OH268946   0.189   1.531  11.435  1.4409 -0.4745 -0.1480
15844TIP3    H168947   0.229   1.452  11.472 -1.0921 -2.4447 -1.3127
15844TIP3    H268948   0.095   1.514  11.439  0.8881  1.4261 -2.6987
15845TIP3   OH268949   1.175   0.382   2.052  0.0100 -0.0519 -0.0871
15845TIP3    H168950   1.182   0.329   2.131 -3.9217  0.3005  0.7131
15845TIP3    H268951   1.181   0.472   2.083 -0.1025  0.0601 -0.3862
15846TIP3   OH268952   3.446   2.338   5.723 -0.5557  0.5958 -0.0396
15846TIP3    H168953   3.406   2.322   5.809 -0.4200  0.9958  0.1003
15846TIP3    H268954   3.447   2.434   5.715 -0.8656  0.5555 -0.6272
15847TIP3   OH268955   2.944   4.864   1.570  0.1469 -0.6719 -0.5864
15847TIP3    H168956   2.967   4.955   1.588  1.0998 -0.5885 -2.0849
15847TIP3    H268957   2.867   4.847   1.625  1.0323  0.4658  1.0765
15848TIP3   OH268958   0.286   0.890   4.270  0.3126 -0.2220  0.5297
15848TIP3    H168959   0.223   0.928   4.208  0.8708  0.4352  0.3589
15848TIP3    H268960   0.234   0.872   4.348 -0.3836 -0.9929 -0.0901
15849TIP3   OH268961   4.223   4.173  10.354  0.5448  0.1611 -0.2144
15849TIP3    H168962   4.292   4.193  10.292  1.2831  2.5040  1.2216
15849TIP3    H268963   4.266   4.175  10.440 -1.0127  0.2203  0.6128
15850TIP3   OH268964   1.255   6.092   1.253  0.3208 -0.4395 -0.3412
15850TIP3    H168965   1.263   6.160   1.320  1.1544 -0.6592 -0.2099
15850TIP3    H268966   1.261   6.010   1.302 -0.7000 -0.6181 -0.4964
15851TIP3   OH268967   3.254   3.800  16.457 -0.2334 -0.0393 -0.0015
15851TIP3    H168968   3.248   3.713  16.496  0.4687 -0.2888 -0.4269
15851TIP3    H268969   3.213   3.858  16.521 -0.4308 -0.6414  0.4254
15852TIP3   OH268970   2.086   1.690  11.325  0.3598  0.2270 -0.3710
15852TIP3    H168971   2.054   1.601  11.336 -0.8917  0.7135  0.1763
15852TIP3    H268972   2.178   1.680  11.303  0.6769 -1.1503  1.3680
15853TIP3   OH268973   1.494   3.396   1.861 -0.1786 -0.2872 -0.1085
15853TIP3    H168974   1.526   3.313   1.827  0.0887  0.2567 -1.2435
15853TIP3    H268975   1.562   3.425   1.922 -0.0350 -0.6451 -0.0982
15854TIP3   OH268976   6.119   1.229   3.669 -0.2260  0.0268  0.1294
15854TIP3    H168977   6.188   1.281   3.709  0.1047  1.1641 -1.8233
15854TIP3    H268978   6.039   1.281   3.682 -0.0110  0.7215 -1.1998
15855TIP3   OH268979   4.276   0.707   4.322  0.2034 -0.3620 -0.4218
15855TIP3    H168980   4.274   0.633   4.262  0.5372 -0.0325 -0.8484
15855TIP3    H268981   4.185   0.734   4.330  0.0266 -1.0692  0.0608
15856TIP3   OH268982   5.912   5.171  11.704 -0.2837 -0.6873  0.0416
15856TIP3    H168983   5.922   5.128  11.619  0.2521 -1.4768  0.4908
15856TIP3    H268984   5.871   5.105  11.760 -1.2782  0.0579  0.2263
15857TIP3   OH268985   2.528   1.506  12.077 -0.0143  0.1218  0.8183
15857TIP3    H168986   2.569   1.505  11.991 -0.9753 -0.1853  0.3505
15857TIP3    H268987   2.489   1.593  12.084 -2.1837 -0.7042 -0.1790
15858TIP3   OH268988   5.321   3.733   2.929 -0.2490 -0.1861 -0.1787
15858TIP3    H168989   5.358   3.653   2.890  0.3580 -0.1897  0.3736
15858TIP3    H268990   5.398   3.785   2.953 -0.5904 -0.2876  1.2104
15859TIP3   OH268991   6.117   4.261  16.540 -0.6932 -0.5471  0.3204
15859TIP3    H168992   6.061   4.275  16.464 -2.1911 -1.7561  1.1534
15859TIP3    H268993   6.088   4.327  16.603  0.6014  0.5081 -0.1430
15860TIP3   OH268994   0.766   1.033  16.442  0.3037  0.0963 -0.6443
15860TIP3    H168995   0.830   1.051  16.511 -0.0672  1.8607 -0.7141
15860TIP3    H268996   0.750   1.119  16.402 -1.2545 -0.5008 -1.3601
15861TIP3   OH268997   4.981   2.248  11.034  0.1355  0.4767  0.7391
15861TIP3    H168998   5.063   2.298  11.033 -0.2432  1.1677  1.9059
15861TIP3    H268999   4.965   2.225  10.943  0.4620  2.2742  0.1917
15862TIP3   OH269000   0.786   5.099  15.942  0.7734  0.3879 -0.1303
15862TIP3    H169001   0.722   5.170  15.938  2.6259  2.1736  0.0482
15862TIP3    H269002   0.765   5.044  15.867  0.0811  1.8596 -1.0750
15863TIP3   OH269003   3.704   5.336   4.553 -0.4999  0.7301  0.0759
15863TIP3    H169004   3.633   5.396   4.575 -0.2487  0.6796  1.0646
15863TIP3    H269005   3.754   5.383   4.485  0.3692  2.2103  1.6481
15864TIP3   OH269006   4.720   2.133   2.718 -0.3480 -0.1383 -0.2108
15864TIP3    H169007   4.696   2.066   2.654 -2.2540  0.8652 -0.6279
15864TIP3    H269008   4.815   2.125   2.727 -0.4769 -2.7486 -0.3650
15865TIP3   OH269009   6.420   0.060  14.786  0.5966 -0.5174 -0.1263
15865TIP3    H169010   6.393   0.138  14.738  2.8194  1.0022  0.9436
15865TIP3    H269011   6.407  -0.012  14.724 -4.1073  0.1460 -0.2784
15866TIP3   OH269012   5.703   5.752   2.350  0.1629 -0.7859  0.6409
15866TIP3    H169013   5.664   5.792   2.272 -0.9453 -0.6125  1.2628
15866TIP3    H269014   5.787   5.718   2.320 -0.1762 -0.5867 -0.5932
15867TIP3   OH269015   0.168   0.732   6.585  0.0141  0.3815  0.5840
15867TIP3    H169016   0.246   0.681   6.561 -0.2194  0.3753 -0.1959
15867TIP3    H269017   0.202   0.818   6.609  0.2536  0.3935  0.2065
15868TIP3   OH269018   1.668   1.505  15.829 -0.5331  0.2763  0.0481
15868TIP3    H169019   1.608   1.504  15.754 -0.8064  0.7194  0.2612
15868TIP3    H269020   1.721   1.583  15.815 -1.3697  1.0217  0.9327
15869TIP3   OH269021   3.613   4.720  12.288  0.2643 -0.4582  0.0861
15869TIP3    H169022   3.641   4.679  12.206 -0.0521 -0.5094  0.0049
15869TIP3    H269023   3.551   4.658  12.326  0.5117 -0.4974  0.4336
15870TIP3   OH269024   2.954   3.824  15.438  0.0143  0.7788 -0.6497
15870TIP3    H169025   2.905   3.797  15.515  0.4332  0.0867 -0.6163
15870TIP3    H269026   3.033   3.865  15.473  0.5413 -0.1696 -0.7010
15871TIP3   OH269027   6.527   6.394  15.444 -0.1108 -0.0783 -0.2030
15871TIP3    H169028   6.485   6.313  15.474  0.8505 -0.7241 -0.5609
15871TIP3    H269029   6.454   6.456  15.433 -0.9017 -1.0011 -0.2908
15872TIP3   OH269030   2.546   1.290   5.685 -0.1406 -0.1350 -0.2931
15872TIP3    H169031   2.576   1.380   5.678  3.0258 -1.0957 -0.8898
15872TIP3    H269032   2.491   1.277   5.607 -0.2874  1.1388 -0.4163
15873TIP3   OH269033   2.401   2.915  15.957 -0.1359 -0.0135 -0.6101
15873TIP3    H169034   2.452   2.902  16.038 -1.0380 -0.3789 -0.0867
15873TIP3    H269035   2.376   2.826  15.931 -1.7034  0.2428 -0.0636
15874TIP3   OH269036   6.102   1.767   0.638 -0.3712 -0.2346  0.0570
15874TIP3    H169037   6.094   1.840   0.700  0.2204  0.0210 -0.1632
15874TIP3    H269038   6.161   1.706   0.682  0.2150  0.0416 -0.3390
15875TIP3   OH269039   2.373   2.407   2.441  0.2580 -0.3766  0.1030
15875TIP3    H169040   2.376   2.484   2.385  0.2840 -2.0950 -2.4021
15875TIP3    H269041   2.285   2.371   2.428 -0.2866 -0.0131  2.3881
15876TIP3   OH269042   6.733   1.312  16.217 -0.0323  0.4218 -0.3107
15876TIP3    H169043   6.639   1.311  16.238  0.0527 -0.4088  0.0727
15876TIP3    H269044   6.764   1.395  16.253 -0.7684  1.0883 -1.1623
15877TIP3   OH269045   4.205   1.860  16.102 -0.0043  0.8484  0.1153
15877TIP3    H169046   4.117   1.851  16.139  1.2374 -0.1071  3.1705
15877TIP3    H269047   4.243   1.934  16.149  1.1702  0.5915 -0.3926
15878TIP3   OH269048   2.509   5.509   2.751  0.1658 -0.5787  0.3016
15878TIP3    H169049   2.588   5.511   2.805 -0.5741 -1.8288  1.5045
15878TIP3    H269050   2.437   5.506   2.814 -0.7675 -1.4355 -0.7588
15879TIP3   OH269051   4.223   2.898  16.233  0.6799 -0.1826  0.2102
15879TIP3    H169052   4.254   2.865  16.317  0.3914 -0.5953  0.1576
15879TIP3    H269053   4.244   2.829  16.170 -0.1374 -0.3747  0.1369
15880TIP3   OH269054   0.516   6.263   5.178  0.2254 -0.3324 -0.6240
15880TIP3    H169055   0.534   6.266   5.084  1.3335 -1.6069 -0.4780
15880TIP3    H269056   0.511   6.355   5.204 -1.0822  0.0549 -2.0892
15881TIP3   OH269057   6.520   2.507  13.376 -0.9307  0.6629  0.6644
15881TIP3    H169058   6.449   2.489  13.313 -0.5584  2.2151 -0.2683
15881TIP3    H269059   6.537   2.600  13.365  0.6768  0.4890  1.5039
15882TIP3   OH269060   1.088   5.384  10.962  0.0308 -0.5429 -0.8609
15882TIP3    H169061   1.119   5.475  10.952 -0.5109 -0.0807  1.2700
15882TIP3    H269062   1.168   5.333  10.970  0.3281 -0.1158 -1.0359
15883TIP3   OH269063   1.548   5.659  14.908  0.2118  0.0406 -0.2621
15883TIP3    H169064   1.567   5.751  14.895 -1.4767  0.4074 -0.3323
15883TIP3    H269065   1.614   5.613  14.856  1.2553  1.1781  0.0143
15884TIP3   OH269066   6.741   1.090   5.709 -0.0784 -0.1322 -0.4200
15884TIP3    H169067   6.835   1.108   5.707  0.7754 -3.8168 -0.5117
15884TIP3    H269068   6.715   1.088   5.617 -0.0296 -0.0620 -0.4353
15885TIP3   OH269069   5.179   5.195  14.686  0.3864 -0.3282 -0.7273
15885TIP3    H169070   5.110   5.241  14.638 -1.8843 -0.3591  2.1803
15885TIP3    H269071   5.230   5.264  14.728 -0.6976 -0.3223  0.6457
15886TIP3   OH269072   1.579   3.913   4.627  0.0885 -0.3581 -0.6216
15886TIP3    H169073   1.504   3.858   4.653  0.4782 -0.7395 -0.2744
15886TIP3    H269074   1.545   4.002   4.629  0.0498 -0.3643  1.1498
15887TIP3   OH269075   5.569   5.467  15.975  0.6566 -0.6334 -0.2696
15887TIP3    H169076   5.573   5.435  15.885  1.2976  2.7096 -1.5823
15887TIP3    H269077   5.657   5.453  16.009  0.9243 -0.3010 -0.8081
15888TIP3   OH269078   1.304   6.295  10.267  0.1421 -0.1267 -0.0549
15888TIP3    H169079   1.252   6.306  10.346  0.4312 -3.8666  0.8108
15888TIP3    H269080   1.395   6.307  10.296  0.1319  0.9339 -0.4056
15889TIP3   OH269081   3.360   4.717   5.273 -0.0840 -0.4766  0.3690
15889TIP3    H169082   3.389   4.766   5.196  0.6872  1.7619  1.9688
15889TIP3    H269083   3.425   4.647   5.284  0.3742 -0.1818 -0.4319
15890TIP3   OH269084   1.000   2.620  10.475  0.0951 -0.1827 -0.1119
15890TIP3    H169085   1.044   2.615  10.390  2.3695  2.4985  0.7589
15890TIP3    H269086   1.050   2.560  10.531 -0.4620 -0.8273 -0.3040
15891TIP3   OH269087   5.504   2.380   1.440 -0.2922  0.3760  0.8570
15891TIP3    H169088   5.461   2.363   1.356  2.4329 -1.2488 -0.3771
15891TIP3    H269089   5.472   2.311   1.498 -1.0302  0.5639  0.6755
15892TIP3   OH269090   1.596   3.527   2.974  0.1233  0.1407  0.2948
15892TIP3    H169091   1.556   3.605   2.936 -0.1784  0.7697  1.8082
15892TIP3    H269092   1.535   3.456   2.953 -0.6273  0.6790  0.6152
15893TIP3   OH269093   1.251   0.371  13.485 -0.0723 -0.5214  0.4875
15893TIP3    H169094   1.327   0.349  13.431 -2.6725 -0.5775 -3.5302
15893TIP3    H269095   1.218   0.286  13.515 -0.0621 -0.7385 -0.0936
15894TIP3   OH269096   6.406   2.090   4.618 -0.1164 -0.2162 -0.3700
15894TIP3    H169097   6.323   2.075   4.663 -0.3887 -0.0576 -0.8125
15894TIP3    H269098   6.447   2.161   4.666 -0.7167  0.4156 -0.7727
15895TIP3   OH269099   6.572   4.465   1.486 -0.1559  0.2063 -0.0756
15895TIP3    H169100   6.519   4.458   1.566 -1.0163 -1.0669 -0.7403
15895TIP3    H269101   6.568   4.558   1.463 -1.3776  0.2812  0.3830
15896TIP3   OH269102   5.545   4.243  11.437 -0.0573  0.2604 -0.3276
15896TIP3    H169103   5.546   4.251  11.342 -0.7897  0.1610 -0.3504
15896TIP3    H269104   5.634   4.267  11.465 -0.1932  1.5581 -0.9295
15897TIP3   OH269105   4.890   5.681   1.477 -0.4896  0.2088 -0.1518
15897TIP3    H169106   4.831   5.697   1.404  0.0420 -0.2190 -0.6958
15897TIP3    H269107   4.923   5.767   1.501 -0.5283  0.3381 -0.5523
15898TIP3   OH269108   3.207   5.904  16.625 -0.4340 -0.3545 -0.5059
15898TIP3    H169109   3.122   5.917  16.667  0.0786 -0.9720  0.7653
15898TIP3    H269110   3.207   5.811  16.601  0.2141 -0.5721  0.2946
15899TIP3   OH269111   2.376   3.898   5.098  0.4667  0.2034  0.0326
15899TIP3    H169112   2.297   3.865   5.141  0.5170 -0.6475 -0.4951
15899TIP3    H269113   2.441   3.905   5.167  0.2314 -0.1016  0.2849
15900TIP3   OH269114   3.205   2.761   1.885  0.4510 -0.4904  0.8958
15900TIP3    H169115   3.145   2.697   1.923  0.1261 -1.1395 -0.6219
15900TIP3    H269116   3.151   2.839   1.872 -0.3970 -1.3735 -1.3397
15901TIP3   OH269117   0.878   0.018   3.548 -0.2182 -0.4374 -0.0237
15901TIP3    H169118   0.840   0.101   3.576 -0.4343 -0.4612 -0.2340
15901TIP3    H269119   0.849   0.009   3.457  1.1369  0.0330 -0.5234
15902TIP3   OH269120   4.906   3.682   4.319  0.1895  0.1704 -0.1954
15902TIP3    H169121   4.925   3.757   4.376 -0.4208  0.7755 -0.7580
15902TIP3    H269122   4.836   3.713   4.262 -0.5815 -1.0768  0.0346
15903TIP3   OH269123   4.743   1.362   5.712 -0.4585  0.2993  0.1618
15903TIP3    H169124   4.774   1.306   5.784 -1.1570 -0.3130  0.0037
15903TIP3    H269125   4.820   1.410   5.684  0.9659 -2.6726 -1.6006
15904TIP3   OH269126   1.895   5.735  14.203 -0.2237 -0.6156 -0.1208
15904TIP3    H169127   1.959   5.789  14.158 -0.4231 -0.6809 -0.4890
15904TIP3    H269128   1.828   5.717  14.137 -0.7872 -0.2747  0.3471
15905TIP3   OH269129   0.458   5.827   4.589 -0.4252 -0.4353 -0.8695
15905TIP3    H169130   0.381   5.877   4.618 -1.2063 -1.6416 -0.7921
15905TIP3    H269131   0.532   5.872   4.629 -1.2275 -0.1607  0.3744
15906TIP3   OH269132   1.289   2.780  16.908 -0.5095 -0.0476 -0.0559
15906TIP3    H169133   1.364   2.796  16.966 -0.4528  3.1662 -0.8619
15906TIP3    H269134   1.214   2.814  16.955 -1.2809 -1.8486  0.0899
15907TIP3   OH269135   4.509   6.126   1.520 -0.5761  0.2738  0.1103
15907TIP3    H169136   4.548   6.214   1.518 -2.4993  1.2615  1.9800
15907TIP3    H269137   4.417   6.141   1.543 -1.4689 -2.1309 -1.4428
15908TIP3   OH269138   5.170   1.809   1.778  0.0707 -0.2565 -0.1255
15908TIP3    H169139   5.079   1.827   1.799  0.7191  0.8601  2.0556
15908TIP3    H269140   5.200   1.751   1.849  1.4154  0.6114  0.0607
15909TIP3   OH269141   6.065   0.347   1.315  0.2682  0.3036 -0.1494
15909TIP3    H169142   6.159   0.335   1.331 -0.0986  0.2484  2.3598
15909TIP3    H269143   6.057   0.440   1.292  0.9380  0.3268 -0.3076
15910TIP3   OH269144   3.132   5.240   4.769  0.5439  0.0485 -0.2501
15910TIP3    H169145   3.070   5.297   4.723  0.2461 -1.9753 -2.5331
15910TIP3    H269146   3.217   5.284   4.759  0.0532  0.9944 -0.3370
15911TIP3   OH269147   2.779   5.337   0.318  0.0827  0.3311 -0.1549
15911TIP3    H169148   2.808   5.252   0.286  1.1153  0.0273  1.4658
15911TIP3    H269149   2.686   5.325   0.337  0.5857 -1.0689  1.8176
15912TIP3   OH269150   5.465   5.028  12.835 -0.6793  0.3580 -0.1774
15912TIP3    H169151   5.553   5.003  12.807  0.0360  1.3401  1.0390
15912TIP3    H269152   5.468   5.124  12.838 -1.7040  0.3868  0.1405
15913TIP3   OH269153   5.580   1.134  15.080  0.1289 -0.2011 -0.1097
15913TIP3    H169154   5.541   1.187  15.149  1.5276 -0.4371  0.8990
15913TIP3    H269155   5.509   1.118  15.019 -1.4009 -0.7714  1.7366
15914TIP3   OH269156   3.764   0.348  12.794 -0.2153  0.0820  0.2050
15914TIP3    H169157   3.832   0.309  12.740  0.2397 -0.0374  0.8459
15914TIP3    H269158   3.732   0.275  12.848 -1.3352 -0.0182 -0.5647
15915TIP3   OH269159   3.340   2.902  11.890  0.0248 -0.0407  1.1248
15915TIP3    H169160   3.429   2.871  11.870  0.7724  2.4333  0.2168
15915TIP3    H269161   3.348   2.945  11.975 -0.6969 -1.1201  1.7647
15916TIP3   OH269162   2.332   6.673   2.885  0.2592 -0.0698 -0.2928
15916TIP3    H169163   2.383   6.707   2.959  1.3092  0.9940 -1.4438
15916TIP3    H269164   2.281   6.749   2.855 -0.7226 -0.6869 -0.2261
15917TIP3   OH269165   5.779   0.516   2.351  0.5822  0.1328 -0.1856
15917TIP3    H169166   5.696   0.471   2.370  1.1951 -0.6333  0.7602
15917TIP3    H269167   5.801   0.560   2.433  0.3781  1.5671 -0.8770
15918TIP3   OH269168   0.191   6.182   1.029  0.4472  0.2061 -0.2650
15918TIP3    H169169   0.258   6.251   1.029  0.0967  0.5727  0.9488
15918TIP3    H269170   0.219   6.121   1.097  0.3653 -0.4645 -0.8287
15919TIP3   OH269171   3.537   6.577  13.677  0.3621 -0.4737  0.3860
15919TIP3    H169172   3.473   6.605  13.742 -0.6112 -0.4823 -0.5456
15919TIP3    H269173   3.593   6.653  13.665 -2.0269  1.0892 -1.8540
15920TIP3   OH269174   1.696   3.307   1.210 -0.2091 -0.0918  0.8481
15920TIP3    H169175   1.773   3.260   1.177 -2.2431 -3.0198 -0.1653
15920TIP3    H269176   1.673   3.368   1.140  0.9983  0.6762  1.0806
15921TIP3   OH269177   5.398   2.238   2.531  0.2900  0.2357 -0.2224
15921TIP3    H169178   5.458   2.312   2.539  0.8656 -0.3021  0.7290
15921TIP3    H269179   5.413   2.204   2.443  0.3246  0.9833 -0.5143
15922TIP3   OH269180   6.373   2.383   0.625  0.0914  0.0725  0.3858
15922TIP3    H169181   6.333   2.438   0.692  2.0267  0.5016  1.2547
15922TIP3    H269182   6.299   2.340   0.582 -1.2599  0.5693  2.0989
15923TIP3   OH269183   2.667   5.744  11.997  0.6484 -0.0348 -0.0622
15923TIP3    H169184   2.742   5.749  12.057 -0.0448  0.9104  0.7778
15923TIP3    H269185   2.664   5.830  11.955  0.0484 -0.0659 -0.0988
15924TIP3   OH269186   5.621   0.401  14.806  0.3427 -0.2266 -0.4083
15924TIP3    H169187   5.668   0.393  14.723  0.1329 -1.0007 -0.4605
15924TIP3    H269188   5.589   0.491  14.807 -2.6311 -1.0677 -2.8123
15925TIP3   OH269189   4.112   2.396   4.709  0.0178 -0.4832 -0.1692
15925TIP3    H169190   4.121   2.439   4.624  0.7131 -0.3498 -0.0292
15925TIP3    H269191   4.191   2.343   4.718  0.7652  0.7740  1.1110
15926TIP3   OH269192   4.683   0.585  15.303 -0.2714  0.3973 -0.3395
15926TIP3    H169193   4.648   0.655  15.357  1.9124  0.3284  1.3252
15926TIP3    H269194   4.773   0.612  15.284 -0.0108 -1.0377 -1.3737
15927TIP3   OH269195   2.569   2.339   2.071  0.3253  0.0344  0.1880
15927TIP3    H169196   2.609   2.349   2.157 -0.3816 -0.3170  0.5721
15927TIP3    H269197   2.475   2.350   2.088  0.1443 -0.4632 -0.4641
15928TIP3   OH269198   4.620   5.378  12.226  0.5344  0.4810 -0.3934
15928TIP3    H169199   4.631   5.428  12.307  0.9083 -1.1932  0.6293
15928TIP3    H269200   4.710   5.355  12.200  0.5674  2.3157 -2.2119
15929TIP3   OH269201   2.720   6.676   5.196  0.6307  0.0691 -0.0555
15929TIP3    H169202   2.719   6.723   5.112  0.8969  1.8421  0.8778
15929TIP3    H269203   2.806   6.697   5.234  1.2582 -2.1858 -0.0970
15930TIP3   OH269204   1.998   5.176   1.293  0.1183 -0.2868  0.1196
15930TIP3    H169205   2.089   5.184   1.267  0.1342 -0.3085  0.1674
15930TIP3    H269206   1.985   5.082   1.307 -0.1764 -0.3906 -0.8250
15931TIP3   OH269207   2.599   3.993   2.341 -0.2318 -0.0834  0.2024
15931TIP3    H169208   2.604   4.022   2.433 -0.4755 -0.3262  0.2911
15931TIP3    H269209   2.664   4.048   2.296 -0.2980  0.2216  0.4712
15932TIP3   OH269210   4.767   2.500  14.621  0.5065  0.2406  0.2676
15932TIP3    H169211   4.749   2.533  14.533 -1.2823  1.0418  0.8870
15932TIP3    H269212   4.809   2.573  14.666 -2.3359  1.4011  1.2641
15933TIP3   OH269213   2.301   0.048   0.777  0.0328  0.2415  0.3742
15933TIP3    H169214   2.391   0.067   0.750 -0.0192  1.2538  0.8467
15933TIP3    H269215   2.269   0.131   0.812 -0.8774 -0.2723  0.7954
15934TIP3   OH269216   6.378   5.801  12.689 -0.0411  0.3094  0.1588
15934TIP3    H169217   6.312   5.770  12.751 -0.4041  0.3021 -0.2275
15934TIP3    H269218   6.329   5.818  12.608  0.5541 -0.4997 -0.3918
15935TIP3   OH269219   6.619   6.073  13.879  0.3736  0.4246 -1.2557
15935TIP3    H169220   6.592   5.986  13.849 -0.9064  1.1754 -2.4091
15935TIP3    H269221   6.537   6.121  13.890  0.8323  0.6457  2.3222
15936TIP3   OH269222   4.445   2.693   4.935 -0.1836  0.3941 -0.1578
15936TIP3    H169223   4.451   2.627   4.866  0.5462  0.2430  0.0386
15936TIP3    H269224   4.375   2.663   4.992 -0.8103  0.5263 -0.8364
15937TIP3   OH269225   0.016   0.453  16.346  0.2479  0.4442 -0.2248
15937TIP3    H169226   0.075   0.525  16.325 -0.4365  1.0045 -0.2539
15937TIP3    H269227  -0.026   0.480  16.428  0.9836 -0.5452  0.5052
15938TIP3   OH269228   4.921   0.718   0.263  0.0509 -0.7550 -0.1116
15938TIP3    H169229   5.010   0.743   0.238  1.2170  0.7897  4.6549
15938TIP3    H269230   4.869   0.798   0.252  0.3277 -0.3726  1.2558
15939TIP3   OH269231   3.377   4.728   6.109  0.2246 -0.2423 -0.1904
15939TIP3    H169232   3.356   4.707   6.200  0.8643  0.3682  0.1103
15939TIP3    H269233   3.456   4.677   6.090 -0.7252 -1.5063 -0.8899
15940TIP3   OH269234   3.194   5.881  12.029  0.2487 -0.1710  0.0181
15940TIP3    H169235   3.204   5.973  12.005  0.3998 -0.6887 -2.0755
15940TIP3    H269236   3.170   5.837  11.948 -1.4108 -1.7728  1.2871
15941TIP3   OH269237   2.018   5.576   2.715  0.1900 -0.0975  0.0086
15941TIP3    H169238   2.017   5.515   2.641  2.2256  0.1878 -0.3017
15941TIP3    H269239   1.994   5.660   2.677 -1.9881 -0.5038  0.3239
15942TIP3   OH269240   1.126   1.412  13.304 -0.4824 -0.2319 -0.1812
15942TIP3    H169241   1.093   1.435  13.391 -1.0277 -2.2710  0.2198
15942TIP3    H269242   1.127   1.494  13.255 -2.8112  0.5168  0.9111
15943TIP3   OH269243   5.424   2.221   4.380 -0.2423 -0.4914  0.0435
15943TIP3    H169244   5.340   2.266   4.374 -0.0717  0.0735  1.5152
15943TIP3    H269245   5.415   2.145   4.321 -0.9945  0.7236 -1.4695
15944TIP3   OH269246   6.497   4.580  13.538 -0.1091 -0.1202 -0.0307
15944TIP3    H169247   6.422   4.622  13.581 -0.5337 -0.5785 -0.3206
15944TIP3    H269248   6.513   4.633  13.460 -0.3150 -0.1866 -0.1194
15945TIP3   OH269249   0.020   2.841  14.829 -0.9121  0.3841  0.2443
15945TIP3    H169250   0.069   2.762  14.852 -1.3288 -0.5556 -1.8801
15945TIP3    H269251   0.064   2.911  14.877  1.4556 -0.6769 -0.2405
15946TIP3   OH269252   0.453   1.748   3.591  0.2755 -0.3710 -0.1061
15946TIP3    H169253   0.422   1.833   3.624  1.6083 -0.4856  1.5648
15946TIP3    H269254   0.538   1.766   3.552  0.2423 -0.8383 -0.4069
15947TIP3   OH269255   5.316   2.230  13.580  0.3130  0.0233  0.0691
15947TIP3    H169256   5.232   2.274  13.595 -1.1604 -2.6069  0.0904
15947TIP3    H269257   5.343   2.200  13.667  1.1686  0.6222  0.0224
15948TIP3   OH269258   0.496   0.428  10.868  0.3207  0.2766 -0.4063
15948TIP3    H169259   0.516   0.336  10.850  1.0658 -0.0688  1.9083
15948TIP3    H269260   0.558   0.453  10.936 -0.6868  2.1530 -0.1281
15949TIP3   OH269261   1.000   1.947   3.391  0.2527 -0.1610 -0.4387
15949TIP3    H169262   1.003   2.003   3.313 -1.1009  0.3810 -0.1237
15949TIP3    H269263   1.027   2.004   3.463 -1.2597  0.1720 -0.0951
15950TIP3   OH269264   5.729   4.705   6.085  0.1565 -0.3574 -0.2467
15950TIP3    H169265   5.687   4.717   6.170  1.2698  2.7379 -0.0001
15950TIP3    H269266   5.658   4.682   6.026 -0.8803 -1.0408  1.2161
15951TIP3   OH269267   1.346   3.603   2.092  0.3902  0.0623  0.1745
15951TIP3    H169268   1.347   3.636   2.182  3.0630 -3.9346  1.9202
15951TIP3    H269269   1.429   3.633   2.055 -0.4227  1.1666 -0.8516
15952TIP3   OH269270   4.499   4.493  16.339 -0.0069  0.4202  0.5661
15952TIP3    H169271   4.531   4.525  16.255  0.2015  2.1437  1.2537
15952TIP3    H269272   4.542   4.549  16.404 -0.0908 -0.9227  1.8364
15953TIP3   OH269273   4.442   4.115   6.124 -0.5559  0.1013  0.0419
15953TIP3    H169274   4.373   4.156   6.072 -1.1842 -0.1555  0.6567
15953TIP3    H269275   4.421   4.022   6.124  0.0533 -0.0432 -0.1471
15954TIP3   OH269276   0.705   5.739  13.679  0.1485  0.4527  0.2504
15954TIP3    H169277   0.779   5.680  13.696 -0.6582 -1.2512 -1.6833
15954TIP3    H269278   0.628   5.690  13.709 -0.3782  1.3409  0.3692
15955TIP3   OH269279   6.230   5.159   2.711 -0.6343 -0.0452 -0.0201
15955TIP3    H169280   6.285   5.237   2.721  2.0452 -1.6695 -0.9880
15955TIP3    H269281   6.160   5.186   2.652 -1.5553  2.3878  2.0042
15956TIP3   OH269282   2.375   3.526  11.062  0.6089  0.1027  0.1895
15956TIP3    H169283   2.341   3.575  10.987 -2.8702 -0.7439  1.0316
15956TIP3    H269284   2.370   3.587  11.135 -0.1975 -0.3569  0.5298
15957TIP3   OH269285   2.055   3.254   2.620  0.1021  0.5736  0.0458
15957TIP3    H169286   1.987   3.243   2.686  1.0699 -1.9684  0.7040
15957TIP3    H269287   2.136   3.265   2.671  0.9009 -1.6911 -0.6413
15958TIP3   OH269288   1.937   4.983  12.468  0.6247 -0.0028 -0.4263
15958TIP3    H169289   1.950   5.075  12.443 -1.2596 -0.0238 -1.6258
15958TIP3    H269290   1.866   4.986  12.532  0.7223 -0.6190 -0.2874
15959TIP3   OH269291   1.796   5.589  11.942  0.5597  0.5417 -0.2194
15959TIP3    H169292   1.781   5.502  11.908  2.0518  1.0076 -2.2609
15959TIP3    H269293   1.749   5.648  11.883  1.7229  1.2652 -0.4666
15960TIP3   OH269294   5.148   0.792  13.785 -0.4781  0.2866 -0.0112
15960TIP3    H169295   5.158   0.852  13.710 -1.4525  2.0147  1.1899
15960TIP3    H269296   5.110   0.713  13.747 -1.1832  1.2129 -1.3258
15961TIP3   OH269297   2.155   2.092   4.493  0.5903  0.2764  0.2612
15961TIP3    H169298   2.238   2.133   4.519  0.2183  0.9129  0.4804
15961TIP3    H269299   2.126   2.143   4.417  0.2107  0.3059  0.4225
15962TIP3   OH269300   4.184   2.087  14.106  0.0734  0.0350 -0.2432
15962TIP3    H169301   4.231   2.090  14.023 -1.9127 -1.3239 -1.4934
15962TIP3    H269302   4.118   2.156  14.099 -0.4421 -0.4292 -0.0318
15963TIP3   OH269303   6.271   3.821  12.189  0.2852  0.4989  0.3804
15963TIP3    H169304   6.215   3.856  12.120  2.4562  0.7692 -1.3750
15963TIP3    H269305   6.255   3.877  12.265 -0.8181  1.3758 -0.4850
15964TIP3   OH269306   4.103   2.621   3.641 -0.3365 -0.4343  0.2660
15964TIP3    H169307   4.170   2.679   3.606  0.2289 -1.0916  0.2523
15964TIP3    H269308   4.020   2.662   3.614  0.0705 -0.6244 -1.4084
15965TIP3   OH269309   3.113   6.142  14.509 -0.8013 -0.0463  0.8442
15965TIP3    H169310   3.135   6.056  14.472 -0.5544  0.6219 -0.5966
15965TIP3    H269311   3.196   6.179  14.537 -0.7972  0.1255  0.5995
15966TIP3   OH269312   0.723   1.611  12.629 -0.1114 -0.2428  0.0318
15966TIP3    H169313   0.749   1.616  12.721  0.0768 -0.9705  0.0266
15966TIP3    H269314   0.693   1.699  12.608 -1.2547 -0.3525  1.1092
15967TIP3   OH269315   0.966   2.082   0.938 -0.0927 -0.4299 -0.2198
15967TIP3    H169316   0.883   2.052   0.973 -1.4687 -0.5720 -3.2726
15967TIP3    H269317   1.032   2.032   0.986 -1.7470 -0.7406  1.8691
15968TIP3   OH269318   4.511   2.801  10.914 -0.2086 -0.0469 -0.1730
15968TIP3    H169319   4.499   2.758  10.998 -0.1174 -0.4435 -0.3632
15968TIP3    H269320   4.555   2.737  10.859 -3.6869 -1.3511 -1.7718
15969TIP3   OH269321   4.341   3.025   0.817  0.2365  0.2870 -0.0545
15969TIP3    H169322   4.432   3.019   0.786  0.6841  0.0727  1.2355
15969TIP3    H269323   4.317   2.934   0.837 -0.3612  0.3118 -0.6270
15970TIP3   OH269324   0.099   2.453  10.282  0.8480 -0.4635  0.2750
15970TIP3    H169325   0.033   2.459  10.351 -1.3768 -0.4887 -1.7145
15970TIP3    H269326   0.157   2.528  10.298 -1.6181  1.5830  0.2442
15971TIP3   OH269327   1.102   6.479   6.194  0.6922 -0.0292 -0.0523
15971TIP3    H169328   1.163   6.463   6.122  1.1896  0.7149  0.1834
15971TIP3    H269329   1.039   6.407   6.189 -0.0968  0.7154 -2.0765
15972TIP3   OH269330   2.324   4.002   4.644  0.1581 -0.4891 -0.2132
15972TIP3    H169331   2.333   4.076   4.583  1.7993  0.0074  0.5577
15972TIP3    H269332   2.394   4.016   4.708  1.0283 -3.1242 -0.4677
15973TIP3   OH269333   4.281   6.817  15.723  0.3200  0.5426  0.1538
15973TIP3    H169334   4.303   6.735  15.768 -0.6620 -0.1627 -0.6004
15973TIP3    H269335   4.357   6.833  15.666  0.6434  0.3071  0.5084
15974TIP3   OH269336   2.472   1.881   3.545 -0.0372 -0.3282 -0.1861
15974TIP3    H169337   2.435   1.795   3.529 -1.1743  0.5002 -2.5080
15974TIP3    H269338   2.543   1.889   3.482  0.2318  0.3275  0.1885
15975TIP3   OH269339   5.060   3.273  15.355  0.1888  0.1013  0.1624
15975TIP3    H169340   5.034   3.190  15.316 -0.7954 -0.9442  2.8641
15975TIP3    H269341   5.150   3.259  15.383  0.2340  0.1879  0.0641
15976TIP3   OH269342   4.591   6.538  15.561 -0.3680 -0.1006 -0.5222
15976TIP3    H169343   4.519   6.477  15.575  1.0495 -1.8476 -0.4887
15976TIP3    H269344   4.611   6.531  15.467 -0.5462  0.7252 -0.6249
15977TIP3   OH269345   3.203   3.291   4.034  0.2348 -0.1028 -0.1756
15977TIP3    H169346   3.244   3.310   4.118 -4.6101 -2.6573  3.1964
15977TIP3    H269347   3.140   3.362   4.021  0.2064 -0.2911 -1.1895
15978TIP3   OH269348   3.775   0.792   5.495  0.3358  0.5183  0.2676
15978TIP3    H169349   3.688   0.830   5.486  0.0802 -0.1924 -0.3201
15978TIP3    H269350   3.773   0.747   5.580  0.0213  0.2114  0.0967
15979TIP3   OH269351   0.833   2.266   0.227 -0.1250  0.4542  0.1369
15979TIP3    H169352   0.902   2.267   0.294  0.3248  0.5951 -0.3220
15979TIP3    H269353   0.757   2.228   0.271 -0.1171  1.4021  1.0136
15980TIP3   OH269354   2.060   6.277  11.852 -0.3711 -0.1893  0.2843
15980TIP3    H169355   1.973   6.266  11.815 -0.2392 -0.6662  0.1171
15980TIP3    H269356   2.120   6.273  11.777 -0.3178  1.8968  0.1651
15981TIP3   OH269357   4.354   1.686  14.492  0.0446  0.4674 -0.2795
15981TIP3    H169358   4.410   1.761  14.515  2.9011 -1.8263  0.8731
15981TIP3    H269359   4.322   1.653  14.576  0.9711 -1.0990 -0.5056
15982TIP3   OH269360   2.811   1.265  17.065  0.8462 -0.3044 -1.1717
15982TIP3    H169361   2.848   1.253  16.978  0.5168 -0.4910 -1.2876
15982TIP3    H269362   2.845   1.349  17.094  2.7580 -1.2150 -0.5801
15983TIP3   OH269363   6.364   1.929  16.084  0.1827 -0.0788  0.1720
15983TIP3    H169364   6.277   1.943  16.046  0.2195 -0.3587 -0.0165
15983TIP3    H269365   6.350   1.858  16.147  0.5261 -1.0287 -0.7855
15984TIP3   OH269366   5.618   0.469   1.445 -0.1285  0.2838 -0.0236
15984TIP3    H169367   5.555   0.455   1.515  0.8525 -1.1957  0.6038
15984TIP3    H269368   5.601   0.559   1.416 -0.1942  1.1746  2.5033
15985TIP3   OH269369   4.236   4.714  15.181  0.4130  0.6096 -0.0129
15985TIP3    H169370   4.218   4.735  15.089  0.6309 -3.3093 -1.1355
15985TIP3    H269371   4.166   4.757  15.230 -1.0917  0.9174 -2.2695
15986TIP3   OH269372   5.381   4.015  13.586  0.2741 -0.1257  0.0505
15986TIP3    H169373   5.324   4.089  13.564  0.4250  0.4540  1.4677
15986TIP3    H269374   5.466   4.055  13.603  0.2145 -0.5299  1.4078
15987TIP3   OH269375   2.821   5.367  12.360  0.1845 -0.0803 -0.3778
15987TIP3    H169376   2.898   5.417  12.332  0.5976  0.4719  1.5392
15987TIP3    H269377   2.808   5.393  12.452 -1.0952 -1.6515 -0.0632
15988TIP3   OH269378   5.452   6.030  11.188  0.0086  0.5018 -0.3088
15988TIP3    H169379   5.439   5.938  11.164 -1.2521  1.2376 -2.6794
15988TIP3    H269380   5.511   6.026  11.264  0.4045 -2.2193 -0.6507
15989TIP3   OH269381   4.146   2.317  12.202 -0.3030 -0.5134  0.2567
15989TIP3    H169382   4.154   2.346  12.293 -0.2583 -0.8480  0.3602
15989TIP3    H269383   4.215   2.365  12.156  0.2280 -0.9716  0.5568
15990TIP3   OH269384   3.482   2.129   5.556 -0.0151  0.2533 -0.2920
15990TIP3    H169385   3.476   2.204   5.615  1.0696 -0.6206  0.9754
15990TIP3    H269386   3.574   2.103   5.559  0.5162  1.2088 -3.7515
15991TIP3   OH269387   2.991   6.153   5.484 -0.1688  0.1517  0.4803
15991TIP3    H169388   3.077   6.184   5.454  0.0108 -1.0382 -0.3111
15991TIP3    H269389   3.007   6.124   5.574  0.5283 -1.0123  0.0062
15992TIP3   OH269390   1.839   0.770  15.870 -0.2258  0.0953 -0.3043
15992TIP3    H169391   1.912   0.826  15.842  0.7385 -1.9233 -2.1611
15992TIP3    H269392   1.792   0.752  15.788 -0.9291 -1.1959  0.3714
15993TIP3   OH269393   4.618   2.238  14.002  0.1552  0.7233  0.3048
15993TIP3    H169394   4.712   2.228  13.984 -0.1017 -0.0887 -0.6982
15993TIP3    H269395   4.581   2.270  13.920 -0.3731  1.6430  0.8840
15994TIP3   OH269396   4.290   3.982  10.983  0.1404 -0.5211  0.4903
15994TIP3    H169397   4.322   3.893  10.974 -0.4848 -0.5877 -1.9145
15994TIP3    H269398   4.367   4.037  10.968  0.2376 -0.6520  0.5094
15995TIP3   OH269399   2.814   5.340  13.657  0.2727  0.2068 -0.1659
15995TIP3    H169400   2.873   5.267  13.637 -1.6695 -1.4189 -0.3179
15995TIP3    H269401   2.829   5.357  13.750 -0.1017 -1.2783  0.2011
15996TIP3   OH269402   3.184   2.843   3.202 -0.1347 -0.0776 -0.3876
15996TIP3    H169403   3.157   2.818   3.114  1.0324 -0.8294 -0.5486
15996TIP3    H269404   3.214   2.934   3.193  0.3518 -0.2794 -0.8481
15997TIP3   OH269405   1.334   3.481  11.643  0.0292 -0.2309 -0.4492
15997TIP3    H169406   1.360   3.565  11.681 -0.7654 -0.2155  0.0776
15997TIP3    H269407   1.403   3.461  11.579  0.2580  0.7845 -0.5344
15998TIP3   OH269408   2.243   3.846   2.530 -0.0508 -0.4421  0.0300
15998TIP3    H169409   2.276   3.889   2.608  2.0482  1.6623 -1.8669
15998TIP3    H269410   2.162   3.804   2.558  0.0186  1.1867  3.0326
15999TIP3   OH269411   6.304   2.203  13.468  0.0403  0.0333 -0.0186
15999TIP3    H169412   6.299   2.247  13.382  0.6585  0.9158  0.3778
15999TIP3    H269413   6.268   2.267  13.529  2.6334  0.7910  0.8373
16000TIP3   OH269414   6.733   3.870   0.499  0.3318  0.3583 -0.0780
16000TIP3    H169415   6.816   3.917   0.513 -0.8943  2.4710  0.4935
16000TIP3    H269416   6.709   3.838   0.586  1.9287 -2.8468 -0.6965
16001TIP3   OH269417   5.349   1.097  15.792 -0.1166 -0.2875 -0.3327
16001TIP3    H169418   5.330   1.004  15.777  0.4806 -0.2462 -1.4592
16001TIP3    H269419   5.392   1.100  15.877  0.2849 -1.1077 -0.4994
16002TIP3   OH269420   4.125   2.708   4.798  0.2573  0.1966 -0.3591
16002TIP3    H169421   4.082   2.650   4.735  0.1665 -0.5230  0.3464
16002TIP3    H269422   4.207   2.733   4.756  0.2206 -0.3140 -0.7373
16003TIP3   OH269423   5.656   4.691  11.602 -0.3642  0.0751  0.1072
16003TIP3    H169424   5.591   4.758  11.583 -0.5287 -0.2556 -0.5430
16003TIP3    H269425   5.701   4.721  11.681 -1.0599  0.4873  0.3479
16004TIP3   OH269426   4.262   4.200   4.622 -0.1409 -0.0940 -0.3344
16004TIP3    H169427   4.294   4.150   4.547  1.1219  0.5952 -0.2867
16004TIP3    H269428   4.327   4.185   4.691 -0.8006  0.0194  0.3267
16005TIP3   OH269429   5.141   1.955  12.099  0.0629  0.2216  0.1707
16005TIP3    H169430   5.223   1.914  12.128 -1.0376 -2.7006 -0.5541
16005TIP3    H269431   5.169   2.038  12.059  2.3782  0.4800  2.1208
16006TIP3   OH269432   6.575   4.703  15.253 -0.6480  0.3816 -0.4166
16006TIP3    H169433   6.501   4.665  15.207 -1.1751  1.1950 -0.2783
16006TIP3    H269434   6.630   4.740  15.185  2.4633 -4.6748 -1.0961
16007TIP3   OH269435   2.261   5.674  12.223  0.1289  0.2691  0.0943
16007TIP3    H169436   2.173   5.697  12.192 -0.2832 -0.3313  0.7928
16007TIP3    H269437   2.311   5.660  12.142 -0.6727 -0.3342 -0.3208
16008TIP3   OH269438   1.688   5.189   6.312  0.0468 -0.3320 -0.1039
16008TIP3    H169439   1.735   5.150   6.238 -1.9128  1.1457 -2.2514
16008TIP3    H269440   1.742   5.263   6.339  0.7472 -0.8502 -0.0662
16009TIP3   OH269441   5.457   6.225   5.956  0.0403  0.8178 -0.8521
16009TIP3    H169442   5.522   6.268   6.013 -0.3943  0.8979 -0.4175
16009TIP3    H269443   5.497   6.141   5.933  0.6703  1.2254 -1.2775
16010TIP3   OH269444   1.569   4.336   2.650 -0.2209 -0.0407 -0.1459
16010TIP3    H169445   1.580   4.379   2.735 -0.4351  0.3618 -0.3192
16010TIP3    H269446   1.520   4.399   2.598 -4.2057 -1.9849  0.8338
16011TIP3   OH269447   3.675   0.700   3.957 -0.0676 -0.0983 -0.1244
16011TIP3    H169448   3.659   0.611   3.925  1.0320 -0.0684 -0.7995
16011TIP3    H269449   3.759   0.725   3.919 -0.0473  0.9941  0.5811
16012TIP3   OH269450   3.375   5.018   6.519  0.1642  0.0774 -0.0369
16012TIP3    H169451   3.401   5.110   6.520 -0.8767  0.4933 -2.7527
16012TIP3    H269452   3.280   5.020   6.521  0.0669 -0.8116 -1.8078
16013TIP3   OH269453   4.544   0.292   0.794  0.0594 -0.3585 -0.2144
16013TIP3    H169454   4.615   0.281   0.729  2.5466 -0.0504  2.2669
16013TIP3    H269455   4.482   0.351   0.752  1.6599  0.0002 -2.2469
16014TIP3   OH269456   3.959   6.009   4.192  0.3514 -0.3576 -0.1166
16014TIP3    H169457   3.918   6.043   4.272 -1.5498  1.3109 -1.6995
16014TIP3    H269458   4.048   6.045   4.194  0.7771 -1.3872  1.8180
16015TIP3   OH269459   1.261   5.942  16.632  0.4412  0.0842  0.2720
16015TIP3    H169460   1.297   6.018  16.587  0.0991 -0.4249 -0.8873
16015TIP3    H269461   1.297   5.948  16.721  1.4534  0.8787 -0.1698
16016TIP3   OH269462   2.116   4.883  16.723 -0.4814 -0.6700 -0.0346
16016TIP3    H169463   2.078   4.920  16.644  0.4069 -0.6720 -0.4764
16016TIP3    H269464   2.206   4.917  16.725 -0.0392 -1.7982  0.2075
16017TIP3   OH269465   1.132   4.620   1.614  0.1260  0.1622 -0.1664
16017TIP3    H169466   1.180   4.681   1.670 -0.0243 -0.4259  0.6146
16017TIP3    H269467   1.158   4.644   1.525 -0.8148  2.1137  0.0322
16018TIP3   OH269468   1.357   1.429  15.852 -0.6718  0.5415  0.2999
16018TIP3    H169469   1.359   1.335  15.871 -1.3662  0.4938  0.1697
16018TIP3    H269470   1.447   1.458  15.866 -0.5065 -0.0920  0.5963
16019TIP3   OH269471   5.510   2.175  14.682  0.4280  0.4072  0.6799
16019TIP3    H169472   5.516   2.206  14.591  2.2311  0.0616  0.6437
16019TIP3    H269473   5.508   2.255  14.734 -0.8803  0.6126  0.3378
16020TIP3   OH269474   5.086   0.268   5.674 -0.4378 -0.1040 -0.5297
16020TIP3    H169475   5.104   0.184   5.631 -0.3031  0.3408 -1.3681
16020TIP3    H269476   5.064   0.327   5.602  2.0221  1.2760 -0.2324
16021TIP3   OH269477   3.936   3.204  11.525 -0.7470  0.5795 -0.3197
16021TIP3    H169478   3.873   3.147  11.480 -0.7557 -0.2030  0.6602
16021TIP3    H269479   3.945   3.166  11.612  1.1623  0.6297 -0.4562
16022TIP3   OH269480   1.731   4.564   6.063 -0.8163 -0.2940 -0.0623
16022TIP3    H169481   1.700   4.608   6.142 -1.0914 -1.4933  0.5171
16022TIP3    H269482   1.807   4.514   6.091 -0.1822  0.2115 -0.8277
16023TIP3   OH269483   5.018   6.393   5.182 -0.5971  0.8566 -0.1039
16023TIP3    H169484   4.960   6.405   5.257  1.5610  0.5246  1.7057
16023TIP3    H269485   4.978   6.321   5.133 -1.7494  0.6878  1.0252
16024TIP3   OH269486   3.998   4.702  16.744  0.7636 -0.0434  0.2647
16024TIP3    H169487   4.038   4.616  16.754 -0.5682 -0.5918  1.2207
16024TIP3    H269488   4.004   4.721  16.651  0.2135 -1.6220 -0.1152
16025TIP3   OH269489   1.479   3.080   4.041  0.0365  0.2844  0.2720
16025TIP3    H169490   1.489   3.002   4.097  1.1090 -0.9657 -1.5371
16025TIP3    H269491   1.568   3.113   4.030 -0.4220  1.8844  1.1092
16026TIP3   OH269492   0.694   4.370   6.413 -0.2357  0.0583  0.4550
16026TIP3    H169493   0.718   4.409   6.330  0.3814  0.0011  0.6064
16026TIP3    H269494   0.610   4.327   6.396 -0.4599  0.6412  0.0496
16027TIP3   OH269495   2.949   2.892  11.550 -0.3557  0.3470  0.0198
16027TIP3    H169496   2.913   2.979  11.569  1.5329  0.7049  2.5364
16027TIP3    H269497   3.034   2.891  11.594  0.1391 -2.4513 -0.7726
16028TIP3   OH269498   2.770   4.418  13.395 -0.2184  0.2969 -0.3537
16028TIP3    H169499   2.731   4.348  13.343 -2.3505 -0.4491  2.0857
16028TIP3    H269500   2.717   4.422  13.475  1.2907  3.1213  0.6479
16029TIP3   OH269501   4.508   1.411   1.499 -1.0396 -0.2690  0.0091
16029TIP3    H169502   4.467   1.487   1.456 -1.6750 -1.4790 -1.6359
16029TIP3    H269503   4.484   1.421   1.591 -0.5892  1.8391 -0.0405
16030TIP3   OH269504   3.491   4.634  11.829 -0.5691  0.0842  0.4719
16030TIP3    H169505   3.435   4.712  11.834 -0.6842  0.1654 -1.2776
16030TIP3    H269506   3.551   4.653  11.757 -0.6175 -1.4607 -0.0082
16031TIP3   OH269507   1.309   4.818   1.697  0.1930  0.5512  0.2437
16031TIP3    H169508   1.346   4.859   1.619  0.9129  0.9038  0.7629
16031TIP3    H269509   1.331   4.878   1.768  0.4578 -0.2805  0.8791
16032TIP3   OH269510   0.483   2.631   4.560 -0.5089  0.0902  0.3946
16032TIP3    H169511   0.499   2.702   4.498 -0.2285 -1.7108 -1.7148
16032TIP3    H269512   0.568   2.615   4.601 -0.1644 -0.1287 -0.3856
16033TIP3   OH269513   1.068   3.410   0.634 -0.5679  0.0125  0.0591
16033TIP3    H169514   1.022   3.408   0.549  0.2250 -0.5211 -0.3659
16033TIP3    H269515   1.060   3.501   0.662 -1.5733  0.0168 -0.1746
16034TIP3   OH269516   3.648   5.451   6.109 -0.5049 -0.2971  0.2338
16034TIP3    H169517   3.583   5.389   6.076 -1.1953  1.9274 -3.0695
16034TIP3    H269518   3.595   5.519   6.151  0.1151 -0.8925  2.0720
16035TIP3   OH269519   2.560   4.598   0.319 -0.3193 -0.0790  0.0686
16035TIP3    H169520   2.551   4.668   0.385 -0.5400 -0.7365  0.7481
16035TIP3    H269521   2.655   4.584   0.313 -0.3059 -0.1264  0.3659
16036TIP3   OH269522   1.912   0.053  15.487 -0.2630  0.2161  0.2248
16036TIP3    H169523   1.996   0.032  15.446  0.0256  0.3934  0.7201
16036TIP3    H269524   1.935   0.083  15.575 -0.6727  2.2223 -0.2899
16037TIP3   OH269525   1.872   4.484  12.393  0.2891  0.0031  0.2856
16037TIP3    H169526   1.792   4.435  12.372  0.7563  0.0312 -1.8254
16037TIP3    H269527   1.925   4.478  12.313  2.2764  0.2445  1.5256
16038TIP3   OH269528   5.069   6.269  10.880 -0.1391 -0.7139 -0.3247
16038TIP3    H169529   4.983   6.304  10.903 -0.0246 -0.3624 -0.4157
16038TIP3    H269530   5.128   6.345  10.887  0.2031 -1.0032 -0.0311
16039TIP3   OH269531   3.070   6.460   5.896 -0.0374  0.1676  0.1569
16039TIP3    H169532   3.049   6.549   5.868  0.6360  0.2350 -0.1658
16039TIP3    H269533   3.049   6.458   5.989 -1.6787  0.1501 -0.1833
16040TIP3   OH269534   5.067   1.067  12.768 -0.6181 -0.0779 -0.6226
16040TIP3    H169535   5.022   1.130  12.712  0.0756 -0.4327 -1.5915
16040TIP3    H269536   5.072   1.110  12.853 -2.6311  0.0576 -0.5031
16041TIP3   OH269537   4.397   0.536   2.177 -0.2723  0.2287  0.3320
16041TIP3    H169538   4.402   0.440   2.170 -1.1165  0.2621 -0.9979
16041TIP3    H269539   4.488   0.565   2.167 -0.1930 -0.3531 -0.7363
16042TIP3   OH269540   0.315   4.143   5.958  0.3644  0.5640 -0.9447
16042TIP3    H169541   0.366   4.122   6.036 -0.4855  0.6302 -0.3719
16042TIP3    H269542   0.341   4.076   5.894 -1.3450 -1.5245  0.4392
16043TIP3   OH269543   3.568   5.231  12.800  0.3807  0.7931 -0.0278
16043TIP3    H169544   3.512   5.226  12.723 -1.0707 -0.3385  1.0358
16043TIP3    H269545   3.649   5.186  12.774  0.3094  1.2966 -1.1730
16044TIP3   OH269546   2.400   1.645  13.653  0.6186 -0.2299  0.5575
16044TIP3    H169547   2.484   1.680  13.623  1.1846 -1.2676  0.8802
16044TIP3    H269548   2.387   1.685  13.739  0.1094  0.9657 -0.0451
16045TIP3   OH269549   1.699   0.083   2.578 -0.0554 -0.3563  0.0999
16045TIP3    H169550   1.729  -0.006   2.560  0.2239 -0.1918 -0.2513
16045TIP3    H269551   1.670   0.080   2.669  1.3941 -0.4284  0.5803
16046TIP3   OH269552   3.380   1.386  11.284  0.5657  0.2617 -0.2103
16046TIP3    H169553   3.412   1.307  11.328  1.0355  0.8167  0.4518
16046TIP3    H269554   3.333   1.434  11.351  1.1429  1.0338 -0.3555
16047TIP3   OH269555   2.426   5.106   6.141 -0.3493  0.2722 -0.4857
16047TIP3    H169556   2.483   5.042   6.184  0.2330  0.9043 -0.3018
16047TIP3    H269557   2.392   5.159   6.213 -0.1465  0.7131 -0.7125
16048TIP3   OH269558   1.859   0.847  13.801  0.7902  0.1081 -0.2737
16048TIP3    H169559   1.953   0.861  13.806  0.8381 -0.1765 -0.3908
16048TIP3    H269560   1.840   0.841  13.707  0.7185 -0.2414 -0.2408
16049TIP3   OH269561   6.660   1.024   1.569 -0.1532  0.1466 -0.3345
16049TIP3    H169562   6.649   1.047   1.477 -2.0823 -0.7870 -0.4010
16049TIP3    H269563   6.735   0.965   1.571  0.4819  0.9175 -1.1528
16050TIP3   OH269564   4.470   1.686  10.389  0.4094 -0.8024  0.1191
16050TIP3    H169565   4.499   1.777  10.386  0.1886 -0.7453 -2.1627
16050TIP3    H269566   4.546   1.636  10.359  0.3770 -1.3389  0.9056
16051TIP3   OH269567   6.779   2.274   0.232  0.1929 -0.4338  0.4356
16051TIP3    H169568   6.705   2.255   0.289  0.8858 -0.7802  1.2412
16051TIP3    H269569   6.740   2.298   0.148 -0.9019  1.7401  1.5078
16052TIP3   OH269570   2.222   6.719   0.546  0.0388 -0.3562  0.2185
16052TIP3    H169571   2.132   6.751   0.542  0.0237 -0.4699 -0.3890
16052TIP3    H269572   2.250   6.739   0.635 -0.0903  1.0122 -0.0269
16053TIP3   OH269573   4.292   0.052   1.938  0.1218 -0.1395  0.4890
16053TIP3    H169574   4.243   0.083   1.862 -0.3117  0.0866  0.8560
16053TIP3    H269575   4.369   0.010   1.901  1.1949  2.1232 -0.0050
16054TIP3   OH269576   3.569   2.956   4.294 -0.0229  0.1664  0.4238
16054TIP3    H169577   3.568   2.919   4.206  1.0422 -1.0437  0.8894
16054TIP3    H269578   3.592   2.882   4.351 -0.0516  1.0663  1.6440
16055TIP3   OH269579   1.101   5.458   3.842 -0.2874  0.0554  0.3122
16055TIP3    H169580   1.148   5.380   3.870 -0.6022 -0.3443 -0.2557
16055TIP3    H269581   1.032   5.469   3.907 -1.6699 -1.4717 -0.8255
16056TIP3   OH269582   5.298   5.164  15.376 -0.2071  0.3086 -0.1698
16056TIP3    H169583   5.300   5.075  15.413 -0.4938  1.0409  1.7468
16056TIP3    H269584   5.317   5.152  15.283  0.3095 -1.7018  0.1453
16057TIP3   OH269585   4.366   0.617  14.560  0.2247  0.1463 -0.3084
16057TIP3    H169586   4.389   0.524  14.554  0.5030  0.1865  0.0887
16057TIP3    H269587   4.309   0.623  14.637 -2.1412 -0.1385 -1.9316
16058TIP3   OH269588   4.928   0.070   4.793 -0.4759 -0.1116 -0.3160
16058TIP3    H169589   4.887   0.027   4.869 -0.1190  0.1829  0.0512
16058TIP3    H269590   4.940  -0.001   4.729  0.9775 -0.7818  0.6420
16059TIP3   OH269591   4.855   0.170  13.041 -0.2748 -0.2183 -0.5264
16059TIP3    H169592   4.813   0.203  13.121 -1.3315  0.1273 -1.1945
16059TIP3    H269593   4.924   0.233  13.023 -0.0693 -0.2638  0.0796
16060TIP3   OH269594   0.540   1.011  16.640  0.1746 -0.7714  0.5389
16060TIP3    H169595   0.568   1.000  16.549 -0.9966  0.3233  0.0042
16060TIP3    H269596   0.576   0.936  16.686  1.2211 -1.0847 -0.7267
16061TIP3   OH269597   3.749   5.591  16.490 -0.1434  0.2173  0.4136
16061TIP3    H169598   3.695   5.620  16.564 -1.6299  1.0629 -0.9495
16061TIP3    H269599   3.706   5.512  16.459 -1.7323  1.8035 -1.7340
16062TIP3   OH269600   5.235   0.111  11.921  0.0213  0.0883 -0.2245
16062TIP3    H169601   5.183   0.140  11.846 -1.7544 -0.2464  0.8461
16062TIP3    H269602   5.181   0.046  11.966  2.0636 -1.5778  0.0014
16063TIP3   OH269603   1.709   1.529  15.409  0.1909  0.3289  0.2401
16063TIP3    H169604   1.707   1.622  15.430  0.6329  0.3949  0.0048
16063TIP3    H269605   1.646   1.489  15.469 -1.9694  1.1115 -1.3681
16064TIP3   OH269606   1.278   4.103   5.224  0.1810  0.0039 -0.0207
16064TIP3    H169607   1.281   4.198   5.220  1.0602 -0.0050  0.1529
16064TIP3    H269608   1.341   4.074   5.157 -0.2454 -0.4595 -0.2293
16065TIP3   OH269609   3.286   3.984   3.617 -0.4930  0.0085  0.2046
16065TIP3    H169610   3.294   4.019   3.528  1.5672 -0.5761  0.1045
16065TIP3    H269611   3.235   4.050   3.664  0.5989  1.6151 -0.7602
16066TIP3   OH269612   0.871   2.117  11.092 -0.0759  0.2103 -0.7884
16066TIP3    H169613   0.896   2.064  11.016  0.5903 -0.4059 -0.1470
16066TIP3    H269614   0.883   2.060  11.167  0.8380  1.3203 -0.0548
16067TIP3   OH269615   6.062   1.726   3.973  0.0513  0.5185 -0.0095
16067TIP3    H169616   6.003   1.798   3.995  0.2830  0.8357 -0.4065
16067TIP3    H269617   6.014   1.647   3.999 -0.8097  0.7303 -0.8782
16068TIP3   OH269618   5.030   4.152  12.407 -0.0907  0.3112 -0.5887
16068TIP3    H169619   5.032   4.133  12.501 -0.5693  0.2044 -0.6002
16068TIP3    H269620   4.942   4.129  12.379  0.3259 -0.5598 -1.2496
16069TIP3   OH269621   2.715   2.372   5.776  0.5160  0.2700  0.8406
16069TIP3    H169622   2.694   2.289   5.732 -3.1481  1.2685  0.4001
16069TIP3    H269623   2.722   2.436   5.705  0.2665  0.8512  1.3311
16070TIP3   OH269624   3.282   4.450   1.273 -0.2893  0.0716  0.3992
16070TIP3    H169625   3.269   4.524   1.214  0.7207  1.0770  1.3765
16070TIP3    H269626   3.210   4.455   1.335 -1.2010 -0.8278 -0.5472
16071TIP3   OH269627   5.129   6.789   0.695 -0.0024 -0.1253 -0.3540
16071TIP3    H169628   5.047   6.762   0.655  0.0949  0.1753 -0.7652
16071TIP3    H269629   5.173   6.842   0.628  1.0409 -1.1979 -0.5580
16072TIP3   OH269630   2.951   5.386   3.378 -0.2004 -0.3443  0.2178
16072TIP3    H169631   2.867   5.400   3.421 -0.2040 -0.0706  0.1241
16072TIP3    H269632   3.013   5.373   3.450 -0.2328 -0.0370  0.3047
16073TIP3   OH269633   3.088   6.023  13.814 -0.3048 -0.1826  0.2447
16073TIP3    H169634   2.995   6.011  13.833 -1.2002  0.4132 -3.0651
16073TIP3    H269635   3.101   5.979  13.730  1.8283  1.7110 -0.5159
16074TIP3   OH269636   2.385   0.302  15.214 -0.2106 -0.7727  0.3793
16074TIP3    H169637   2.475   0.278  15.235  0.1945 -2.1059 -2.3649
16074TIP3    H269638   2.336   0.220  15.223 -0.9596 -0.2960  0.8059
16075TIP3   OH269639   1.524   4.709   2.536  0.5380 -0.5381  0.1592
16075TIP3    H169640   1.498   4.800   2.521 -0.5801 -1.0414 -1.2706
16075TIP3    H269641   1.562   4.708   2.624  0.1197  1.2133  0.3857
16076TIP3   OH269642   5.959   5.786  10.932 -0.5954  0.2504  0.0589
16076TIP3    H169643   5.895   5.832  10.985  0.6122 -0.4845  2.3003
16076TIP3    H269644   6.036   5.843  10.933 -0.8677  0.7191 -1.8719
16077TIP3   OH269645   1.771   5.825  15.740  0.6235 -0.0093 -0.1807
16077TIP3    H169646   1.680   5.798  15.755  1.0667 -1.0272  0.9086
16077TIP3    H269647   1.773   5.918  15.763 -0.4385  0.4018 -1.6425
16078TIP3   OH269648   3.620   1.285  14.982  0.4381 -0.5170 -0.2857
16078TIP3    H169649   3.621   1.324  14.894  0.6430 -0.3291 -0.2029
16078TIP3    H269650   3.609   1.192  14.967 -0.1705 -0.4135 -0.4822
16079TIP3   OH269651   4.601   2.679   0.401 -0.7465  0.0018  0.5955
16079TIP3    H169652   4.576   2.765   0.434  0.4976  0.7180 -0.2667
16079TIP3    H269653   4.574   2.680   0.309  0.4543 -0.0221  0.2298
16080TIP3   OH269654   0.798   2.959  16.518  0.1451  0.0101  0.8044
16080TIP3    H169655   0.873   2.921  16.473 -1.4251 -2.5622  0.1405
16080TIP3    H269656   0.833   2.990  16.601  1.9871 -0.9410  0.4438
16081TIP3   OH269657   1.687   2.662  16.792  0.4927 -0.2571 -0.0024
16081TIP3    H169658   1.738   2.715  16.853  0.3033 -0.1780  0.0905
16081TIP3    H269659   1.660   2.723  16.724  0.5366 -0.3017 -0.0597
16082TIP3   OH269660   1.363   4.197  12.217  0.3692 -0.5208 -0.1970
16082TIP3    H169661   1.392   4.116  12.260 -2.1882 -1.6975 -0.5428
16082TIP3    H269662   1.295   4.169  12.156  1.0903  1.6246 -2.1370
16083TIP3   OH269663   3.295   1.481   1.487 -0.1065  0.2025 -0.3453
16083TIP3    H169664   3.382   1.446   1.503  0.0155  0.7649  0.2353
16083TIP3    H269665   3.310   1.567   1.449 -0.4080  0.3089 -0.2271
16084TIP3   OH269666   5.765   0.215  13.979 -0.1314 -0.0909  0.4675
16084TIP3    H169667   5.738   0.293  14.027  0.6436 -1.7968  4.0230
16084TIP3    H269668   5.684   0.179  13.945 -0.9235  0.5606  1.5948
16085TIP3   OH269669   3.101   0.226  14.838 -0.0974  0.4395 -0.0291
16085TIP3    H169670   3.036   0.178  14.785  2.0676 -2.6765 -0.1274
16085TIP3    H269671   3.159   0.267  14.773 -0.0919  0.4778  0.0003
16086TIP3   OH269672   3.445   3.406  13.697  0.2930  0.1367 -0.0434
16086TIP3    H169673   3.537   3.423  13.675  0.4805 -0.3175  0.3614
16086TIP3    H269674   3.416   3.485  13.741 -0.4735  1.6146 -2.9876
16087TIP3   OH269675   2.500   5.057   0.267  0.1799  0.0649 -0.9464
16087TIP3    H169676   2.545   5.063   0.351  0.9683  0.5715 -1.3859
16087TIP3    H269677   2.563   5.013   0.209  0.4055  1.3671 -1.7440
16088TIP3   OH269678   6.023   5.654   0.775 -0.2277  0.1832  0.4041
16088TIP3    H169679   6.034   5.741   0.813 -2.4451  1.0997 -0.8688
16088TIP3    H269680   5.968   5.668   0.699 -0.9907 -2.4080  0.3941
16089TIP3   OH269681   0.490   1.735   4.740  0.2484  0.3061 -0.3603
16089TIP3    H169682   0.557   1.759   4.677  0.7354 -0.6559 -0.2227
16089TIP3    H269683   0.532   1.671   4.798 -0.7467 -0.2550 -0.2181
16090TIP3   OH269684   0.468   5.306  10.518 -0.3932 -0.3359  0.1312
16090TIP3    H169685   0.526   5.264  10.581  2.4755  0.2632 -1.9190
16090TIP3    H269686   0.440   5.235  10.460 -0.5494 -0.4049  0.2918
16091TIP3   OH269687   1.998   1.839   3.852 -0.0152 -0.0087  0.1234
16091TIP3    H169688   1.963   1.888   3.927  0.3336  1.5317 -0.6658
16091TIP3    H269689   1.930   1.776   3.830 -0.3856 -0.0580  1.3339
16092TIP3   OH269690   4.699   3.585   1.518 -0.1103 -0.4381  0.2457
16092TIP3    H169691   4.732   3.666   1.479 -2.1941  1.3383  1.8948
16092TIP3    H269692   4.638   3.550   1.453  1.4156 -1.2419 -0.8328
16093TIP3   OH269693   1.477   5.800  12.211  0.0600 -0.1829  0.3499
16093TIP3    H169694   1.554   5.776  12.160 -0.0683 -0.2472  0.1839
16093TIP3    H269695   1.482   5.748  12.291 -1.2204 -2.2442 -0.8313
16094TIP3   OH269696   0.886   6.799  15.103 -0.1964 -0.9847  0.0716
16094TIP3    H169697   0.826   6.724  15.100 -1.3244 -0.0952 -0.4171
16094TIP3    H269698   0.854   6.853  15.175  0.8803 -1.1731  0.7072
16095TIP3   OH269699   0.496   4.720  13.098 -0.3609  0.0307  0.4847
16095TIP3    H169700   0.503   4.815  13.109 -0.2001  0.1694 -0.7153
16095TIP3    H269701   0.440   4.708  13.022  0.4417 -0.8111 -0.0009
16096TIP3   OH269702   2.853   1.320  14.531  0.6076  0.2634  1.0593
16096TIP3    H169703   2.833   1.335  14.438  0.3880 -0.3834  0.9993
16096TIP3    H269704   2.882   1.229  14.535 -1.3613 -0.3741  1.9201
16097TIP3   OH269705   1.801   1.120   0.878 -0.1144 -0.0677  0.2789
16097TIP3    H169706   1.829   1.164   0.798 -1.6316  1.1974  0.3819
16097TIP3    H269707   1.869   1.140   0.942  1.0897 -1.0515 -0.6522
16098TIP3   OH269708   4.677   4.545  10.771  0.3899  0.5884  0.0089
16098TIP3    H169709   4.735   4.496  10.829  0.1372  1.6160  1.1692
16098TIP3    H269710   4.715   4.534  10.684  1.1851 -0.3891  0.4624
16099TIP3   OH269711   0.488   3.577  15.695  0.4032  0.2689  0.4084
16099TIP3    H169712   0.572   3.617  15.671  1.1734 -1.6047 -0.2314
16099TIP3    H269713   0.482   3.591  15.790  1.3068  0.6708  0.4224
16100TIP3   OH269714   4.127   6.108   5.828 -0.9168 -0.0336 -0.4485
16100TIP3    H169715   4.135   6.016   5.802  2.1600 -0.1254  0.4349
16100TIP3    H269716   4.103   6.104   5.921 -1.0981  0.0675 -0.4907
16101TIP3   OH269717   6.718   1.223   3.086 -0.1172  0.3248 -0.3395
16101TIP3    H169718   6.698   1.309   3.049 -0.9998  0.3192  0.1006
16101TIP3    H269719   6.719   1.237   3.180  0.8007  0.0610 -0.2942
16102TIP3   OH269720   0.427   3.968  11.937  0.1008 -0.4094  0.5048
16102TIP3    H169721   0.516   3.976  11.904  0.4572  1.4987  1.7425
16102TIP3    H269722   0.409   4.053  11.978 -2.1402 -0.8922  0.6582
16103TIP3   OH269723   4.904   3.076   4.157 -0.5360  0.5043  0.9756
16103TIP3    H169724   4.979   3.113   4.110 -0.2261  1.7289  2.3664
16103TIP3    H269725   4.931   2.988   4.180  0.0975  0.5970  0.6152
16104TIP3   OH269726   4.602   3.873   5.835 -0.4915 -0.1856  0.1677
16104TIP3    H169727   4.527   3.814   5.836  0.4271 -1.4971 -1.7000
16104TIP3    H269728   4.677   3.815   5.849  0.2212  1.0952  2.0338
16105TIP3   OH269729   5.933   1.205  14.009 -0.5922  0.2193  0.3639
16105TIP3    H169730   5.922   1.191  14.103 -1.3387 -0.0850  0.2398
16105TIP3    H269731   5.848   1.182  13.972 -1.4918  3.6284 -0.0167
16106TIP3   OH269732   2.379   2.612   3.896 -0.2454  0.0591 -0.3882
16106TIP3    H169733   2.370   2.575   3.808 -0.1159  0.5125 -0.5927
16106TIP3    H269734   2.305   2.576   3.945 -0.2043 -0.3544 -0.6272
16107TIP3   OH269735   4.692   0.035   0.780  0.3302 -0.2407  0.3901
16107TIP3    H169736   4.767   0.093   0.796 -0.8088  1.2387  0.5211
16107TIP3    H269737   4.673  -0.003   0.866  2.7270 -3.0061 -0.1280
16108TIP3   OH269738   4.049   2.934   2.696  0.1207  0.0964  0.1919
16108TIP3    H169739   4.031   2.845   2.726  1.9925 -0.8801 -1.3592
16108TIP3    H269740   4.099   2.974   2.766  0.5647 -0.5936  0.2747
16109TIP3   OH269741   2.227   2.266  11.108 -0.3414 -0.1033 -0.4188
16109TIP3    H169742   2.162   2.224  11.164 -0.8075 -0.8337 -1.4667
16109TIP3    H269743   2.178   2.332  11.059  0.2036  1.0276  0.5364
16110TIP3   OH269744   4.811   5.213   0.226  0.4514  0.8007  0.1551
16110TIP3    H169745   4.770   5.214   0.313 -0.2097  2.2952 -0.1430
16110TIP3    H269746   4.775   5.135   0.184  1.1808 -0.2430  1.3772
16111TIP3   OH269747   4.375   4.779   3.539 -0.4910 -0.3060 -0.3920
16111TIP3    H169748   4.316   4.718   3.494 -1.2624 -0.0482  0.2425
16111TIP3    H269749   4.325   4.809   3.615  1.1006 -1.4324  1.1840
16112TIP3   OH269750   5.961   0.410  14.304 -0.8113 -0.1042 -0.0233
16112TIP3    H169751   6.030   0.346  14.321 -0.0451  1.0621  1.4454
16112TIP3    H269752   6.004   0.495  14.313 -1.7696  0.6793 -2.0234
16113TIP3   OH269753   3.317   6.678  14.288  0.1613  0.0316 -0.2677
16113TIP3    H169754   3.325   6.610  14.222  1.2925 -0.0055 -0.1058
16113TIP3    H269755   3.405   6.687  14.325 -0.6362 -0.6609  1.9495
16114TIP3   OH269756   1.596   1.822   1.334 -0.3603 -0.0776  0.0959
16114TIP3    H169757   1.641   1.749   1.377  0.3159 -0.1338 -0.6945
16114TIP3    H269758   1.629   1.821   1.244 -0.1169  1.3796  0.1506
16115TIP3   OH269759   0.063   1.457  14.701 -0.4572 -0.7062 -0.0919
16115TIP3    H169760   0.111   1.385  14.661 -0.5538 -0.8119 -0.0151
16115TIP3    H269761   0.081   1.448  14.795 -0.1638 -0.4113 -0.1165
16116TIP3   OH269762   3.957   0.135  13.001 -0.3442  0.6028  0.3835
16116TIP3    H169763   3.960   0.049  13.042 -0.0524 -0.3486 -1.5056
16116TIP3    H269764   3.864   0.152  12.988 -0.5320  1.4983  2.4664
16117TIP3   OH269765   3.125   6.097   0.635 -0.1042  0.0589  0.0891
16117TIP3    H169766   3.031   6.107   0.616  0.2571  1.2069 -1.2731
16117TIP3    H269767   3.163   6.182   0.616  1.3016 -0.5235  0.1431
16118TIP3   OH269768   4.615   1.232  13.744 -0.2197  0.3404 -0.1076
16118TIP3    H169769   4.652   1.220  13.656  0.0110 -2.2111  0.2547
16118TIP3    H269770   4.657   1.163  13.797 -2.7233 -0.2841  1.2149
16119TIP3   OH269771   4.661   5.231   6.544  0.0971  0.2572  0.0522
16119TIP3    H169772   4.612   5.304   6.504 -2.5762 -1.4580  0.0007
16119TIP3    H269773   4.749   5.239   6.506 -0.3935  2.7941 -0.7774
16120TIP3   OH269774   3.097   2.603  16.289 -0.0114 -0.7475 -0.1004
16120TIP3    H169775   3.031   2.537  16.308 -0.7092 -0.1501 -0.4050
16120TIP3    H269776   3.153   2.605  16.367  0.6524 -2.4034 -0.4765
16121TIP3   OH269777   5.231   4.875   1.668  0.0134  0.2288  0.7088
16121TIP3    H169778   5.254   4.965   1.692 -0.5589  1.1204 -1.7783
16121TIP3    H269779   5.137   4.870   1.681 -0.3115  0.7324 -1.0747
16122TIP3   OH269780   2.144   1.731   2.079 -0.2834 -0.4195  0.7067
16122TIP3    H169781   2.216   1.791   2.057 -0.3576 -0.8485 -0.8240
16122TIP3    H269782   2.090   1.780   2.141  0.1139  0.7805  0.1384
16123TIP3   OH269783   6.618   3.612   1.004  0.5978  0.3849  0.6804
16123TIP3    H169784   6.535   3.622   1.050  1.0736 -1.3994  2.0360
16123TIP3    H269785   6.670   3.687   1.032  0.3956  0.0496  2.0073
16124TIP3   OH269786   3.109   2.342   5.236  0.0754  0.1969 -0.4764
16124TIP3    H169787   3.189   2.350   5.287 -0.2815  1.9370 -0.1333
16124TIP3    H269788   3.121   2.261   5.185  1.1189 -0.7114  1.1295
16125TIP3   OH269789   0.361   0.258   1.949  0.3832  0.1920 -0.7901
16125TIP3    H169790   0.314   0.177   1.932 -1.5669  0.7621  1.3010
16125TIP3    H269791   0.440   0.252   1.895 -0.0931 -2.6810 -1.3445
16126TIP3   OH269792   0.752   3.227  11.500 -0.0968  0.0708  0.0931
16126TIP3    H169793   0.695   3.199  11.572  2.0168 -1.9126  1.1304
16126TIP3    H269794   0.702   3.211  11.421 -2.9250  3.2839  0.9999
16127TIP3   OH269795   4.880   2.151  12.670  0.2432 -0.3641  0.0888
16127TIP3    H169796   4.794   2.193  12.681 -1.4071 -3.5037  0.2524
16127TIP3    H269797   4.920   2.197  12.596 -1.9020  0.7262 -0.4833
16128TIP3   OH269798   3.828   0.416  16.808 -0.7901  0.9682  0.0902
16128TIP3    H169799   3.784   0.334  16.785  0.9962 -0.1410  0.4166
16128TIP3    H269800   3.835   0.414  16.903 -1.3239  1.8528  0.1637
16129TIP3   OH269801   0.808   3.371   3.891  0.0586  0.1322 -0.3723
16129TIP3    H169802   0.817   3.460   3.923  0.3753 -0.3325  0.8878
16129TIP3    H269803   0.715   3.352   3.897  0.0583  0.2049 -0.1515
16130TIP3   OH269804   6.007   0.150  16.668 -0.5555 -0.4006  0.3628
16130TIP3    H169805   6.062   0.132  16.744 -0.1067 -1.7125 -0.2397
16130TIP3    H269806   5.922   0.173  16.705 -0.2197 -0.5639  1.2678
16131TIP3   OH269807   6.394   0.777  12.662  0.2635  0.4043  0.0949
16131TIP3    H169808   6.403   0.716  12.735 -1.2383  0.0493  0.0054
16131TIP3    H269809   6.443   0.736  12.591  1.3290  0.5238  0.7234
16132TIP3   OH269810   2.787   1.325  15.321  0.0029  0.1395 -0.1722
16132TIP3    H169811   2.862   1.301  15.266 -0.3865 -1.7467  0.0640
16132TIP3    H269812   2.757   1.409  15.285  1.5172  0.3791 -0.9755
16133TIP3   OH269813   5.389   3.646  16.183  0.6309  0.0463  0.3868
16133TIP3    H169814   5.430   3.580  16.127 -0.8331 -0.4264 -0.1755
16133TIP3    H269815   5.296   3.623  16.184  0.5397  0.2759  2.7270
16134TIP3   OH269816   2.473   5.505   1.074  0.0984 -0.1664 -0.0920
16134TIP3    H169817   2.477   5.436   1.140 -0.8275 -0.5860 -0.4554
16134TIP3    H269818   2.523   5.577   1.112 -1.7322  0.1979  1.7867
16135TIP3   OH269819   1.792   1.975   3.416 -0.1806 -0.0512  0.0700
16135TIP3    H169820   1.799   1.925   3.334 -0.0033 -0.3929  0.2955
16135TIP3    H269821   1.720   1.933   3.463 -0.4801  0.3326 -0.0404
16136TIP3   OH269822   4.293   1.961   0.218 -0.3417  0.5501  0.0968
16136TIP3    H169823   4.212   1.945   0.266 -0.6257 -0.3574 -0.6492
16136TIP3    H269824   4.326   1.874   0.198  1.0768  0.9029  0.7818
16137TIP3   OH269825   4.548   0.668   5.851  0.1488 -0.0249  0.1338
16137TIP3    H169826   4.579   0.581   5.826  2.1486  0.6173  0.1231
16137TIP3    H269827   4.587   0.726   5.785 -1.3628  0.8679 -0.0173
16138TIP3   OH269828   0.682   4.456  14.437  0.2956  0.1704 -0.3059
16138TIP3    H169829   0.741   4.420  14.371  1.5764  1.0197  0.3072
16138TIP3    H269830   0.707   4.411  14.518 -0.1933  0.2388 -0.1154
16139TIP3   OH269831   3.673   3.876  15.196 -0.3964  0.1997  0.3989
16139TIP3    H169832   3.594   3.853  15.146 -0.2329  1.2345 -0.3794
16139TIP3    H269833   3.678   3.810  15.265 -2.3793  0.5746  0.9606
16140TIP3   OH269834   3.901   1.200   4.995  0.1761 -0.6220 -0.7316
16140TIP3    H169835   3.876   1.292   4.985 -1.8399 -0.9431  0.6592
16140TIP3    H269836   3.943   1.177   4.912 -1.1345  0.9981 -1.9091
16141TIP3   OH269837   3.489   5.129  12.237  0.3793 -0.1369  0.1739
16141TIP3    H169838   3.467   5.055  12.294 -0.7581  1.0826  1.4067
16141TIP3    H269839   3.411   5.141  12.182  0.7918 -0.2199 -0.4321
16142TIP3   OH269840   2.533   1.471  16.798 -0.1121  0.1638 -0.4003
16142TIP3    H169841   2.595   1.399  16.788  0.9509  0.9880  0.1777
16142TIP3    H269842   2.572   1.543  16.749 -1.2878  0.3078 -1.1791
16143TIP3   OH269843   2.165   0.514   3.681 -0.4029 -0.3398 -0.0005
16143TIP3    H169844   2.205   0.556   3.757 -0.7814  2.5845 -1.3145
16143TIP3    H269845   2.089   0.468   3.718  0.0694  0.0343  1.5366
16144TIP3   OH269846   1.080   3.947   0.761  0.0074 -0.2461 -0.3520
16144TIP3    H169847   1.083   3.948   0.665  2.5819  0.3790 -0.3442
16144TIP3    H269848   1.082   4.040   0.785 -0.5951 -0.4039  0.3161
16145TIP3   OH269849   6.016   0.369  11.990  0.3660  0.0765  0.4245
16145TIP3    H169850   6.022   0.464  11.990  0.4030  0.2414 -3.6521
16145TIP3    H269851   5.925   0.351  11.965  0.8731 -0.8542 -0.8560
16146TIP3   OH269852   5.414   1.074   4.852  0.2093  0.7952  0.8748
16146TIP3    H169853   5.494   1.123   4.831 -0.8765  1.8444 -1.0745
16146TIP3    H269854   5.354   1.140   4.887 -0.1087  0.1668  1.5513
16147TIP3   OH269855   0.186   1.963  11.139  0.0106  0.2823 -0.0402
16147TIP3    H169856   0.205   2.054  11.116 -0.9057  0.5837  0.3707
16147TIP3    H269857   0.257   1.937  11.198  1.7244 -0.1076 -2.1308
16148TIP3   OH269858   5.280   3.130   3.865  0.3117  0.4254  0.0396
16148TIP3    H169859   5.261   3.038   3.849  1.3772 -0.2093  2.0559
16148TIP3    H269860   5.301   3.166   3.779 -1.2176 -0.9020 -0.9569
16149TIP3   OH269861   3.158   2.416  12.179 -0.0749 -0.2329  0.5541
16149TIP3    H169862   3.181   2.365  12.256 -1.0066 -2.5982 -0.6532
16149TIP3    H269863   3.241   2.428  12.132  0.0425 -1.2959  0.4808
16150TIP3   OH269864   6.157   6.702   4.129 -0.1983  0.3264  0.4235
16150TIP3    H169865   6.240   6.750   4.126  1.2274 -2.0253 -1.7664
16150TIP3    H269866   6.179   6.620   4.172 -2.7319  1.5755  4.7366
16151TIP3   OH269867   0.636   0.348   5.178  0.5458 -0.0757 -0.2738
16151TIP3    H169868   0.617   0.409   5.107 -1.2123 -1.5567 -1.1571
16151TIP3    H269869   0.560   0.354   5.236  0.6802 -0.8985  0.0082
16152TIP3   OH269870   3.864   6.112   5.693 -0.4868  0.4153  0.0688
16152TIP3    H169871   3.950   6.114   5.735 -0.3085  0.0330 -0.2651
16152TIP3    H269872   3.876   6.053   5.618 -1.4276 -0.8587  0.8822
16153TIP3   OH269873   2.638   5.610   1.462  0.6775 -0.4918 -0.3329
16153TIP3    H169874   2.606   5.525   1.494 -1.3989 -0.1179 -1.2248
16153TIP3    H269875   2.705   5.587   1.398  1.4858 -1.3802  0.7896
16154TIP3   OH269876   1.171   2.943  12.984 -0.3604 -0.3291  0.3607
16154TIP3    H169877   1.256   2.979  12.958 -0.7859  1.6530  1.5409
16154TIP3    H269878   1.193   2.861  13.029  0.7783 -0.6351 -0.6909
16155TIP3   OH269879   4.463   5.381   1.962 -0.2750  0.2145 -0.1319
16155TIP3    H169880   4.387   5.360   2.016 -1.3753  0.3210 -1.5584
16155TIP3    H269881   4.527   5.418   2.023 -1.2969 -0.0410  1.1379
16156TIP3   OH269882   5.554   4.595  13.222 -0.0409  0.2968 -0.4060
16156TIP3    H169883   5.499   4.517  13.210 -2.8855  1.5824  2.7340
16156TIP3    H269884   5.531   4.653  13.149 -0.9283 -0.2167 -0.5484
16157TIP3   OH269885   1.030   4.306   5.411 -0.4067  0.3492  0.4014
16157TIP3    H169886   1.018   4.213   5.432  2.3667 -0.7405 -2.1474
16157TIP3    H269887   1.124   4.320   5.417 -0.8853  3.5122  2.2469
16158TIP3   OH269888   2.218   1.855   5.717 -0.0838 -0.2140 -0.4010
16158TIP3    H169889   2.136   1.854   5.667 -0.3954  1.7806  0.0083
16158TIP3    H269890   2.207   1.926   5.780  1.0302 -1.4665  1.2929
16159TIP3   OH269891   4.385   1.424  12.862 -0.2649 -0.0966  0.3069
16159TIP3    H169892   4.422   1.381  12.940  0.9105  0.3668  0.0174
16159TIP3    H269893   4.367   1.513  12.891 -0.1783 -0.0294  0.1516
16160TIP3   OH269894   3.369   6.722  15.497 -0.2160 -0.2769  0.3090
16160TIP3    H169895   3.335   6.660  15.562 -1.4338  0.4381  0.3972
16160TIP3    H269896   3.321   6.702  15.417  1.0455 -0.9368 -0.3052
16161TIP3   OH269897   5.847   1.277  15.061 -0.6074 -0.0566 -0.6822
16161TIP3    H169898   5.856   1.297  15.154 -0.3054  0.4138 -0.8089
16161TIP3    H269899   5.767   1.224  15.055 -0.2285 -0.7156 -0.0709
16162TIP3   OH269900   2.152   3.774   5.263  0.4728  0.0870  0.2596
16162TIP3    H169901   2.184   3.775   5.353 -0.3659 -0.0829  0.5690
16162TIP3    H269902   2.059   3.753   5.271  0.4597 -0.2359 -0.6683
16163TIP3   OH269903   1.641   0.854   1.608 -0.2612 -0.2391  0.4906
16163TIP3    H169904   1.547   0.867   1.594 -0.0456 -0.8807 -2.0768
16163TIP3    H269905   1.660   0.769   1.569  1.4848  0.1688  0.3699
16164TIP3   OH269906   1.482   5.596   5.978 -0.4442 -0.2355  0.4372
16164TIP3    H169907   1.476   5.656   5.904 -2.1631 -0.9808 -0.0932
16164TIP3    H269908   1.570   5.608   6.012  0.5192 -0.0829 -1.9119
16165TIP3   OH269909   2.900   3.309   2.775  0.2659 -0.4516  0.4782
16165TIP3    H169910   2.980   3.359   2.790 -0.6594  1.1712  0.3373
16165TIP3    H269911   2.864   3.293   2.863 -0.8357  1.6385  0.4819
16166TIP3   OH269912   5.365   2.963   5.360 -0.6552 -0.3058 -0.5371
16166TIP3    H169913   5.379   2.868   5.363 -0.8021 -0.3523 -1.1560
16166TIP3    H269914   5.404   2.996   5.441 -0.3227 -0.8598 -0.4675
16167TIP3   OH269915   4.368   2.688   3.862  0.5650  0.2479  0.2604
16167TIP3    H169916   4.448   2.698   3.913  0.1255  1.1754  0.7808
16167TIP3    H269917   4.367   2.596   3.836  1.0689 -0.1017  1.4551
16168TIP3   OH269918   2.660   2.274   1.785  0.4016 -0.0100 -0.1078
16168TIP3    H169919   2.628   2.327   1.858  0.5026 -1.2413  0.8687
16168TIP3    H269920   2.723   2.214   1.825 -1.3322 -2.3814 -0.7310
16169TIP3   OH269921   1.113   3.997   5.022 -0.4561  0.6061 -0.1133
16169TIP3    H169922   1.182   3.981   5.086 -0.6779 -2.5203 -0.4999
16169TIP3    H269923   1.124   3.928   4.956 -1.1350  2.7899 -2.7077
16170TIP3   OH269924   4.362   3.902   4.640 -0.6057  0.3197  0.5833
16170TIP3    H169925   4.284   3.911   4.695 -1.0577 -1.9586  0.4198
16170TIP3    H269926   4.431   3.874   4.700 -0.4404  0.3121  0.3913
16171TIP3   OH269927   4.856   2.032  11.150  0.5322 -0.4293  0.4224
16171TIP3    H169928   4.942   2.009  11.184  0.3235 -1.4363  0.3222
16171TIP3    H269929   4.865   2.122  11.119  1.9239 -0.9442 -0.8001
16172TIP3   OH269930   0.650   3.608  13.804 -0.1460  0.4079  0.1351
16172TIP3    H169931   0.693   3.683  13.844  1.3798  0.4752 -1.4983
16172TIP3    H269932   0.565   3.641  13.776 -0.0441  1.1399  0.6745
16173TIP3   OH269933   1.010   1.328  11.782 -0.4892 -0.3014  0.7269
16173TIP3    H169934   0.938   1.376  11.740  1.0986  3.8597  2.2920
16173TIP3    H269935   1.083   1.336  11.721 -0.1324 -0.6356  1.1079
16174TIP3   OH269936   0.762   1.896  16.925  0.0583  0.1018  0.4920
16174TIP3    H169937   0.811   1.924  16.847 -1.3830  0.1941 -0.4033
16174TIP3    H269938   0.749   1.802  16.912 -2.2510  0.5047 -0.6220
16175TIP3   OH269939   2.481   6.098   1.502  0.1044 -0.0641  0.0018
16175TIP3    H169940   2.423   6.078   1.428 -0.9854 -0.7192  0.9975
16175TIP3    H269941   2.504   6.012   1.538  2.8616  0.0731 -1.1784
16176TIP3   OH269942   3.604   6.113   3.515  0.0333  0.4371  0.2077
16176TIP3    H169943   3.564   6.065   3.587 -0.9826 -0.3557 -0.8497
16176TIP3    H269944   3.593   6.056   3.439 -1.2348  2.2869 -1.0956
16177TIP3   OH269945   6.006   3.988  16.590 -0.6059  0.0575  0.2166
16177TIP3    H169946   6.085   3.940  16.613 -1.8182 -1.9380  0.5223
16177TIP3    H269947   6.034   4.079  16.581  1.6505 -0.5528  0.5098
16178TIP3   OH269948   1.105   2.413   3.180 -0.3922  0.0968 -0.3473
16178TIP3    H169949   1.080   2.445   3.266 -0.9981  1.5413 -1.0286
16178TIP3    H269950   1.164   2.479   3.145  3.2266 -2.3828  0.4995
16179TIP3   OH269951   2.791   1.481  10.237 -0.2440 -0.2714  0.0709
16179TIP3    H169952   2.780   1.477  10.332 -1.3941 -1.3871 -0.0672
16179TIP3    H269953   2.703   1.464  10.203 -0.0928  1.3106 -1.2047
16180TIP3   OH269954   0.955   1.918  11.716 -0.0448 -0.0177 -0.3365
16180TIP3    H169955   1.023   1.984  11.701  0.4428  0.0528  1.8746
16180TIP3    H269956   0.916   1.943  11.799  0.3870 -2.6923  0.7377
16181TIP3   OH269957   3.258   2.347   2.333 -0.4599  0.3295 -0.5524
16181TIP3    H169958   3.197   2.280   2.365  0.4339 -0.4040 -0.3565
16181TIP3    H269959   3.337   2.299   2.310  0.5966  1.4309  0.5990
16182TIP3   OH269960   4.801   5.006   3.841  0.0193 -0.2593  0.2795
16182TIP3    H169961   4.894   5.008   3.859 -0.4709  3.3616  3.8024
16182TIP3    H269962   4.775   4.915   3.853  2.7419 -0.9785  1.2969
16183TIP3   OH269963   4.017   3.153  12.994  0.4872 -0.2370  0.3926
16183TIP3    H169964   4.108   3.147  13.023  0.1327  0.3937  1.7000
16183TIP3    H269965   3.982   3.065  13.007  1.0165 -0.6199 -0.5930
16184TIP3   OH269966   5.246   5.850  12.617 -0.7507  0.2261 -0.1439
16184TIP3    H169967   5.167   5.847  12.563  0.5597 -0.3427 -2.1130
16184TIP3    H269968   5.251   5.763  12.657 -0.4518 -0.1767 -1.0400
16185TIP3   OH269969   3.898   0.654   0.313  0.2067  0.5090  0.1738
16185TIP3    H169970   3.891   0.570   0.358 -4.0563  0.3046 -0.4786
16185TIP3    H269971   3.889   0.633   0.221  0.5483  1.6199 -0.1371
16186TIP3   OH269972   2.751   4.069   2.827  0.1702  0.2254 -0.1305
16186TIP3    H169973   2.740   4.164   2.833  0.4916  0.2132  0.8594
16186TIP3    H269974   2.673   4.033   2.870  0.3425  0.0509  0.0377
16187TIP3   OH269975   5.485   4.608   2.902 -0.4024  0.0161  0.6577
16187TIP3    H169976   5.477   4.692   2.856  0.1117 -0.3571 -0.1375
16187TIP3    H269977   5.444   4.623   2.987  1.1865  1.5935  1.1993
16188TIP3   OH269978   1.490   6.417  16.311 -0.1747 -0.2424 -0.1678
16188TIP3    H169979   1.399   6.385  16.312 -0.6375  1.0192 -0.0659
16188TIP3    H269980   1.485   6.503  16.353  1.1953 -0.4541  0.4607
16189TIP3   OH269981   5.862   6.454  11.918 -0.0474  0.0929 -0.1057
16189TIP3    H169982   5.875   6.437  12.012  0.8204 -0.3269 -0.2857
16189TIP3    H269983   5.951   6.469  11.885 -0.2563 -0.6281 -1.0195
16190TIP3   OH269984   1.692   3.016   5.153  0.1154 -0.3991  0.2309
16190TIP3    H169985   1.629   3.073   5.108  1.7766  0.0116 -1.7024
16190TIP3    H269986   1.722   3.067   5.228  0.1561  0.5197 -0.3927
16191TIP3   OH269987   0.627   4.151  11.227  0.0045 -0.8581 -0.5133
16191TIP3    H169988   0.582   4.157  11.312 -0.7116  0.5873 -0.9649
16191TIP3    H269989   0.622   4.058  11.204  1.1227 -1.4895  1.4818
16192TIP3   OH269990   0.687   2.284   1.830  0.5481 -0.4872  0.0838
16192TIP3    H169991   0.606   2.279   1.881  0.6431  0.4576  0.3474
16192TIP3    H269992   0.745   2.339   1.882  0.5005  0.8610 -1.2065
16193TIP3   OH269993   3.242   5.487  13.889  0.3791  0.0875 -0.3717
16193TIP3    H169994   3.170   5.491  13.827  0.8943  0.0981 -0.9789
16193TIP3    H269995   3.281   5.400  13.875 -0.1836 -0.3676  0.7231
16194TIP3   OH269996   3.146   5.973  12.298 -0.0192 -0.4105  0.1077
16194TIP3    H169997   3.180   5.924  12.223  0.9744 -0.6203  0.6713
16194TIP3    H269998   3.060   5.934  12.314 -0.2609 -0.3361 -0.9320
16195TIP3   OH269999   1.802   5.006  12.175  0.1999 -0.1348  0.4191
16195TIP3    H170000   1.862   4.967  12.111 -3.2271 -2.0053 -2.0072
16195TIP3    H270001   1.800   4.943  12.247 -0.3886 -1.2004 -0.4896
16196TIP3   OH270002   0.467   2.885   2.205 -0.1428  0.4925  0.8147
16196TIP3    H170003   0.523   2.850   2.274 -0.1639  0.2530  0.7113
16196TIP3    H270004   0.402   2.938   2.252  0.2177  0.8389  0.9279
16197TIP3   OH270005   6.355   4.455  15.439  0.5152  0.1836 -0.1303
16197TIP3    H170006   6.362   4.379  15.496  1.7623 -0.4751 -1.1058
16197TIP3    H270007   6.445   4.474  15.413  0.0275  0.7510 -1.5054
16198TIP3   OH270008   0.703   2.322   5.421 -0.0235 -0.3040 -0.1881
16198TIP3    H170009   0.686   2.240   5.375  2.1906 -1.7109  1.2694
16198TIP3    H270010   0.796   2.339   5.407 -0.3102  1.6941  0.0168
16199TIP3   OH270011   6.409   3.797   6.578 -0.2469  0.5652  0.1551
16199TIP3    H170012   6.470   3.727   6.602  0.3383  0.7363 -0.7765
16199TIP3    H270013   6.426   3.866   6.642  1.1482  0.9428 -0.5825
16200TIP3   OH270014   0.397   1.059   0.306 -0.6423 -0.1654 -0.0695
16200TIP3    H170015   0.446   1.057   0.388  0.0368  1.7312 -0.3817
16200TIP3    H270016   0.317   1.108   0.327  0.5994  2.4326 -1.0049
16201TIP3   OH270017   4.633   1.171   3.237 -0.0766 -0.2801  0.1108
16201TIP3    H170018   4.639   1.094   3.181  1.2105  0.0956 -0.2895
16201TIP3    H270019   4.686   1.150   3.314 -1.4071 -0.5846  0.9914
16202TIP3   OH270020   4.813   6.787  12.887  0.0096 -0.2025 -0.1366
16202TIP3    H170021   4.738   6.766  12.942  1.5417 -2.3033  1.3339
16202TIP3    H270022   4.860   6.854  12.936  0.8002 -1.2955  0.6548
16203TIP3   OH270023   3.403   1.564   0.200 -0.3790  0.1643 -0.1200
16203TIP3    H170024   3.445   1.634   0.249  1.1612  0.1325 -1.3107
16203TIP3    H270025   3.418   1.485   0.253 -0.8633  0.5015  0.5238
16204TIP3   OH270026   3.557   6.412  16.947  0.4771  0.0537 -0.3817
16204TIP3    H170027   3.569   6.332  16.896 -0.9834  0.0879 -0.8121
16204TIP3    H270028   3.497   6.465  16.895 -0.9519  0.1488  1.2797
16205TIP3   OH270029   4.041   4.123   4.115 -0.0911 -0.1894  0.2494
16205TIP3    H170030   3.954   4.161   4.106 -1.1287 -2.8222 -2.5852
16205TIP3    H270031   4.069   4.105   4.025  1.8186 -2.6828  1.2196
16206TIP3   OH270032   2.002   0.689  12.994 -0.2233 -0.2195  0.0052
16206TIP3    H170033   1.927   0.728  12.950 -1.3925 -3.0817 -0.6835
16206TIP3    H270034   1.966   0.652  13.075  0.9549  0.4864  0.8993
16207TIP3   OH270035   4.036   1.093   5.579  0.4145 -0.3014 -0.2097
16207TIP3    H170036   3.970   1.091   5.510  1.0139 -1.3994 -0.7764
16207TIP3    H270037   4.017   1.016   5.632  1.8603 -1.2275 -0.9890
16208TIP3   OH270038   5.851   3.543  13.597  0.0136 -0.0408  0.1299
16208TIP3    H170039   5.861   3.635  13.571  0.8153 -0.1065  0.1878
16208TIP3    H270040   5.866   3.544  13.692 -1.0937 -0.0736  0.3204
16209TIP3   OH270041   3.746   5.841   2.384  0.3386  0.0168 -0.1767
16209TIP3    H170042   3.839   5.861   2.375  0.4797 -1.0020 -1.1902
16209TIP3    H270043   3.702   5.913   2.339  0.6166  0.6212  0.4994
16210TIP3   OH270044   5.313   0.240  13.259 -0.2404  0.0889 -0.1927
16210TIP3    H170045   5.330   0.235  13.165  0.1857 -2.0619 -0.0572
16210TIP3    H270046   5.221   0.266  13.265 -0.4210 -0.2513 -1.2257
16211TIP3   OH270047   0.658   1.549   5.546  0.3217 -0.1615 -0.2127
16211TIP3    H170048   0.617   1.463   5.550 -1.6403  0.6926 -0.9229
16211TIP3    H270049   0.672   1.573   5.638 -1.3661 -0.2319  0.0878
16212TIP3   OH270050   6.657   3.306   2.046  0.5771  0.0940  0.0669
16212TIP3    H170051   6.585   3.339   2.098 -0.4447  0.3565 -1.4479
16212TIP3    H270052   6.629   3.219   2.018  1.2379 -0.1639  0.1892
16213TIP3   OH270053   1.685   5.784  13.545  0.2819 -0.0617 -0.0338
16213TIP3    H170054   1.750   5.770  13.613  1.7303 -0.1729 -1.3741
16213TIP3    H270055   1.707   5.869  13.507  0.5475 -0.7030 -1.4079
16214TIP3   OH270056   2.959   6.465   5.412  0.5294 -0.1746  0.3040
16214TIP3    H170057   3.025   6.501   5.353 -1.0131  1.5062 -0.5014
16214TIP3    H270058   2.919   6.542   5.453 -2.5264 -0.8824 -1.0256
16215TIP3   OH270059   3.290   2.685  10.510 -0.1890  0.2154  0.1923
16215TIP3    H170060   3.348   2.640  10.449 -1.1547  0.8728 -1.2716
16215TIP3    H270061   3.315   2.777  10.503 -1.9288  0.6499 -1.1687
16216TIP3   OH270062   4.651   0.962   3.037 -0.4604  0.1229  0.0051
16216TIP3    H170063   4.578   0.968   2.976 -0.2335 -1.4036 -0.4718
16216TIP3    H270064   4.644   0.874   3.074 -0.5172  0.9748  2.1320
16217TIP3   OH270065   2.862   5.836  12.692  0.1654 -0.2951 -0.0950
16217TIP3    H170066   2.848   5.928  12.712  0.6286  0.8836 -4.2109
16217TIP3    H270067   2.778   5.794  12.708 -0.0973  0.8382  1.6886
16218TIP3   OH270068   3.046   5.956   3.917 -0.5985  0.5506 -0.3989
16218TIP3    H170069   3.110   6.021   3.946 -1.0217  1.1325 -0.7252
16218TIP3    H270070   3.094   5.873   3.915 -0.2510  0.7152  0.7507
16219TIP3   OH270071   3.777   1.166  14.591  0.2789  0.3526  0.0722
16219TIP3    H170072   3.813   1.246  14.629  2.7180 -0.9108  0.6192
16219TIP3    H270073   3.686   1.188  14.571  1.2039  3.6506 -1.0892
16220TIP3   OH270074   0.073   2.409   3.782  0.5296  0.5194  0.4456
16220TIP3    H170075   0.003   2.419   3.846  0.6922 -0.8905  0.8969
16220TIP3    H270076   0.139   2.474   3.808  0.8933 -0.4620  2.1682
16221TIP3   OH270077   2.963   3.348  14.230  0.7855 -0.3141 -0.6492
16221TIP3    H170078   2.971   3.279  14.166  0.9303 -0.6469 -0.2774
16221TIP3    H270079   3.030   3.329  14.295  1.2430  0.5199 -0.8589
16222TIP3   OH270080   3.276   3.308   1.330 -0.1789  0.6838 -0.0153
16222TIP3    H170081   3.192   3.351   1.312 -0.9586 -0.6508  0.2986
16222TIP3    H270082   3.305   3.275   1.244  0.3351  1.6448 -0.2262
16223TIP3   OH270083   0.196   6.260  10.461  0.4422  0.0874 -0.1379
16223TIP3    H170084   0.116   6.209  10.469 -0.0043  0.8540  0.5058
16223TIP3    H270085   0.264   6.196  10.442  0.2040 -0.9863  2.2257
16224TIP3   OH270086   4.787   0.924  11.041  0.3723 -0.1357  0.6031
16224TIP3    H170087   4.710   0.963  11.083  0.9170 -0.9727  2.4666
16224TIP3    H270088   4.758   0.906  10.951 -1.8510 -1.0527  1.4290
16225TIP3   OH270089   6.766   0.362  15.816  0.4666 -0.1399  0.7328
16225TIP3    H170090   6.672   0.374  15.833  0.2285 -0.7487 -0.0691
16225TIP3    H270091   6.805   0.446  15.840 -0.5596  0.8093 -0.7207
16226TIP3   OH270092   4.801   1.691  13.618  0.2731 -0.1915  0.4236
16226TIP3    H170093   4.762   1.773  13.649 -0.3791 -0.5901  0.6691
16226TIP3    H270094   4.762   1.623  13.673 -0.0070 -0.7895 -0.4987
16227TIP3   OH270095   3.531   5.712  15.601 -0.2680  0.4314  0.3290
16227TIP3    H170096   3.606   5.766  15.575  0.5949  0.0299  1.8405
16227TIP3    H270097   3.514   5.738  15.692 -0.3278 -1.2576  0.8347
16228TIP3   OH270098   6.009   0.483  12.797  0.2108  0.3687  0.3325
16228TIP3    H170099   5.936   0.494  12.736  1.0082 -0.4438 -0.7913
16228TIP3    H270100   5.982   0.533  12.875 -1.4912  0.1828 -0.0907
16229TIP3   OH270101   0.379   4.526   5.541 -0.3164  0.0891  0.1206
16229TIP3    H170102   0.416   4.611   5.567 -0.6585  1.1660 -2.6387
16229TIP3    H270103   0.289   4.546   5.514 -0.7903 -1.3846  0.4826
16230TIP3   OH270104   2.451   3.575   4.536  0.1821 -0.0631 -0.6727
16230TIP3    H170105   2.432   3.655   4.487 -0.7594 -0.7652 -1.5050
16230TIP3    H270106   2.365   3.538   4.556  0.4471  0.8821  2.7768
16231TIP3   OH270107   4.561   5.711   0.426  0.4476 -0.0258  0.5070
16231TIP3    H170108   4.555   5.797   0.468  1.2722  1.1499 -1.6355
16231TIP3    H270109   4.653   5.687   0.432  0.3230 -0.4965  0.5931
16232TIP3   OH270110   0.128   5.541   3.347 -0.4346  0.0237 -0.4432
16232TIP3    H170111   0.060   5.589   3.394 -0.4668  1.1639 -1.5795
16232TIP3    H270112   0.169   5.607   3.290 -0.3940 -1.2646 -1.9899
16233TIP3   OH270113   2.190   2.709   2.120 -0.2830  1.1985  0.0408
16233TIP3    H170114   2.143   2.637   2.162  1.5008  0.2793  0.5708
16233TIP3    H270115   2.268   2.668   2.083 -0.4024  2.4761 -1.7540
16234TIP3   OH270116   2.982   1.800   2.836  0.0880 -0.9807  0.2195
16234TIP3    H170117   3.036   1.875   2.861 -0.5065 -1.3940  3.0537
16234TIP3    H270118   3.037   1.750   2.776  1.6651  0.1633  0.6409
16235TIP3   OH270119   5.262   5.268  10.762  0.1656 -0.4661 -0.4790
16235TIP3    H170120   5.224   5.266  10.674 -1.4787  0.0702  0.1869
16235TIP3    H270121   5.263   5.176  10.790 -0.6691 -0.4973 -0.5186
16236TIP3   OH270122   0.880   5.667  16.358 -0.2728 -0.2984  0.1527
16236TIP3    H170123   0.893   5.760  16.375  1.5357  0.0258 -2.4580
16236TIP3    H270124   0.948   5.623  16.409 -0.9985 -0.2085  1.2244
16237TIP3   OH270125   2.671   0.016   4.329 -0.3127 -0.3364  0.1133
16237TIP3    H170126   2.588   0.043   4.368 -0.3732 -0.9391  0.4033
16237TIP3    H270127   2.683   0.076   4.255 -1.1659 -0.4640 -0.1328
16238TIP3   OH270128   3.408   0.141  14.023 -0.1182 -0.8112 -0.5867
16238TIP3    H170129   3.322   0.165  14.058  0.5781 -0.4637  0.9638
16238TIP3    H270130   3.410   0.182  13.936 -1.6398 -1.1235 -0.8022
16239TIP3   OH270131   4.070   0.138   1.742  0.0773 -0.5939 -0.6716
16239TIP3    H170132   4.122   0.217   1.727  1.0319 -1.3224 -1.3051
16239TIP3    H270133   3.987   0.170   1.777  1.6350  0.5560  2.4418
16240TIP3   OH270134   6.372   5.953   5.830 -0.3827 -0.1682 -0.3123
16240TIP3    H170135   6.355   5.886   5.897  0.2937  1.0284  1.1071
16240TIP3    H270136   6.326   5.921   5.753 -2.0447 -1.1097  0.9919
16241TIP3   OH270137   3.992   4.783   4.392 -0.2505  0.2199 -0.7469
16241TIP3    H170138   4.012   4.782   4.299 -0.9405  0.6431 -0.9081
16241TIP3    H270139   4.051   4.718   4.430  0.3617  0.3766 -1.4059
16242TIP3   OH270140   5.421   4.743  12.486 -0.0449  0.1222  0.3761
16242TIP3    H170141   5.358   4.798  12.533 -0.1926 -2.2193  3.2231
16242TIP3    H270142   5.372   4.663  12.467  1.5624 -1.0841  1.1222
16243TIP3   OH270143   4.255   5.592  14.964 -0.0582  0.3353 -0.6137
16243TIP3    H170144   4.286   5.596  14.874 -0.1089 -1.1713 -0.7271
16243TIP3    H270145   4.181   5.532  14.961 -1.3540  1.8302  0.1142
16244TIP3   OH270146   3.626   5.549   4.942 -0.0942 -0.8172 -0.2197
16244TIP3    H170147   3.716   5.556   4.972 -0.3311  1.0038  0.1439
16244TIP3    H270148   3.578   5.515   5.017  0.5136 -3.5571 -0.9483
16245TIP3   OH270149   0.989   4.390   4.795 -0.5598  0.2468  0.3200
16245TIP3    H170150   0.989   4.335   4.873  1.4361 -1.1803 -0.5746
16245TIP3    H270151   1.048   4.463   4.816  0.6667 -0.5901 -0.0742
16246TIP3   OH270152   4.628   5.519   2.717  0.0236  0.2370 -0.2001
16246TIP3    H170153   4.551   5.463   2.725  0.5972 -0.8466 -1.7580
16246TIP3    H270154   4.596   5.606   2.739 -1.7406 -0.1268 -1.0769
16247TIP3   OH270155   1.040   6.458   4.266  0.2288  0.8745 -0.0773
16247TIP3    H170156   1.025   6.375   4.220  0.7976  0.4275  0.5340
16247TIP3    H270157   0.995   6.523   4.212 -1.5670 -0.0381  0.2366
16248TIP3   OH270158   4.268   4.250  12.621 -0.3478 -0.8824  0.3731
16248TIP3    H170159   4.294   4.293  12.539  0.5521  1.3717  1.7318
16248TIP3    H270160   4.326   4.288  12.687 -1.8519 -1.6924  2.2591
16249TIP3   OH270161   3.994   0.634   3.975  0.1024 -0.5059  0.1764
16249TIP3    H170162   3.948   0.576   4.036  0.4449 -1.7460 -0.7099
16249TIP3    H270163   3.957   0.612   3.889  1.8910 -1.0859 -0.4715
16250TIP3   OH270164   1.210   1.631  11.617 -0.4851 -0.2207  0.0585
16250TIP3    H170165   1.236   1.642  11.709 -0.0234 -2.2028  0.2148
16250TIP3    H270166   1.266   1.691  11.569 -0.4741  0.5748  1.0336
16251TIP3   OH270167   1.251   2.697   3.989 -1.1421  0.3106 -0.2837
16251TIP3    H170168   1.277   2.744   4.068  1.9609 -1.7314  0.1187
16251TIP3    H270169   1.310   2.730   3.921 -2.3474  0.5351 -1.2549
16252TIP3   OH270170   5.606   0.637   4.410  0.5234  0.2825 -0.2424
16252TIP3    H170171   5.563   0.654   4.494 -0.2754 -1.1638 -0.3272
16252TIP3    H270172   5.654   0.717   4.392  0.4815  0.7417  1.4549
16253TIP3   OH270173   5.942   5.789  17.098 -0.0116 -0.1451 -0.1893
16253TIP3    H170174   5.850   5.810  17.115  0.0472 -0.4085  0.5354
16253TIP3    H270175   5.945   5.693  17.101  0.4186 -0.1146  0.5810
16254TIP3   OH270176   1.532   3.334   3.376  0.2638  0.4115 -0.1597
16254TIP3    H170177   1.583   3.264   3.334  0.1681 -0.0351  0.4583
16254TIP3    H270178   1.549   3.411   3.322  0.5919 -0.0233 -0.6910
16255TIP3   OH270179   6.794   6.129   0.033 -0.1397 -0.4799  0.1711
16255TIP3    H170180   6.730   6.074   0.076 -1.4825  0.4443 -0.5772
16255TIP3    H270181   6.877   6.082   0.043 -1.0472 -2.0701  0.4912
16256TIP3   OH270182   0.108   4.374  15.730  0.0549 -0.2051 -0.1552
16256TIP3    H170183   0.169   4.375  15.804 -0.5779 -0.0894  0.3801
16256TIP3    H270184   0.056   4.453  15.741 -0.2629 -0.3563 -0.5444
16257TIP3   OH270185   6.253   5.380   4.502 -0.5148  0.1654 -0.2738
16257TIP3    H170186   6.340   5.410   4.528 -1.0315  1.4283  0.1114
16257TIP3    H270187   6.264   5.288   4.478  1.0332  0.4633 -0.7834
16258TIP3   OH270188   2.049   4.560   4.296 -0.1375 -0.5576 -0.3627
16258TIP3    H170189   2.004   4.547   4.212 -0.2757 -2.2770 -0.0605
16258TIP3    H270190   2.117   4.624   4.277 -0.1892 -0.8937 -1.7902
16259TIP3   OH270191   3.586   6.447   5.556 -0.5278 -0.1427  0.2527
16259TIP3    H170192   3.606   6.499   5.634 -2.0108  1.2114 -0.1947
16259TIP3    H270193   3.494   6.421   5.568 -0.4716 -0.7655 -0.5799
16260TIP3   OH270194   2.267   3.475   5.401 -0.0578  0.5439 -0.1940
16260TIP3    H170195   2.268   3.485   5.306 -0.0685 -2.2381 -0.5842
16260TIP3    H270196   2.348   3.516   5.431  1.4332 -1.0424 -1.8024
16261TIP3   OH270197   4.856   2.936  14.098  0.7277  0.5276 -0.1349
16261TIP3    H170198   4.834   3.028  14.089  1.2424  0.5543 -1.4173
16261TIP3    H270199   4.846   2.900  14.009 -0.3795 -0.8599  0.5070
16262TIP3   OH270200   1.768   6.552   0.547 -0.3312  0.5717  0.4523
16262TIP3    H170201   1.797   6.620   0.486  2.5831 -1.3965 -0.5449
16262TIP3    H270202   1.801   6.580   0.632 -0.3300  1.0385  0.3019
16263TIP3   OH270203   0.205   0.679  15.272  0.4763  0.5350 -0.2606
16263TIP3    H170204   0.251   0.613  15.324  1.6203  0.8393 -0.8495
16263TIP3    H270205   0.253   0.760  15.286  0.5540  0.7119 -1.4385
16264TIP3   OH270206   0.740   2.391  12.690  0.3168  0.5260 -0.0260
16264TIP3    H170207   0.663   2.350  12.650 -0.1594  0.0917  1.2909
16264TIP3    H270208   0.721   2.485  12.689 -0.6806  0.3608  1.1409
16265TIP3   OH270209   6.147   4.685  14.842 -0.3606 -0.1681 -0.5218
16265TIP3    H170210   6.114   4.662  14.755 -2.7808  0.4496  0.1633
16265TIP3    H270211   6.170   4.601  14.881 -0.0482 -0.5315 -1.4490
16266TIP3   OH270212   1.527   1.348   5.840 -0.0479 -0.1457 -0.1865
16266TIP3    H170213   1.622   1.342   5.853  0.2305  1.7675 -1.0028
16266TIP3    H270214   1.505   1.437   5.869 -1.7820 -0.8817  0.9078
16267TIP3   OH270215   3.979   1.828  11.994  0.5792 -0.0505 -0.2963
16267TIP3    H170216   4.059   1.819  11.943  1.2747  2.4551  0.2635
16267TIP3    H270217   4.004   1.878  12.071 -1.7653  2.0339 -0.7681
16268TIP3   OH270218   1.076   5.840   1.688 -0.4507  0.0950  0.6512
16268TIP3    H170219   1.130   5.762   1.684 -0.4317  0.0574  1.4186
16268TIP3    H270220   0.989   5.808   1.708 -0.6236  0.2108  0.1063
16269TIP3   OH270221   4.491   3.076  13.885 -0.1110  0.0635 -0.1789
16269TIP3    H170222   4.507   3.140  13.954 -0.4244  0.8254 -0.7974
16269TIP3    H270223   4.423   3.115  13.831 -0.2147 -0.7362 -0.6501
16270TIP3   OH270224   2.795   2.145  13.381  0.6509  0.1032 -0.1653
16270TIP3    H170225   2.841   2.094  13.448 -2.3809  0.1738  2.1776
16270TIP3    H270226   2.750   2.080  13.328  0.4192  0.1640 -0.0443
16271TIP3   OH270227   2.819   1.952   4.238 -0.0175 -0.5197  0.3080
16271TIP3    H170228   2.909   1.962   4.205  0.8732 -2.4964  1.9439
16271TIP3    H270229   2.798   1.860   4.224 -1.2075 -0.4357  1.3872
16272TIP3   OH270230   6.142   4.216   5.328  0.5205 -0.2830  0.3248
16272TIP3    H170231   6.109   4.296   5.368 -0.5631  0.5088 -1.9840
16272TIP3    H270232   6.076   4.150   5.349 -0.6866  0.4148 -1.0853
16273TIP3   OH270233   4.816   4.150  15.835 -0.1029 -0.0589 -0.4798
16273TIP3    H170234   4.783   4.156  15.925  0.7819  0.9668 -0.1908
16273TIP3    H270235   4.741   4.124  15.783 -0.6032 -0.7954  0.5801
16274TIP3   OH270236   4.305   0.997   2.278  0.1634 -0.4369  0.4273
16274TIP3    H170237   4.271   0.910   2.258 -0.4977  0.0525 -0.6125
16274TIP3    H270238   4.284   1.050   2.201  2.4470  0.1301  0.1050
16275TIP3   OH270239   4.643   6.218  12.136 -0.4089  0.3810  0.0038
16275TIP3    H170240   4.609   6.170  12.060 -1.3556 -0.1025  0.7115
16275TIP3    H270241   4.627   6.160  12.210  0.7535  0.7324  0.5584
16276TIP3   OH270242   3.659   2.812   6.188  0.2752 -0.0556  0.1310
16276TIP3    H170243   3.709   2.791   6.109  0.4412 -0.9741  0.4655
16276TIP3    H270244   3.707   2.768   6.258 -1.1631 -1.2180  0.4259
16277TIP3   OH270245   1.226   1.888   2.690 -0.1278  0.2042 -0.5048
16277TIP3    H170246   1.238   1.797   2.714 -0.4106 -0.1480 -1.6350
16277TIP3    H270247   1.133   1.896   2.667  0.1967  0.3865 -1.8730
16278TIP3   OH270248   5.007   6.543  11.487 -0.4987  0.0736 -0.2269
16278TIP3    H170249   5.031   6.537  11.395 -1.8129 -1.0613 -0.5207
16278TIP3    H270250   5.059   6.475  11.530  0.3399  0.8018 -0.0570
16279TIP3   OH270251   2.101   3.534  13.993  0.4128 -0.5509  0.0994
16279TIP3    H170252   2.111   3.629  13.989 -1.1652 -0.3822 -0.6628
16279TIP3    H270253   2.042   3.513  13.920  0.4024 -2.0636  0.5075
16280TIP3   OH270254   3.742   1.549  15.553  0.2541 -0.7249 -0.1870
16280TIP3    H170255   3.661   1.590  15.584 -0.1973 -0.7167 -1.3149
16280TIP3    H270256   3.792   1.532  15.633 -0.7048 -0.4103  0.5094
16281TIP3   OH270257   4.906   0.404  10.713  0.4255  0.2825  0.3774
16281TIP3    H170258   4.895   0.490  10.755  0.9699  0.1141  0.8837
16281TIP3    H270259   4.868   0.342  10.775 -0.9080  0.2351 -0.4511
16282TIP3   OH270260   4.109   0.326   3.493 -0.3055 -0.7869  0.2096
16282TIP3    H170261   4.038   0.287   3.443 -0.1280 -0.0422 -0.6573
16282TIP3    H270262   4.137   0.401   3.440 -0.4982  0.3877  1.7012
16283TIP3   OH270263   4.023   0.404  10.424 -0.5249 -0.7037  0.2574
16283TIP3    H170264   4.113   0.400  10.457 -0.4956  1.1246  0.4875
16283TIP3    H270265   3.997   0.312  10.415  0.9375 -1.2623  1.3374
16284TIP3   OH270266   4.158   0.158   3.127 -0.2542  0.3405  0.1605
16284TIP3    H170267   4.200   0.093   3.184  1.2394  1.0101 -0.1230
16284TIP3    H270268   4.231   0.212   3.096 -1.1404  0.4995 -1.7337
16285TIP3   OH270269   4.718   5.831   2.166 -0.0215 -0.0697  0.0165
16285TIP3    H170270   4.797   5.876   2.195 -0.4535 -0.2110  1.4879
16285TIP3    H270271   4.750   5.760   2.110  0.8980 -0.2194  0.7150
16286TIP3   OH270272   3.578   5.871  11.530 -0.1165 -0.3631  0.1625
16286TIP3    H170273   3.593   5.833  11.616 -0.1360 -0.4512  0.1269
16286TIP3    H270274   3.529   5.952  11.548 -2.4060 -1.6311  0.0777
16287TIP3   OH270275   2.537   0.737  12.482 -0.8639 -0.2363  0.6035
16287TIP3    H170276   2.489   0.776  12.555 -0.0964  0.3380  0.8199
16287TIP3    H270277   2.469   0.696  12.428 -1.5720  0.3783  1.0021
16288TIP3   OH270278   2.140   0.825  16.986 -0.1321  0.3185 -0.2176
16288TIP3    H170279   2.156   0.741  16.943 -0.0529  0.7607 -1.0833
16288TIP3    H270280   2.081   0.805  17.059 -1.4836 -0.2568 -1.4277
16289TIP3   OH270281   5.932   0.996   5.963  0.0113 -0.0511  0.0027
16289TIP3    H170282   5.913   0.932   6.031  1.1317  0.7144  1.0734
16289TIP3    H270283   5.927   0.947   5.881  0.5634 -1.4291  0.7784
16290TIP3   OH270284   4.770   4.515   1.329 -0.2270  0.1431 -0.5196
16290TIP3    H170285   4.828   4.466   1.271 -0.3648 -0.6577  0.0144
16290TIP3    H270286   4.791   4.607   1.311 -0.2090 -0.0920 -1.7659
16291TIP3   OH270287   0.182   3.321  14.751  0.3302  0.1013 -0.3272
16291TIP3    H170288   0.117   3.371  14.701  0.2112 -0.0201 -0.2953
16291TIP3    H270289   0.211   3.253  14.690  0.9023  0.5507 -0.5615
16292TIP3   OH270290   2.887   4.186   0.817 -0.0015 -0.2047 -0.1365
16292TIP3    H170291   2.978   4.156   0.814 -0.0558 -0.4799  0.7275
16292TIP3    H270292   2.884   4.244   0.892  0.2079  2.4134 -2.0214
16293TIP3   OH270293   0.735   4.871   4.219  0.5486  0.8301 -0.4343
16293TIP3    H170294   0.677   4.797   4.200  0.0628  1.4082 -1.2769
16293TIP3    H270295   0.822   4.832   4.226  0.4367  0.3040 -1.7896
16294TIP3   OH270296   2.416   4.107  17.027  0.8157 -0.1747  1.0803
16294TIP3    H170297   2.403   4.049  16.952  0.6813 -1.8191  2.3232
16294TIP3    H270298   2.354   4.179  17.013 -1.4584 -2.0084  1.1276
16295TIP3   OH270299   5.830   6.464   3.893 -0.0067 -0.7315  0.1448
16295TIP3    H170300   5.922   6.438   3.903 -0.1059 -1.5212 -0.9349
16295TIP3    H270301   5.815   6.524   3.967  1.0212 -1.5376  1.0450
16296TIP3   OH270302   0.508   6.170   2.749 -0.3888  0.8329  0.6893
16296TIP3    H170303   0.466   6.084   2.754 -2.3295  1.5142 -1.8241
16296TIP3    H270304   0.480   6.216   2.828 -1.2214 -0.0529  0.9228
16297TIP3   OH270305   5.991   3.104  12.988  0.0550 -0.1646 -0.5096
16297TIP3    H170306   6.019   3.194  12.999 -1.0919  0.3732 -1.7581
16297TIP3    H270307   6.070   3.052  13.005  1.8286  1.2395 -3.6897
16298TIP3   OH270308   6.394   6.660  14.190  0.2642  0.3607  0.5004
16298TIP3    H170309   6.482   6.693  14.209  0.1005  0.8924  0.3518
16298TIP3    H270310   6.408   6.571  14.159  0.5911 -0.4106  2.6935
16299TIP3   OH270311   6.062   1.027   0.518  0.3932 -0.1906  0.9595
16299TIP3    H170312   6.029   1.069   0.438 -1.2356 -0.4381  1.4605
16299TIP3    H270313   6.157   1.041   0.515  0.4555 -0.6391 -1.2765
16300TIP3   OH270314   3.594   2.875   4.844 -0.1301 -0.1837 -0.9702
16300TIP3    H170315   3.663   2.863   4.909 -1.6170  2.1507  1.2704
16300TIP3    H270316   3.581   2.970   4.841 -2.7511 -0.4850 -1.8090
16301TIP3   OH270317   3.517   3.015   3.626 -0.0640 -0.2043  0.6200
16301TIP3    H170318   3.495   2.988   3.716  2.4112  0.2011  1.4233
16301TIP3    H270319   3.527   3.110   3.631  1.6173 -0.3361  0.3306
16302TIP3   OH270320   2.931   2.411  12.989  0.5714  0.2413  0.0195
16302TIP3    H170321   3.022   2.388  13.008  0.5306  0.6199  0.7311
16302TIP3    H270322   2.881   2.372  13.061  0.1554 -0.0742 -0.4353
16303TIP3   OH270323   4.331   1.775   1.917  0.7422 -0.2392 -0.2315
16303TIP3    H170324   4.265   1.736   1.975  0.4127  0.2755 -0.2509
16303TIP3    H270325   4.292   1.858   1.889  0.9848 -0.3760 -1.0187
16304TIP3   OH270326   3.369   5.092  15.834  0.1284  0.0741 -0.9017
16304TIP3    H170327   3.337   5.092  15.924 -0.2216  2.5219 -0.9605
16304TIP3    H270328   3.290   5.104  15.781  0.6292  1.5271 -1.3402
16305TIP3   OH270329   6.210   1.883   2.613  0.8716 -0.1126  0.0489
16305TIP3    H170330   6.201   1.915   2.703  1.3043  0.0131  0.0498
16305TIP3    H270331   6.276   1.814   2.618  1.6765  0.6153 -0.3420
16306TIP3   OH270332   0.871   1.132   4.985 -0.0470 -0.5212 -0.3069
16306TIP3    H170333   0.792   1.111   4.936 -0.0489  1.4130 -1.2277
16306TIP3    H270334   0.937   1.149   4.918  0.6369 -0.2762  0.4085
16307TIP3   OH270335   0.020   4.157   1.744 -0.1008  0.0047  0.5203
16307TIP3    H170336   0.068   4.075   1.745  2.7294  1.4176 -2.3800
16307TIP3    H270337   0.024   4.189   1.834 -0.1963 -2.3512  1.4238
16308TIP3   OH270338   0.519   0.792   3.431  0.3671 -0.8176  0.2537
16308TIP3    H170339   0.527   0.792   3.526 -1.8314 -1.5021  0.5016
16308TIP3    H270340   0.544   0.704   3.404  1.3496 -0.5134  0.1338
16309TIP3   OH270341   3.342   4.081  13.748  0.4853  0.1204 -0.1329
16309TIP3    H170342   3.393   4.075  13.828 -0.6633 -0.2400  0.5956
16309TIP3    H270343   3.265   4.134  13.772 -0.4091 -0.8768 -0.6879
16310TIP3   OH270344   0.841   5.576  11.560  0.6122 -0.7839 -0.2112
16310TIP3    H170345   0.793   5.500  11.594 -0.4134  0.3081  0.8881
16310TIP3    H270346   0.933   5.555  11.575  0.2904 -1.3075  1.1830
16311TIP3   OH270347   4.239   4.601   4.397 -0.0546 -0.4335 -0.2065
16311TIP3    H170348   4.224   4.569   4.307  0.4523 -0.4587 -0.2833
16311TIP3    H270349   4.327   4.637   4.395 -1.5170  3.6276 -0.8877
16312TIP3   OH270350   2.347   0.190   5.372  0.1220 -0.5933 -0.2545
16312TIP3    H170351   2.346   0.112   5.427 -1.3859 -0.8178 -0.5546
16312TIP3    H270352   2.326   0.158   5.284 -1.7796  0.2674 -0.1555
16313TIP3   OH270353   3.105   3.486   2.764 -0.1580  0.4827  0.4932
16313TIP3    H170354   3.149   3.481   2.679 -0.3591 -1.4124  0.4602
16313TIP3    H270355   3.158   3.547   2.815  2.8033 -1.9642  0.5975
16314TIP3   OH270356   6.631   1.114  14.197  0.3091 -0.5403 -0.2033
16314TIP3    H170357   6.550   1.153  14.163  1.0225  1.1188 -0.0532
16314TIP3    H270358   6.665   1.178  14.258  0.8611 -1.9871  1.0807
16315TIP3   OH270359   6.004   1.882  10.955  0.0924  0.1645  0.4237
16315TIP3    H170360   6.049   1.961  10.985  2.0290 -0.0517 -1.7103
16315TIP3    H270361   5.973   1.903  10.867 -0.6533 -0.9843  0.3873
16316TIP3   OH270362   5.695   6.253   3.604  0.3687  0.8251  0.2815
16316TIP3    H170363   5.667   6.233   3.514  1.6365  1.5547 -0.2940
16316TIP3    H270364   5.720   6.168   3.640 -0.2848  0.5057  0.0004
16317TIP3   OH270365   5.028   3.720   2.167 -0.4863 -0.1801  0.3516
16317TIP3    H170366   5.076   3.707   2.085  0.9417 -0.3547  1.1638
16317TIP3    H270367   4.948   3.765   2.142  0.3856  0.6709 -1.0222
16318TIP3   OH270368   2.312   5.867  11.890  0.2906 -0.4987  0.5338
16318TIP3    H170369   2.384   5.806  11.905  0.0475 -0.6695  1.0311
16318TIP3    H270370   2.233   5.816  11.905  0.0236 -0.5681 -0.9672
16319TIP3   OH270371   2.442   2.102  11.007 -0.4705  0.0387 -0.0088
16319TIP3    H170372   2.430   2.028  11.066  2.7241 -0.1791  0.5221
16319TIP3    H270373   2.354   2.119  10.972 -2.1314 -1.1171  3.1941
16320TIP3   OH270374   1.474   5.263   1.303 -0.4369 -0.4515  0.0837
16320TIP3    H170375   1.513   5.348   1.320  2.1648 -1.7746  1.2151
16320TIP3    H270376   1.539   5.216   1.251 -1.8991 -1.7296 -0.7040
16321TIP3   OH270377   1.406   4.834   3.943  0.0916  0.1540  0.6846
16321TIP3    H170378   1.463   4.863   4.014  0.8326  2.0908 -0.6220
16321TIP3    H270379   1.335   4.898   3.942  0.3978  0.5087 -0.6483
16322TIP3   OH270380   0.759   0.011  13.040  0.4728 -0.1867  0.2460
16322TIP3    H170381   0.668  -0.012  13.058  0.3102 -1.0580 -1.5409
16322TIP3    H270382   0.804  -0.073  13.035  1.0990  0.1787 -0.3198
16323TIP3   OH270383   0.695   0.081  15.277  0.0497 -0.2099 -0.7053
16323TIP3    H170384   0.608   0.101  15.241 -0.7962 -1.6980  0.3664
16323TIP3    H270385   0.677   0.040  15.361  1.9002  1.1353  0.4078
16324TIP3   OH270386   4.847   4.172   3.884 -0.1851 -0.1513 -0.3083
16324TIP3    H170387   4.932   4.211   3.864 -0.0218 -0.3435 -0.0049
16324TIP3    H270388   4.855   4.143   3.975 -0.8465  0.5588 -0.0094
16325TIP3   OH270389   2.726   0.637  16.272  0.4033  0.4075  0.3970
16325TIP3    H170390   2.738   0.573  16.201 -0.7135  0.9928 -0.3502
16325TIP3    H270391   2.769   0.716  16.240 -0.9848  0.9883 -0.1058
16326TIP3   OH270392   3.352   2.227  14.891 -0.1397  0.3941  0.1814
16326TIP3    H170393   3.340   2.171  14.814 -0.1346  0.5160  0.0915
16326TIP3    H270394   3.407   2.175  14.950 -0.1294  0.3078  0.0955
16327TIP3   OH270395   6.744   1.183  11.633  0.1588  0.5774 -0.4635
16327TIP3    H170396   6.660   1.156  11.671 -0.4744  2.7115 -0.2661
16327TIP3    H270397   6.807   1.170  11.705 -0.2748  0.5219 -0.0857
16328TIP3   OH270398   3.066   1.743  16.191  0.0355 -0.5135  0.8807
16328TIP3    H170399   3.063   1.672  16.126  2.3891  0.4294 -0.3837
16328TIP3    H270400   3.154   1.738  16.229  0.1810  1.5290  0.9457
16329TIP3   OH270401   4.298   1.196  17.060  0.4782  0.1303 -0.3794
16329TIP3    H170402   4.270   1.242  16.981  0.8333  0.0341 -0.5651
16329TIP3    H270403   4.303   1.104  17.033 -1.4710 -0.2320  0.3215
16330TIP3   OH270404   4.839   2.494  16.500 -0.1457  0.3622 -0.4713
16330TIP3    H170405   4.877   2.515  16.585 -2.8816  0.0629  0.9302
16330TIP3    H270406   4.883   2.553  16.439  0.7434  1.7481  1.4063
16331TIP3   OH270407   1.195   4.030   1.741 -0.1934  0.1670 -0.1022
16331TIP3    H170408   1.170   3.970   1.671 -0.6057  0.7822 -0.4914
16331TIP3    H270409   1.112   4.072   1.766 -0.5689 -1.8120  2.4737
16332TIP3   OH270410   3.316   3.116   3.249 -0.2980  0.4211  0.2439
16332TIP3    H170411   3.289   3.203   3.220  0.3126  0.2715 -0.8635
16332TIP3    H270412   3.411   3.123   3.261 -0.2211 -0.1195 -0.0020
16333TIP3   OH270413   3.090   2.510   0.607  0.3597 -0.6604  0.1133
16333TIP3    H170414   3.123   2.593   0.574 -0.6915 -0.8495 -1.5340
16333TIP3    H270415   3.093   2.451   0.532 -1.0060 -1.4723  0.6568
16334TIP3   OH270416   4.521   6.725  10.557  0.2476  0.3842  0.2338
16334TIP3    H170417   4.589   6.691  10.498 -0.5297 -0.0005 -0.4641
16334TIP3    H270418   4.472   6.647  10.583 -0.9932  0.8450 -0.6554
16335TIP3   OH270419   5.078   1.901   4.920 -0.1894  0.2137 -0.2342
16335TIP3    H170420   5.034   1.826   4.881 -0.0106 -0.2866  0.4989
16335TIP3    H270421   5.159   1.910   4.870 -0.4244  0.2119 -0.6208
16336TIP3   OH270422   2.052   6.234   6.130  0.1887  0.0480  0.0201
16336TIP3    H170423   2.059   6.277   6.215  0.9751  0.4518 -0.2415
16336TIP3    H270424   2.083   6.145   6.146  0.2273  0.0902  0.1844
16337TIP3   OH270425   6.296   0.646   5.215  0.1210 -0.1461 -0.0181
16337TIP3    H170426   6.239   0.603   5.278  0.5068 -0.1425  0.3382
16337TIP3    H270427   6.373   0.589   5.209 -0.1070 -0.3757 -0.8203
16338TIP3   OH270428   0.746   1.917   0.943 -0.1149  0.7249 -0.1802
16338TIP3    H170429   0.664   1.965   0.927  0.4255  0.9156 -2.9269
16338TIP3    H270430   0.718   1.836   0.985 -1.5529  1.4138  0.2628
16339TIP3   OH270431   4.785   5.425   5.727 -0.1206  0.7881 -0.3574
16339TIP3    H170432   4.855   5.471   5.774 -0.1698  0.1972  0.3115
16339TIP3    H270433   4.705   5.451   5.772 -0.0302 -1.0096  0.9556
16340TIP3   OH270434   5.573   3.053   2.033  0.4898 -0.0143  0.1964
16340TIP3    H170435   5.588   3.103   2.114  2.9619  0.2321 -0.3588
16340TIP3    H270436   5.629   2.976   2.041  1.3226  0.3735 -1.5821
16341TIP3   OH270437   4.264   5.273  13.673  0.1637 -0.3507  0.7281
16341TIP3    H170438   4.178   5.312  13.692  0.3648  2.5774 -3.0861
16341TIP3    H270439   4.323   5.312  13.737 -0.7053  0.9732  0.7549
16342TIP3   OH270440   1.102   6.135  13.312 -0.3110  0.2414 -0.7213
16342TIP3    H170441   1.104   6.097  13.400 -1.2682  0.8854 -0.4119
16342TIP3    H270442   1.177   6.095  13.268 -0.7232 -1.2945 -0.1199
16343TIP3   OH270443   0.592   0.365  12.773 -0.4275 -0.0016  0.6556
16343TIP3    H170444   0.572   0.406  12.689 -1.3922  0.9353  1.3306
16343TIP3    H270445   0.508   0.359  12.818 -0.0024 -0.9881  1.3537
16344TIP3   OH270446   6.393   1.422  12.908  0.4290  0.1419  0.4184
16344TIP3    H170447   6.373   1.374  12.988 -0.4175 -0.0759  0.0933
16344TIP3    H270448   6.379   1.358  12.838 -0.6800  0.8258 -0.0196
16345TIP3   OH270449   3.721   0.980  12.681 -0.2175 -0.1346  0.0811
16345TIP3    H170450   3.647   0.929  12.647  1.2676 -1.2277 -1.6462
16345TIP3    H270451   3.779   0.992  12.607  1.1541  1.1039  1.2875
16346TIP3   OH270452   1.908   0.599  13.222  0.0006  0.8177  0.5576
16346TIP3    H170453   1.913   0.510  13.187 -0.2419  1.3655 -0.9456
16346TIP3    H270454   1.816   0.623  13.215 -0.0201  1.0341  1.3994
16347TIP3   OH270455   3.590   1.394   1.866 -0.1101 -0.6080  0.2554
16347TIP3    H170456   3.573   1.407   1.960 -2.2604  0.3048 -0.1954
16347TIP3    H270457   3.508   1.356   1.833  0.5608 -0.7513 -1.2974
16348TIP3   OH270458   3.849   3.314   2.414 -0.1833 -0.2586 -0.1624
16348TIP3    H170459   3.902   3.251   2.365  1.0653  1.1331 -0.6727
16348TIP3    H270460   3.899   3.330   2.494 -1.2621 -1.0493  0.7014
16349TIP3   OH270461   1.132   5.836  16.095  0.0950 -0.4298 -0.2982
16349TIP3    H170462   1.180   5.805  16.173  1.5619  0.9768 -0.6032
16349TIP3    H270463   1.061   5.890  16.131  1.9871  1.9408  0.1048
16350TIP3   OH270464   5.525   0.004  12.943 -0.4779  0.0910  0.0331
16350TIP3    H170465   5.604   0.038  12.902 -0.1442 -0.9341 -0.2069
16350TIP3    H270466   5.499   0.071  13.006  0.9496  0.1653  0.5758
16351TIP3   OH270467   6.261   0.867   1.005 -0.2170 -0.1198  0.1891
16351TIP3    H170468   6.166   0.869   0.997 -0.2631  2.7935  0.3756
16351TIP3    H270469   6.277   0.870   1.100  0.0709 -0.3762  0.1514
16352TIP3   OH270470   5.630   4.785  14.274 -0.2910 -0.6907 -0.4026
16352TIP3    H170471   5.535   4.774  14.270 -0.0722 -3.1307 -0.5736
16352TIP3    H270472   5.650   4.795  14.367 -0.7249  0.1146 -0.3917
16353TIP3   OH270473   5.102   5.901  10.501  0.3017  0.1730 -0.4525
16353TIP3    H170474   5.060   5.972  10.551 -0.7070  0.0722 -1.1210
16353TIP3    H270475   5.160   5.946  10.440  1.7880  0.2873  0.9669
16354TIP3   OH270476   6.561   4.363   0.136  0.1123 -0.3438 -0.0614
16354TIP3    H170477   6.648   4.362   0.098 -0.0158 -0.8275 -0.3581
16354TIP3    H270478   6.507   4.411   0.072 -0.2510 -1.7547 -0.8582
16355TIP3   OH270479   6.099   1.631  16.451  0.0423 -0.1012  0.2119
16355TIP3    H170480   6.013   1.596  16.476  0.6157  0.3088  3.1090
16355TIP3    H270481   6.154   1.615  16.527  2.3311  0.4237 -1.2611
16356TIP3   OH270482   0.622   6.685  13.405 -0.2892 -0.3850  0.3723
16356TIP3    H170483   0.666   6.667  13.322 -0.1971  0.6673  0.1768
16356TIP3    H270484   0.551   6.746  13.381 -1.0895 -1.1071  0.8649
16357TIP3   OH270485   0.012   0.596   2.447 -0.5387 -0.7452 -0.1569
16357TIP3    H170486  -0.017   0.672   2.496 -1.2254  0.1261 -1.8427
16357TIP3    H270487   0.050   0.538   2.513  2.0085  1.9270  0.9440
16358TIP3   OH270488   0.887   4.223   6.618 -0.1469  0.6883 -0.6228
16358TIP3    H170489   0.837   4.304   6.634 -1.0134  0.1070 -0.3326
16358TIP3    H270490   0.907   4.190   6.705  0.2886  0.6358 -0.7421
16359TIP3   OH270491   6.543   0.381  11.641  0.4258  0.1643  0.3759
16359TIP3    H170492   6.599   0.351  11.713  1.3868 -1.0564 -0.8308
16359TIP3    H270493   6.462   0.330  11.652  0.2646  0.5443  1.0182
16360TIP3   OH270494   0.921   5.821   2.533 -0.0597  0.6629 -0.4436
16360TIP3    H170495   0.976   5.782   2.602 -1.4047  0.1365  0.3788
16360TIP3    H270496   0.925   5.915   2.550  3.1620  1.0112 -2.4059
16361TIP3   OH270497   6.120   3.421   6.325 -0.1897  0.4738  1.1723
16361TIP3    H170498   6.063   3.494   6.350  0.7988  1.2554  1.2306
16361TIP3    H270499   6.061   3.351   6.300 -1.1693  1.3765  0.9076
16362TIP3   OH270500   2.875   1.489  14.772 -0.3472  0.2039 -0.1417
16362TIP3    H170501   2.875   1.423  14.702  1.4546  0.8909 -0.8197
16362TIP3    H270502   2.941   1.458  14.833 -1.7309 -0.2492  1.1822
16363TIP3   OH270503   5.254   6.002   2.054  0.1907 -0.1839  0.0665
16363TIP3    H170504   5.264   5.909   2.076 -0.2860  0.2365  2.3388
16363TIP3    H270505   5.278   6.048   2.134  2.5200  1.8160 -1.6392
16364TIP3   OH270506   2.435   0.501   0.466  0.1026 -0.2611  0.1610
16364TIP3    H170507   2.512   0.470   0.418  1.5182  0.5950  1.7585
16364TIP3    H270508   2.417   0.588   0.431 -0.5559 -0.7150 -0.6520
16365TIP3   OH270509   4.427   2.411   4.084 -0.1349 -0.4404 -0.1080
16365TIP3    H170510   4.386   2.326   4.101 -1.6513  0.7555  2.9088
16365TIP3    H270511   4.395   2.436   3.997 -0.2587 -2.5596 -0.7325
16366TIP3   OH270512   4.984   0.641  12.953 -0.0818  0.4265  0.0091
16366TIP3    H170513   4.930   0.589  13.012  0.2043  1.0936  0.8855
16366TIP3    H270514   4.936   0.642  12.870  0.0162 -1.3923 -0.1000
16367TIP3   OH270515   1.835   1.186   5.375  0.3361  0.3175  0.0926
16367TIP3    H170516   1.751   1.146   5.355  0.0436  0.7227  0.5004
16367TIP3    H270517   1.894   1.112   5.391  0.2890  0.0145 -1.0850
16368TIP3   OH270518   5.082   6.027   6.311  0.1000 -0.0969  0.1430
16368TIP3    H170519   5.103   5.988   6.227 -0.5231  1.7393 -0.9296
16368TIP3    H270520   5.115   6.117   6.305 -0.5373  0.2745  1.6176
16369TIP3   OH270521   4.542   4.797  13.159 -0.2387  0.5121 -0.0267
16369TIP3    H170522   4.591   4.726  13.200  1.5490  1.0620 -1.0887
16369TIP3    H270523   4.600   4.873  13.166 -1.5601  1.5632 -0.0806
16370TIP3   OH270524   0.877   5.766   4.708  0.7871 -0.1167 -0.4588
16370TIP3    H170525   0.843   5.727   4.628  1.5912  0.3259 -1.0338
16370TIP3    H270526   0.922   5.846   4.679  2.2300 -0.6228  0.2509
16371TIP3   OH270527   5.321   0.727   1.579 -0.0278 -0.1405 -0.3858
16371TIP3    H170528   5.299   0.800   1.521 -1.1997 -1.2740 -1.4227
16371TIP3    H270529   5.294   0.757   1.666  1.4623  1.4570 -0.4045
16372TIP3   OH270530   0.273   4.424  13.302  0.4045 -0.1738 -0.1250
16372TIP3    H170531   0.343   4.421  13.367 -0.0900  1.5796  0.5605
16372TIP3    H270532   0.216   4.351  13.325  0.3481  0.2891  1.3131
16373TIP3   OH270533   4.039   2.359  12.974  0.3140 -0.0321 -0.1686
16373TIP3    H170534   3.996   2.327  13.053 -0.2440  0.3218 -0.3194
16373TIP3    H270535   4.085   2.438  13.002  1.2981 -0.6761  0.1010
16374TIP3   OH270536   2.631   6.602   2.574  0.2691  0.0779  0.9507
16374TIP3    H170537   2.617   6.615   2.668 -0.8809  0.3124  0.7640
16374TIP3    H270538   2.620   6.689   2.536 -1.3195 -0.3267  0.3889
16375TIP3   OH270539   0.325   6.695   0.808  0.0576  0.0106 -0.3490
16375TIP3    H170540   0.250   6.731   0.759  0.1322 -0.8362 -1.1148
16375TIP3    H270541   0.399   6.749   0.779  0.0835 -0.4169 -1.1151
16376TIP3   OH270542   4.796   6.647   1.802 -0.0834 -0.5690 -0.1094
16376TIP3    H170543   4.881   6.607   1.820  0.2359  1.2527  3.1595
16376TIP3    H270544   4.817   6.734   1.767 -0.6860 -0.8257 -1.1616
16377TIP3   OH270545   2.544   6.362  16.873 -0.7175  0.3969 -0.7531
16377TIP3    H170546   2.547   6.273  16.909 -2.8185  0.5249 -0.1153
16377TIP3    H270547   2.605   6.359  16.799  0.5295 -1.0703  0.2632
16378TIP3   OH270548   1.609   4.395  13.862  0.2445  0.8010  0.3972
16378TIP3    H170549   1.667   4.440  13.800 -0.6732  1.9831  0.3405
16378TIP3    H270550   1.521   4.416  13.831 -0.2329  1.1421  1.8952
16379TIP3   OH270551   5.370   2.515  15.420 -0.1594 -0.0860 -0.2806
16379TIP3    H170552   5.277   2.527  15.407 -0.3527 -1.9041 -0.8342
16379TIP3    H270553   5.406   2.502  15.332  0.1317 -2.2011  0.0985
16380TIP3   OH270554   0.658   1.627  12.340  0.2337  0.1023  0.8824
16380TIP3    H170555   0.658   1.722  12.351  0.6804  0.4841 -1.6844
16380TIP3    H270556   0.674   1.592  12.428  2.1587  2.4569  1.5848
16381TIP3   OH270557   2.630   1.454   1.262  0.0916  0.8745  0.5141
16381TIP3    H170558   2.615   1.402   1.183  1.7174  0.0059  0.7237
16381TIP3    H270559   2.582   1.536   1.246  0.7490  0.9217 -1.5999
16382TIP3   OH270560   0.175   0.393   5.425  0.4149 -1.0255  0.2876
16382TIP3    H170561   0.106   0.331   5.404 -0.3455 -0.8165  1.9775
16382TIP3    H270562   0.165   0.409   5.519 -0.1400  2.4867 -0.2037
16383TIP3   OH270563   2.143   4.626  12.495 -0.4386 -0.1506 -0.2434
16383TIP3    H170564   2.144   4.661  12.584  1.7940  1.6517 -0.8626
16383TIP3    H270565   2.147   4.531  12.507 -2.7299 -0.1028  1.5257
16384TIP3   OH270566   3.651   1.253   3.878  0.6351  0.4257  0.0198
16384TIP3    H170567   3.588   1.276   3.810  0.5829 -0.6305 -0.3102
16384TIP3    H270568   3.704   1.332   3.889 -0.9930  1.4900  0.6197
16385TIP3   OH270569   5.353   5.871   0.225 -0.3400  0.5607 -0.6261
16385TIP3    H170570   5.415   5.834   0.163 -0.6410  0.3214 -0.7875
16385TIP3    H270571   5.311   5.794   0.265  0.3941  0.6914  0.4270
16386TIP3   OH270572   6.763   5.476   2.991  0.1088 -0.1400  0.4408
16386TIP3    H170573   6.845   5.517   2.963 -0.2807  0.0513 -0.4346
16386TIP3    H270574   6.708   5.550   3.019 -0.4661 -0.0761 -0.8073
16387TIP3   OH270575   2.997   2.786  12.399  0.1659  0.0941  0.0844
16387TIP3    H170576   3.071   2.744  12.354  0.9724  2.0237 -0.5123
16387TIP3    H270577   2.999   2.877  12.368 -1.3734  0.6392  1.4438
16388TIP3   OH270578   5.434   0.121   2.043  0.3662  0.0531 -0.4576
16388TIP3    H170579   5.381   0.086   1.972 -1.0409  0.1651  0.4852
16388TIP3    H270580   5.484   0.192   2.003 -0.4693  0.1732 -1.3296
16389TIP3   OH270581   3.267   0.545  14.864 -0.3805  0.0762 -0.7387
16389TIP3    H170582   3.197   0.567  14.926  0.3392 -0.6380  0.3592
16389TIP3    H270583   3.245   0.595  14.785 -2.0634 -0.0465 -0.3925
16390TIP3   OH270584   0.105   0.369   1.602 -0.2507  0.0863 -0.5129
16390TIP3    H170585   0.197   0.394   1.600  0.1966 -1.5163 -1.8436
16390TIP3    H270586   0.060   0.446   1.638  1.6607  0.6054  0.9228
16391TIP3   OH270587   0.297   5.973   3.108 -0.1077 -0.8520 -0.0837
16391TIP3    H170588   0.373   5.923   3.078  0.4688 -1.0137  1.5465
16391TIP3    H270589   0.310   6.061   3.072  1.8421 -0.3641  1.6301
16392TIP3   OH270590   3.301   6.145  14.949 -0.4952  0.3395  0.4425
16392TIP3    H170591   3.337   6.234  14.947 -0.8376  0.4685 -0.2057
16392TIP3    H270592   3.378   6.089  14.962  0.2831  0.4823 -2.6233
16393TIP3   OH270593   3.846   2.973   2.919 -0.0539 -0.1159  0.2149
16393TIP3    H170594   3.808   2.959   2.832  0.3802  0.5650 -0.0971
16393TIP3    H270595   3.936   3.001   2.901 -0.0630  0.3531  0.8722
16394TIP3   OH270596   5.620   4.112  13.639 -0.1746  0.1332 -0.8650
16394TIP3    H170597   5.571   4.164  13.702  0.0133  1.1589 -1.5460
16394TIP3    H270598   5.676   4.175  13.593 -0.1102 -0.6249 -1.8719
16395TIP3   OH270599   1.600   0.245   3.611 -0.4895 -0.0769  0.2669
16395TIP3    H170600   1.689   0.210   3.609 -0.6857 -0.5741  0.1582
16395TIP3    H270601   1.598   0.298   3.691  0.0279  0.2783  0.0511
16396TIP3   OH270602   0.176   0.311   6.526 -0.0102 -0.3146 -0.3483
16396TIP3    H170603   0.081   0.316   6.541  0.1614  1.6486  0.3227
16396TIP3    H270604   0.184   0.283   6.434 -1.1493 -3.4239  0.3442
16397TIP3   OH270605   1.672   3.799   5.588  0.0137  0.1258 -0.1353
16397TIP3    H170606   1.626   3.883   5.596  2.8262  1.8316 -0.5548
16397TIP3    H270607   1.627   3.754   5.517 -2.1989  0.7912  0.7613
16398TIP3   OH270608   6.031   2.311   3.738  0.0859 -0.0942 -0.2584
16398TIP3    H170609   6.077   2.349   3.663  1.1265 -1.5035 -0.3835
16398TIP3    H270610   5.971   2.247   3.699 -0.4269  0.1969  0.0425
16399TIP3   OH270611   3.437   3.236  11.813  0.4662 -0.0071  0.0375
16399TIP3    H170612   3.363   3.251  11.872  0.3023 -0.6422  0.0037
16399TIP3    H270613   3.426   3.302  11.744 -0.7720 -0.8296 -0.6139
16400TIP3   OH270614   5.569   4.554   0.568  0.0760 -0.7162  0.1728
16400TIP3    H170615   5.590   4.485   0.631 -0.7723 -0.7038  0.4746
16400TIP3    H270616   5.492   4.598   0.605  1.1824  1.0552  0.5125
16401TIP3   OH270617   2.742   3.396   0.831  0.2893  0.0363  0.3096
16401TIP3    H170618   2.789   3.405   0.914 -2.1864  0.8419  1.7483
16401TIP3    H270619   2.689   3.317   0.842  0.0694  0.0560 -0.5606
16402TIP3   OH270620   0.473   1.067  16.348  0.1119  0.0418  0.3494
16402TIP3    H170621   0.380   1.079  16.331 -0.5289 -0.4416  3.1626
16402TIP3    H270622   0.508   1.156  16.354 -0.5430  0.2587  1.0400
16403TIP3   OH270623   1.332   2.458   0.943  0.3398  0.2402  0.1056
16403TIP3    H170624   1.362   2.536   0.991 -0.8561  0.1294  1.0956
16403TIP3    H270625   1.283   2.493   0.869  0.0728  0.4426  0.3722
16404TIP3   OH270626   2.299   1.413   4.158 -0.3686  0.3084 -1.0649
16404TIP3    H170627   2.293   1.499   4.117  0.8472  0.1239 -1.6914
16404TIP3    H270628   2.391   1.388   4.147 -0.2697 -0.2641  0.7631
16405TIP3   OH270629   0.859   0.215   4.010  0.0793  0.5027 -0.4555
16405TIP3    H170630   0.774   0.175   3.992 -0.4203  0.7364  1.1719
16405TIP3    H270631   0.908   0.206   3.928 -1.9543  1.5411 -1.8715
16406TIP3   OH270632   1.148   5.491  15.721  0.4282  0.1946  0.0093
16406TIP3    H170633   1.092   5.538  15.658  0.6336 -1.2253 -1.2883
16406TIP3    H270634   1.129   5.533  15.805 -2.3015  0.0749 -0.4353
16407TIP3   OH270635   0.916   4.102  12.961  0.2415  0.1420 -0.6845
16407TIP3    H170636   0.909   4.017  12.919  0.7459 -0.0642 -0.3525
16407TIP3    H270637   1.006   4.107  12.993  0.3833  1.0198 -1.1748
16408TIP3   OH270638   6.661   0.905   1.301 -0.2865  0.1961  0.0615
16408TIP3    H170639   6.750   0.911   1.264 -0.7624 -1.0580 -1.4090
16408TIP3    H270640   6.614   0.978   1.262 -0.0500  0.5508  0.4314
16409TIP3   OH270641   1.285   4.700   6.165  0.1698 -0.0894  0.5075
16409TIP3    H170642   1.300   4.641   6.238 -0.1249 -1.3162 -0.3812
16409TIP3    H270643   1.204   4.668   6.125  0.1056  0.8074 -0.1101
16410TIP3   OH270644   5.516   3.038   0.330  0.0855  0.7974 -0.0752
16410TIP3    H170645   5.447   3.082   0.379  0.0393 -0.5121  1.1024
16410TIP3    H270646   5.479   2.952   0.310  0.5622  0.8814 -1.3897
16411TIP3   OH270647   4.316   3.965   0.066  0.1474 -0.1376  0.5182
16411TIP3    H170648   4.234   3.964   0.018  0.1584  1.3919  0.4095
16411TIP3    H270649   4.352   3.877   0.056  0.5155  0.2968 -2.8948
16412TIP3   OH270650   3.588   2.535   4.869  0.7412 -0.5409  0.1030
16412TIP3    H170651   3.502   2.566   4.841  1.2921  1.1846  0.2134
16412TIP3    H270652   3.589   2.548   4.963  1.0703 -0.7013  0.1231
16413TIP3   OH270653   4.515   1.673   4.591  0.0158 -0.0419 -0.6296
16413TIP3    H170654   4.588   1.658   4.531 -0.0627  2.7419 -1.5432
16413TIP3    H270655   4.437   1.662   4.537 -0.0732  1.6028 -0.8924
16414TIP3   OH270656   2.403   4.467  15.482  1.2668 -0.2798 -0.0479
16414TIP3    H170657   2.378   4.515  15.562 -0.8112 -2.0351  0.4340
16414TIP3    H270658   2.361   4.516  15.411  0.0035 -0.7527  0.3395
16415TIP3   OH270659   1.495   2.847  13.942 -0.0554 -0.1045 -0.4914
16415TIP3    H170660   1.407   2.828  13.975 -0.2730  1.6704  0.0402
16415TIP3    H270661   1.553   2.810  14.008 -0.4799  2.2775  1.3591
16416TIP3   OH270662   3.675   1.551   3.688  0.0923  0.2722 -0.1755
16416TIP3    H170663   3.674   1.459   3.660  0.5870  0.3660 -0.5168
16416TIP3    H270664   3.764   1.580   3.671 -1.0802  2.1356 -4.4986
16417TIP3   OH270665   5.960   4.034   4.446  0.0861  0.1600 -0.2666
16417TIP3    H170666   5.902   4.096   4.491  0.2403 -0.3097  0.5816
16417TIP3    H270667   6.040   4.033   4.498  0.1211 -0.6891 -0.3309
16418TIP3   OH270668   0.378   5.039   0.225  0.2322 -0.0934 -0.1193
16418TIP3    H170669   0.360   4.993   0.142  1.9759 -2.7316  0.8154
16418TIP3    H270670   0.448   5.101   0.203 -2.0246  2.2035 -1.3700
16419TIP3   OH270671   5.185   6.340   0.290  0.1157 -0.2744  0.4672
16419TIP3    H170672   5.212   6.431   0.279 -2.2131  0.3046 -1.2935
16419TIP3    H270673   5.201   6.299   0.205 -0.3884 -1.0428  0.7286
16420TIP3   OH270674   6.751   5.235   0.737 -0.1387  0.2346 -0.1434
16420TIP3    H170675   6.706   5.170   0.792 -0.6392 -0.0645 -0.8897
16420TIP3    H270676   6.843   5.209   0.739 -0.1732  0.1426  0.4348
16421TIP3   OH270677   3.150   5.458  15.408  0.1063  0.0174 -0.0512
16421TIP3    H170678   3.233   5.429  15.370  0.1939 -0.8873  0.7720
16421TIP3    H270679   3.164   5.450  15.502 -0.6059  0.7711  0.1255
16422TIP3   OH270680   1.536   4.381   1.071 -0.0151 -0.8517 -0.3990
16422TIP3    H170681   1.521   4.459   1.124  0.8396 -0.3802 -0.8377
16422TIP3    H270682   1.606   4.334   1.116  0.0488 -0.9416 -0.5893
16423TIP3   OH270683   3.559   2.095  13.237 -0.4262  0.1003  0.4581
16423TIP3    H170684   3.652   2.100  13.259 -0.5006 -1.2006  1.1635
16423TIP3    H270685   3.556   2.043  13.157 -0.4367  1.8226 -0.7345
16424TIP3   OH270686   2.852   6.043   6.547  0.7067 -0.2643 -0.5656
16424TIP3    H170687   2.784   5.997   6.596  1.4287 -1.0346 -0.2582
16424TIP3    H270688   2.819   6.132   6.538 -0.6777 -0.8027 -1.0882
16425TIP3   OH270689   0.868   5.919   2.932 -0.5249  0.6887 -0.0316
16425TIP3    H170690   0.867   5.845   2.993  1.2165 -0.7249 -1.5909
16425TIP3    H270691   0.949   5.965   2.951 -0.7374  1.1598 -0.2534
16426TIP3   OH270692   3.758   6.800   3.301  0.1542 -0.0037 -0.0674
16426TIP3    H170693   3.798   6.758   3.378 -0.2419  0.6210  0.4934
16426TIP3    H270694   3.802   6.760   3.226  0.2435 -0.9393  0.4705
16427TIP3   OH270695   1.849   1.419  16.871 -0.3662 -0.4846 -0.0224
16427TIP3    H170696   1.887   1.461  16.948  0.2375  0.0526 -0.6006
16427TIP3    H270697   1.924   1.388  16.821 -0.5028  2.1508 -2.0790
16428TIP3   OH270698   0.381   5.946   1.615 -0.5597  0.2867 -0.0633
16428TIP3    H170699   0.418   6.032   1.598  0.6564  0.6778  3.6470
16428TIP3    H270700   0.286   5.959   1.609 -0.3583  1.4664 -1.0311
16429TIP3   OH270701   1.914   6.166  14.381  0.2637 -0.4417 -0.1127
16429TIP3    H170702   1.956   6.251  14.396  0.2124 -0.6148  1.1219
16429TIP3    H270703   1.960   6.106  14.439 -1.6765 -0.6349  1.3472
16430TIP3   OH270704   1.118   2.946  15.456 -0.0262 -0.4110  0.3716
16430TIP3    H170705   1.088   3.035  15.476 -3.0384 -1.0998 -0.4357
16430TIP3    H270706   1.144   2.910  15.540 -0.1733  0.7854  0.9542
16431TIP3   OH270707   1.193   1.975  12.294  0.4569 -0.0179  0.1627
16431TIP3    H170708   1.189   2.035  12.369  0.3507  0.3028 -0.0968
16431TIP3    H270709   1.215   1.890  12.332  0.9425  0.2556  0.4963
16432TIP3   OH270710   3.452   3.510   1.180  0.2916  0.2446 -0.0589
16432TIP3    H170711   3.525   3.453   1.202 -0.6825 -0.7798  0.6278
16432TIP3    H270712   3.437   3.562   1.258 -1.5576 -1.6263  0.9179
16433TIP3   OH270713   2.395   2.947   0.340  0.1063 -0.5786 -0.0417
16433TIP3    H170714   2.414   2.854   0.344 -0.2091 -0.6267  0.3978
16433TIP3    H270715   2.433   2.983   0.420  0.1023 -0.3492 -0.1398
16434TIP3   OH270716   0.433   2.478   5.515 -0.2384  0.2728  0.0615
16434TIP3    H170717   0.526   2.457   5.515 -0.8958 -3.3263  0.7957
16434TIP3    H270718   0.412   2.493   5.423  1.0305  1.0207 -0.1204
16435TIP3   OH270719   5.759   3.274  13.220  0.1551  0.1241  0.7940
16435TIP3    H170720   5.837   3.243  13.265 -0.3596 -0.9063  1.0141
16435TIP3    H270721   5.739   3.358  13.262  2.9363  2.1095 -1.4098
16436TIP3   OH270722   1.196   1.194  17.048 -0.3344  0.0599 -0.4760
16436TIP3    H170723   1.120   1.234  17.090  0.5526  1.1023  0.2020
16436TIP3    H270724   1.186   1.100  17.064 -1.5826  0.1532 -0.5945
16437TIP3   OH270725   5.490   3.865   4.859 -0.4122  0.7962  0.3559
16437TIP3    H170726   5.540   3.796   4.903  0.4511  0.0843 -1.6129
16437TIP3    H270727   5.399   3.842   4.874 -0.1748 -1.6023 -1.3175
16438TIP3   OH270728   5.060   2.187  11.314 -0.4358  0.3243  0.5522
16438TIP3    H170729   5.111   2.194  11.395  0.6018  1.1373 -0.1363
16438TIP3    H270730   5.045   2.278  11.288 -0.4815  0.0636 -0.3426
16439TIP3   OH270731   2.787   1.129   5.664  0.0248  0.3771 -0.0019
16439TIP3    H170732   2.699   1.151   5.692  0.5086  1.0358  1.0471
16439TIP3    H270733   2.840   1.130   5.744  0.8502 -0.7447 -0.4956
16440TIP3   OH270734   3.633   3.998  15.765  0.2449  0.6947  0.9865
16440TIP3    H170735   3.557   3.968  15.715 -0.2800  0.6543  1.7851
16440TIP3    H270736   3.659   4.080  15.721 -0.8189  1.1877  1.2264
16441TIP3   OH270737   0.754   6.197  13.678 -0.1085  0.2128 -0.0552
16441TIP3    H170738   0.774   6.182  13.586  2.6699 -0.2324  0.5565
16441TIP3    H270739   0.803   6.130  13.726 -2.9810 -0.8084  1.7305
16442TIP3   OH270740   4.915   6.426   0.220  0.2767  0.3673  0.1435
16442TIP3    H170741   5.007   6.429   0.248 -0.2220  1.3889  1.8681
16442TIP3    H270742   4.911   6.485   0.145  1.4404 -1.4776 -1.4426
16443TIP3   OH270743   1.797   5.104   5.737  0.0010 -0.4106 -0.5293
16443TIP3    H170744   1.817   5.013   5.717  2.5934 -0.7197  2.5905
16443TIP3    H270745   1.755   5.101   5.823 -0.2103  1.3007 -0.5442
16444TIP3   OH270746   1.809   2.229  12.564  0.2705  0.1851  0.2450
16444TIP3    H170747   1.760   2.147  12.558 -0.4189  0.3353  2.9811
16444TIP3    H270748   1.759   2.283  12.624  0.9286  2.5307 -1.1959
16445TIP3   OH270749   4.673   5.421  11.554 -0.1409  0.8938  0.2732
16445TIP3    H170750   4.706   5.364  11.623 -0.2091  0.2555 -0.2097
16445TIP3    H270751   4.749   5.436  11.498 -0.3314  0.5527 -0.0818
16446TIP3   OH270752   4.698   0.861  16.455  0.2629  0.0411  0.4211
16446TIP3    H170753   4.605   0.842  16.467  0.6092 -2.2791  0.0420
16446TIP3    H270754   4.702   0.914  16.375 -0.8235  1.8168  1.4817
16447TIP3   OH270755   2.982   1.127  16.802 -0.3049 -0.0200  0.2293
16447TIP3    H170756   3.077   1.135  16.795 -0.3926  1.7863  0.5973
16447TIP3    H270757   2.969   1.074  16.881  0.3684 -2.0937 -0.9606
16448TIP3   OH270758   2.384   1.709  13.905 -0.6378 -0.1628  0.2829
16448TIP3    H170759   2.379   1.750  13.991  0.2189  2.0238 -0.6283
16448TIP3    H270760   2.438   1.631  13.917  0.4156  0.7319  1.5069
16449TIP3   OH270761   3.258   2.021   3.781  0.4089 -0.3882 -0.6648
16449TIP3    H170762   3.257   2.116   3.796  1.1259 -0.3205 -1.0242
16449TIP3    H270763   3.194   1.986   3.844  0.0132  0.3457 -0.6475
16450TIP3   OH270764   1.923   2.186  16.272 -0.1912 -0.0622 -0.2370
16450TIP3    H170765   1.934   2.093  16.287 -0.2347 -0.0341 -0.0237
16450TIP3    H270766   1.976   2.205  16.194  0.5710 -0.0903  0.2690
16451TIP3   OH270767   6.760   0.148  10.612 -0.1644 -0.1736  0.5734
16451TIP3    H170768   6.851   0.168  10.590 -0.7991  1.0095 -1.2164
16451TIP3    H270769   6.709   0.201  10.552 -2.0859  0.1360  2.3701
16452TIP3   OH270770   1.556   6.362  13.413  0.3022  0.2799  0.4291
16452TIP3    H170771   1.516   6.444  13.384 -2.3452 -0.4945  1.5681
16452TIP3    H270772   1.563   6.372  13.508  0.0655 -0.7633  0.5615
16453TIP3   OH270773   3.331   2.470   2.574  0.3992 -0.5623  0.3216
16453TIP3    H170774   3.314   2.421   2.493  3.0144  1.7514 -1.8369
16453TIP3    H270775   3.312   2.561   2.551  0.2091  0.0792  2.7138
16454TIP3   OH270776   1.983   5.594  13.913  0.4907 -0.5694 -0.8162
16454TIP3    H170777   1.999   5.531  13.843  1.7300  1.2042 -2.2411
16454TIP3    H270778   2.034   5.671  13.887  0.0960  0.5495  1.5026
16455TIP3   OH270779   3.259   0.074   3.312  0.1707  0.4749 -0.5355
16455TIP3    H170780   3.223  -0.013   3.294  0.4023  0.0305  1.0478
16455TIP3    H270781   3.315   0.062   3.389  0.4875  1.9570 -0.5044
16456TIP3   OH270782   3.030   4.957   3.427  0.2103  0.0871 -0.3165
16456TIP3    H170783   3.026   4.875   3.377  0.6139  0.2058 -0.5512
16456TIP3    H270784   2.939   4.986   3.433 -0.2218 -1.5194  1.7062
16457TIP3   OH270785   5.941   5.127   4.818  0.4736 -0.2324 -0.6972
16457TIP3    H170786   5.894   5.210   4.826 -0.2861 -0.7923  1.6942
16457TIP3    H270787   5.900   5.082   4.744 -0.8646  0.4885 -0.4202
16458TIP3   OH270788   6.482   0.153   5.712  0.2643 -0.2866  0.0504
16458TIP3    H170789   6.401   0.141   5.663  0.4423 -0.0654 -0.3013
16458TIP3    H270790   6.499   0.067   5.751 -0.0433 -0.3782 -0.0161
16459TIP3   OH270791   6.662   4.636   0.748  0.4336  0.1115 -0.1496
16459TIP3    H170792   6.661   4.682   0.663 -0.7029 -1.7956 -1.2372
16459TIP3    H270793   6.706   4.553   0.729 -1.4425 -1.1300  0.6342
16460TIP3   OH270794   6.714   3.105  12.130 -0.0583  0.3478  0.4488
16460TIP3    H170795   6.747   3.031  12.078  0.6382  0.9867 -0.0385
16460TIP3    H270796   6.753   3.182  12.089 -1.4103  1.0598  0.4667
16461TIP3   OH270797   1.862   4.670   2.692 -0.1079  0.0542 -0.0186
16461TIP3    H170798   1.767   4.659   2.690 -0.1391  0.3369 -0.1664
16461TIP3    H270799   1.897   4.584   2.667 -0.3057 -0.3949  1.2086
16462TIP3   OH270800   6.676   3.439  11.652 -0.3394  0.4128  0.8720
16462TIP3    H170801   6.638   3.508  11.706  1.4682  1.8154  0.4779
16462TIP3    H270802   6.698   3.483  11.570 -1.6738 -1.3240 -0.4872
16463TIP3   OH270803   2.397   1.430  12.558 -0.3971 -0.7936  0.2710
16463TIP3    H170804   2.396   1.491  12.632 -2.3183 -0.5156  0.0745
16463TIP3    H270805   2.473   1.375  12.574  1.3370  1.5121  0.5415
16464TIP3   OH270806   0.967   6.140   0.457 -0.2690  0.1087 -0.6549
16464TIP3    H170807   1.042   6.133   0.516 -0.6359  1.2077 -0.0450
16464TIP3    H270808   0.940   6.049   0.443  1.1240 -0.3015 -0.8380
16465TIP3   OH270809   4.179   1.487   6.269 -0.3662 -0.2162  0.8398
16465TIP3    H170810   4.106   1.485   6.207  0.4482 -1.3364 -0.1274
16465TIP3    H270811   4.178   1.402   6.312 -0.0439  0.0149  1.3188
16466TIP3   OH270812   4.940   5.040  15.652 -0.5006  0.2659  0.3513
16466TIP3    H170813   4.895   5.062  15.571 -1.4929 -1.9175  0.2439
16466TIP3    H270814   4.871   5.031  15.717  0.0871  0.0954  0.9708
16467TIP3   OH270815   5.300   0.402   3.238 -0.1023 -0.7750  0.1499
16467TIP3    H170816   5.382   0.409   3.286  0.6917 -2.4859 -0.8531
16467TIP3    H270817   5.249   0.478   3.266  2.8057  1.8565 -1.1792
16468TIP3   OH270818   1.915   2.429  11.866 -0.3153 -0.3098 -0.4588
16468TIP3    H170819   1.940   2.342  11.835  0.5753 -0.3067  0.2142
16468TIP3    H270820   1.902   2.480  11.786 -2.5798 -1.4956 -0.9297
16469TIP3   OH270821   4.326   5.795   1.457  0.2587  0.1944 -0.0294
16469TIP3    H170822   4.292   5.784   1.545  0.9438 -0.5138  0.1570
16469TIP3    H270823   4.265   5.856   1.415  0.7040  1.6911  1.3639
16470TIP3   OH270824   4.263   3.740  14.035 -0.3394  0.1575 -0.1860
16470TIP3    H170825   4.226   3.775  13.954  0.2945 -0.9941 -1.0184
16470TIP3    H270826   4.273   3.816  14.092  0.2895  1.2009 -1.6197
16471TIP3   OH270827   2.349   6.468   3.250 -0.2102 -0.2409 -0.3076
16471TIP3    H170828   2.281   6.405   3.274  0.5799 -0.7690  0.5601
16471TIP3    H270829   2.347   6.469   3.154 -2.5309  0.9615 -0.3204
16472TIP3   OH270830   5.652   6.802   1.786  0.7065  0.2866 -0.4537
16472TIP3    H170831   5.686   6.840   1.867  0.4955 -0.1561 -0.1515
16472TIP3    H270832   5.585   6.740   1.815  1.2211 -0.5098 -0.9181
16473TIP3   OH270833   6.143   4.117   1.033 -0.0949  0.1571  0.1716
16473TIP3    H170834   6.085   4.183   1.071  0.2649  0.2246  0.6131
16473TIP3    H270835   6.181   4.072   1.108  0.0612 -0.2048 -0.1206
16474TIP3   OH270836   4.602   3.504   2.063 -0.3083 -0.7809  0.1077
16474TIP3    H170837   4.610   3.582   2.118 -0.0954 -1.6367  1.3286
16474TIP3    H270838   4.691   3.468   2.061 -0.4137 -1.0210 -0.4184
16475TIP3   OH270839   6.677   1.351  13.505 -0.0125  0.5441  0.4042
16475TIP3    H170840   6.717   1.268  13.478  0.5837  1.0066 -0.2031
16475TIP3    H270841   6.595   1.354  13.456 -0.4831 -0.0996  1.1317
16476TIP3   OH270842   3.361   1.419   2.130  0.1425 -0.0533  0.0670
16476TIP3    H170843   3.389   1.329   2.111 -0.3423  0.0734 -1.2903
16476TIP3    H270844   3.273   1.425   2.095 -0.3558  0.5637  1.3716
16477TIP3   OH270845   1.062   5.669   1.230 -0.0999  0.4068  0.0010
16477TIP3    H170846   1.011   5.689   1.309  1.5325  0.5521  1.0546
16477TIP3    H270847   1.148   5.706   1.246  1.2874 -2.3229 -0.4590
16478TIP3   OH270848   3.078   5.590   6.666  0.4628  0.4033 -0.0440
16478TIP3    H170849   3.105   5.670   6.710  1.3417  0.6469 -0.9775
16478TIP3    H270850   3.089   5.521   6.732  0.5710  0.9233  0.4896
16479TIP3   OH270851   2.634   2.187   0.843  0.2848  0.8093 -0.6138
16479TIP3    H170852   2.571   2.216   0.909  1.8096  4.3321 -0.4930
16479TIP3    H270853   2.589   2.199   0.759 -0.9983 -1.9188 -0.4193
16480TIP3   OH270854   0.448   2.099  15.633  0.7295 -0.6659  0.5308
16480TIP3    H170855   0.498   2.174  15.665  0.4793  0.4787 -1.5375
16480TIP3    H270856   0.359   2.131  15.621  0.3129 -1.6640  0.8221
16481TIP3   OH270857   5.710   5.681   1.691  0.0046  0.3429  0.3780
16481TIP3    H170858   5.761   5.635   1.756  0.5428  1.8387  1.0618
16481TIP3    H270859   5.762   5.759   1.669 -0.8285  0.6211 -0.7625
16482TIP3   OH270860   4.959   5.373   3.185 -0.3014  0.2096  0.1330
16482TIP3    H170861   4.930   5.460   3.156 -0.6534  0.3635  0.9431
16482TIP3    H270862   4.904   5.353   3.261  2.2977  0.9094  2.3216
16483TIP3   OH270863   4.382   3.140   3.520  0.2953 -0.3128  0.1043
16483TIP3    H170864   4.434   3.142   3.600  0.0198 -1.9682  0.3652
16483TIP3    H270865   4.291   3.149   3.550  0.1814 -1.0704  0.0010
16484TIP3   OH270866   5.266   4.412  11.023 -0.5522 -0.0632  0.1190
16484TIP3    H170867   5.230   4.333  11.065 -1.1483 -0.7168 -1.5551
16484TIP3    H270868   5.361   4.397  11.023 -0.5434 -0.1060  1.0811
16485TIP3   OH270869   4.564   0.702  12.864 -0.2526 -0.1118 -0.1261
16485TIP3    H170870   4.477   0.739  12.850  0.2361  1.3949  0.5649
16485TIP3    H270871   4.590   0.669  12.778 -0.8825  0.8221 -0.6972
16486TIP3   OH270872   3.958   5.903  15.321  0.1298 -0.1829 -0.1564
16486TIP3    H170873   3.966   5.843  15.247  0.1161  0.3939 -0.6275
16486TIP3    H270874   4.039   5.890  15.371  0.6176  0.1654 -0.8342
16487TIP3   OH270875   1.276   4.382   5.273 -0.4249 -0.0240  0.2649
16487TIP3    H170876   1.268   4.477   5.258 -1.7737 -0.2239 -0.3968
16487TIP3    H270877   1.363   4.372   5.312  0.3706  1.3255 -1.0204
16488TIP3   OH270878   3.050   0.515  15.995 -0.2069 -0.1346  0.2706
16488TIP3    H170879   3.009   0.602  15.991 -1.1057 -0.4382  1.9167
16488TIP3    H270880   3.119   0.518  15.929 -0.7126  1.5717 -0.2329
16489TIP3   OH270881   0.620   2.314  15.685  0.8956  0.5085  0.2696
16489TIP3    H170882   0.665   2.398  15.675 -1.0246  1.4956 -0.6838
16489TIP3    H270883   0.668   2.254  15.627  1.8500  1.1289  0.3935
16490TIP3   OH270884   1.890   4.401  10.344  0.7369  0.6295 -0.3131
16490TIP3    H170885   1.915   4.478  10.292 -1.1758  2.4722  1.3427
16490TIP3    H270886   1.808   4.371  10.304  1.2041 -0.2673 -0.6258
16491TIP3   OH270887   5.511   6.345  14.152  0.0340 -0.0168  0.6402
16491TIP3    H170888   5.553   6.261  14.169  0.0624  0.0640  0.9739
16491TIP3    H270889   5.583   6.402  14.123  0.0157 -0.1070  0.4185
16492TIP3   OH270890   6.390   3.010  13.525  0.6898  0.0944 -0.0308
16492TIP3    H170891   6.453   3.081  13.536  0.2994  0.3678  0.4408
16492TIP3    H270892   6.330   3.041  13.458 -0.6785  1.0703  1.5852
16493TIP3   OH270893   2.272   2.766  12.094  0.4906  0.3883 -0.3341
16493TIP3    H170894   2.258   2.671  12.100 -0.8558  0.5358 -0.7234
16493TIP3    H270895   2.334   2.785  12.164  1.8201 -0.9561 -1.0747
16494TIP3   OH270896   5.175   4.443   2.062  0.2467 -0.0942  0.8030
16494TIP3    H170897   5.123   4.413   1.988  0.4047 -0.8317  0.9853
16494TIP3    H270898   5.260   4.399   2.051 -0.5864 -2.4925  2.9072
16495TIP3   OH270899   4.551   1.557   2.622 -0.0688 -0.3231  0.0955
16495TIP3    H170900   4.569   1.576   2.714 -2.0848 -2.3686  1.0077
16495TIP3    H270901   4.521   1.641   2.586  2.1378  0.8724  0.8461
16496TIP3   OH270902   3.467   0.729   4.438  0.2377 -0.2500 -0.6812
16496TIP3    H170903   3.442   0.760   4.352 -0.0775  1.2639 -0.0769
16496TIP3    H270904   3.485   0.635   4.426 -2.8373 -0.8144 -1.7332
16497TIP3   OH270905   2.538   2.800  13.304 -0.0084  0.4602  0.3900
16497TIP3    H170906   2.511   2.737  13.237  2.5530  1.2474 -1.5362
16497TIP3    H270907   2.534   2.751  13.386  1.1861 -2.0571 -0.9394
16498TIP3   OH270908   4.506   5.910   4.779  0.3204 -0.0063 -0.1866
16498TIP3    H170909   4.589   5.890   4.822  0.0020 -2.2650 -0.4842
16498TIP3    H270910   4.529   5.928   4.688  0.6683  1.6973  0.1945
16499TIP3   OH270911   6.012   6.078  11.271  0.2923  0.4539  0.3175
16499TIP3    H170912   5.971   6.000  11.234  0.7003  1.0017 -1.3836
16499TIP3    H270913   5.940   6.141  11.280 -0.1180 -0.1997  2.0868
16500TIP3   OH270914   3.067   3.705   0.344 -0.0520  0.1213  0.3634
16500TIP3    H170915   3.097   3.721   0.255 -1.1233  0.7548  0.1046
16500TIP3    H270916   3.049   3.792   0.380  0.4494 -0.1223  1.2323
16501TIP3   OH270917   0.903   2.522  16.059 -0.1555  0.0808  0.1917
16501TIP3    H170918   0.832   2.470  16.095 -0.0263 -2.3295 -2.6184
16501TIP3    H270919   0.983   2.480  16.092 -0.0241  0.6293  0.5873
16502TIP3   OH270920   1.409   6.361  10.755  0.1019 -0.3192 -0.1457
16502TIP3    H170921   1.358   6.286  10.786  0.8929 -0.0875  1.8563
16502TIP3    H270922   1.456   6.328  10.679 -1.0525 -1.2807 -0.4728
16503TIP3   OH270923   4.328   6.390  13.656  0.3623 -1.0612  0.1719
16503TIP3    H170924   4.417   6.356  13.645  0.9682  0.4697  0.2083
16503TIP3    H270925   4.288   6.380  13.570  1.6705  1.2212 -0.7958
16504TIP3   OH270926   6.461   0.963  11.603  0.0184 -0.2016  0.1049
16504TIP3    H170927   6.377   0.920  11.585 -0.2689 -0.0121  0.9569
16504TIP3    H270928   6.460   0.980  11.697  0.1701  1.5738 -0.1814
16505TIP3   OH270929   5.862   2.832  14.119 -0.2568  0.4666 -0.0267
16505TIP3    H170930   5.793   2.862  14.059  1.6173  0.8962 -2.0893
16505TIP3    H270931   5.852   2.737  14.121  0.0542  0.3752 -1.5965
16506TIP3   OH270932   4.995   3.358   3.775  0.0822  0.0893  0.2269
16506TIP3    H170933   4.981   3.409   3.696  0.5470  1.8686  1.2252
16506TIP3    H270934   4.907   3.344   3.810 -0.0105  1.0099  0.3945
16507TIP3   OH270935   1.209   3.821  14.694 -0.6040  0.2277 -0.1969
16507TIP3    H170936   1.240   3.825  14.785 -0.2378  0.0144 -0.3073
16507TIP3    H270937   1.257   3.890  14.649  1.0820 -1.2107 -0.7523
16508TIP3   OH270938   4.357   1.249   0.843 -0.0901  0.0147 -0.1724
16508TIP3    H170939   4.307   1.169   0.859  0.7508 -0.3355  0.7921
16508TIP3    H270940   4.409   1.262   0.923 -1.1514  2.2315  0.2385
16509TIP3   OH270941   2.831   1.361  13.393  0.3397 -0.2127 -0.0650
16509TIP3    H170942   2.855   1.311  13.315  2.7996  1.3234 -0.3969
16509TIP3    H270943   2.747   1.403  13.371 -1.1022 -2.9645 -0.2587
16510TIP3   OH270944   3.977   5.691   1.676 -0.0574 -0.3279 -0.4193
16510TIP3    H170945   4.071   5.681   1.661  0.4672  1.5516  1.2297
16510TIP3    H270946   3.970   5.769   1.730 -2.5088 -1.0429  0.4060
16511TIP3   OH270947   5.468   4.868   0.839 -0.4809 -0.1402  0.7912
16511TIP3    H170948   5.438   4.829   0.757 -1.3178 -1.2735  1.6163
16511TIP3    H270949   5.394   4.922   0.868  0.0219  0.7114  0.5462
16512TIP3   OH270950   0.269   1.135  12.110  0.2465  0.0355 -0.1441
16512TIP3    H170951   0.204   1.136  12.039  0.0378 -0.8895  0.0269
16512TIP3    H270952   0.316   1.218  12.100 -0.5918  0.4724 -0.6123
16513TIP3   OH270953   2.836   3.685   1.994 -1.0203 -0.1790 -0.2541
16513TIP3    H170954   2.859   3.764   2.044 -0.3672 -1.2369  1.1731
16513TIP3    H270955   2.757   3.653   2.036 -1.0902 -0.4796 -0.6152
16514TIP3   OH270956   1.594   5.092   4.358  0.2274 -0.0629 -0.4836
16514TIP3    H170957   1.562   5.158   4.418 -0.8673 -0.2812 -0.8074
16514TIP3    H270958   1.679   5.066   4.394 -0.9225 -1.0868  1.6828
16515TIP3   OH270959   3.811   3.044   1.294 -0.5032  0.2744 -0.3437
16515TIP3    H170960   3.787   3.133   1.318 -0.9179  0.0590  0.0478
16515TIP3    H270961   3.875   3.017   1.359 -0.2489  0.3438 -0.5619
16516TIP3   OH270962   0.658   6.711  14.229 -0.6037  0.3669 -0.1316
16516TIP3    H170963   0.703   6.628  14.212 -1.6077 -0.0912 -0.6165
16516TIP3    H270964   0.680   6.731  14.320 -0.1187 -0.2743 -0.0968
16517TIP3   OH270965   2.498   6.154  13.108 -0.4676 -0.2173  0.5298
16517TIP3    H170966   2.466   6.097  13.039 -0.5776  0.1469  0.2748
16517TIP3    H270967   2.483   6.106  13.189  1.2654 -1.4228  0.2038
16518TIP3   OH270968   1.852   1.445   0.976  0.2490 -0.2615  0.1777
16518TIP3    H170969   1.938   1.473   0.946  0.2140  1.4961  1.5419
16518TIP3    H270970   1.867   1.359   1.015  1.8855  0.9099  2.3424
16519TIP3   OH270971   6.043   1.257  12.705  0.2838 -0.2635 -0.1468
16519TIP3    H170972   6.058   1.339  12.656  1.7494 -0.3343  0.1346
16519TIP3    H270973   5.969   1.277  12.762  1.2198  1.2278  0.6291
16520TIP3   OH270974   2.019   6.570   4.007 -0.8721  0.1172 -0.0040
16520TIP3    H170975   1.966   6.531   4.077  0.0214 -0.8469  0.1718
16520TIP3    H270976   1.956   6.594   3.940 -1.4686 -2.0760 -0.3192
16521TIP3   OH270977   2.027   4.613  14.885 -0.5408  0.3424  0.5244
16521TIP3    H170978   1.949   4.571  14.923  0.0172 -3.9839 -2.3484
16521TIP3    H270979   1.992   4.669  14.815 -1.1342  0.5299  0.9564
16522TIP3   OH270980   3.192   0.551   6.247 -0.3859  0.2880  0.1415
16522TIP3    H170981   3.129   0.499   6.296 -0.4520  0.1365 -0.1003
16522TIP3    H270982   3.168   0.537   6.155  1.2142 -1.3868 -0.0917
16523TIP3   OH270983   6.595   5.198  11.767  0.1398  0.2010 -0.0292
16523TIP3    H170984   6.608   5.203  11.672  2.7702  1.5593  0.2966
16523TIP3    H270985   6.638   5.116  11.792 -3.3545 -1.8920 -0.2455
16524TIP3   OH270986   4.057   2.042   2.554  0.3851  0.1533 -0.4063
16524TIP3    H170987   4.009   2.125   2.550 -0.3142 -0.2797 -1.1451
16524TIP3    H270988   4.121   2.056   2.624  0.0547  1.1977 -0.2852
16525TIP3   OH270989   2.374   6.160   1.763 -0.4393  0.0118 -0.0579
16525TIP3    H170990   2.380   6.110   1.682 -1.2044 -0.8351  0.3790
16525TIP3    H270991   2.287   6.200   1.761 -0.6866 -0.4663  0.5771
16526TIP3   OH270992   6.341   3.490  13.000  0.0447 -0.1002  0.2996
16526TIP3    H170993   6.434   3.472  12.985  0.4367  2.2138 -0.5098
16526TIP3    H270994   6.340   3.575  13.045 -1.6806  0.2062 -0.2262
16527TIP3   OH270995   6.641   3.886   5.738  0.8572 -0.2604 -0.2875
16527TIP3    H170996   6.724   3.932   5.725  0.6109  0.2605 -0.0251
16527TIP3    H270997   6.575   3.955   5.741  0.4248 -0.6654 -0.3790
16528TIP3   OH270998   1.488   6.243   2.331 -0.6995 -0.6823  0.0165
16528TIP3    H170999   1.555   6.312   2.329 -1.3384 -0.0235  0.5048
16528TIP3    H271000   1.529   6.170   2.375  0.0568 -0.6899 -0.6774
16529TIP3   OH271001   4.429   4.981   3.314  0.3914  0.0920  0.0217
16529TIP3    H171002   4.417   4.898   3.360  0.3980 -0.1048 -0.3280
16529TIP3    H271003   4.419   4.958   3.221  0.2783  0.5011 -0.0682
16530TIP3   OH271004   3.194   3.213  14.366  0.3965 -0.1081 -0.9125
16530TIP3    H171005   3.182   3.122  14.391 -0.6646 -0.2833 -1.9710
16530TIP3    H271006   3.262   3.211  14.299 -0.5450 -0.2966 -1.8807
16531TIP3   OH271007   0.942   0.323   5.246 -0.0824 -0.6876 -0.5004
16531TIP3    H171008   0.857   0.306   5.207  0.4619 -1.6795 -1.2994
16531TIP3    H271009   0.966   0.240   5.289  0.2816 -0.2784  0.1045
16532TIP3   OH271010   2.770   3.198   4.564  0.1740  0.3252  0.2726
16532TIP3    H171011   2.778   3.233   4.652 -0.1773  2.2424 -0.3902
16532TIP3    H271012   2.678   3.216   4.540 -0.1403 -1.4694  0.0180
16533TIP3   OH271013   1.793   6.317   3.761  0.7921 -0.0530 -0.4802
16533TIP3    H171014   1.701   6.311   3.736  1.5377  1.8103 -4.6099
16533TIP3    H271015   1.802   6.405   3.798  0.7814 -0.5868  0.8224
16534TIP3   OH271016   3.189   2.218  12.773  0.2285  0.0212  0.3792
16534TIP3    H171017   3.096   2.198  12.766 -0.0578  1.2449  0.5681
16534TIP3    H271018   3.232   2.149  12.723 -0.7677 -0.6095  0.3681
16535TIP3   OH271019   2.258   6.020   5.690 -0.0928 -0.9073  0.9651
16535TIP3    H171020   2.177   6.012   5.740 -0.9816  1.6165  0.0955
16535TIP3    H271021   2.328   6.013   5.755 -1.1309  0.2128  2.2603
16536TIP3   OH271022   1.888   0.335   4.873  0.5258  0.4444  0.1590
16536TIP3    H171023   1.867   0.241   4.876 -1.2937  0.8324  1.2266
16536TIP3    H271024   1.933   0.347   4.790 -1.3701 -0.9971 -1.1529
16537TIP3   OH271025   6.370   3.103   5.360 -0.1400  0.3879 -0.1545
16537TIP3    H171026   6.283   3.133   5.388  0.3078  2.7137 -1.0196
16537TIP3    H271027   6.364   3.099   5.265  0.3081 -0.8771 -0.1445
16538TIP3   OH271028   2.472   1.527  15.092 -0.1419  0.4534 -0.2668
16538TIP3    H171029   2.414   1.452  15.084  0.1321  0.1667  0.3479
16538TIP3    H271030   2.427   1.598  15.047 -0.0726 -0.2611 -1.5013
16539TIP3   OH271031   1.472   4.086  13.072 -0.3345  0.2972  0.0530
16539TIP3    H171032   1.494   4.026  13.144 -0.8792 -1.2577 -1.0287
16539TIP3    H271033   1.376   4.090  13.073 -0.3205  0.7706 -0.2105
16540TIP3   OH271034   6.377   0.352   0.617  0.3354 -0.3635 -0.5107
16540TIP3    H171035   6.397   0.297   0.541  0.9866  1.6407 -1.8855
16540TIP3    H271036   6.446   0.332   0.680  0.4665 -1.2124 -0.9084
16541TIP3   OH271037   4.567   6.738  13.006  0.5909 -0.0021  0.1310
16541TIP3    H171038   4.497   6.801  13.024  0.2545 -0.0891 -0.7912
16541TIP3    H271039   4.521   6.657  12.983  0.8614  0.6025 -2.9922
16542TIP3   OH271040   2.986   1.703   5.720 -0.0282  0.5613  0.4501
16542TIP3    H171041   3.048   1.730   5.788  0.0071  0.0134  0.6347
16542TIP3    H271042   2.988   1.608   5.721 -0.6628  0.5391  0.2592
16543TIP3   OH271043   2.857   5.968   1.849 -0.4695  0.0776  0.8328
16543TIP3    H171044   2.899   5.895   1.804 -0.5172 -0.3054  1.4029
16543TIP3    H271045   2.780   5.989   1.795  0.2212  0.5352 -0.0095
16544TIP3   OH271046   4.522   2.672   1.011  0.0289  0.6304 -0.0846
16544TIP3    H171047   4.435   2.683   0.973  0.7115  0.3479 -1.8472
16544TIP3    H271048   4.529   2.578   1.029 -0.4092  0.8058  1.1202
16545TIP3   OH271049   6.735   2.265   2.216 -0.9515  0.3459 -0.1098
16545TIP3    H171050   6.786   2.262   2.297 -1.8071 -1.1676  0.4158
16545TIP3    H271051   6.675   2.191   2.223 -1.9489  0.9730 -1.5456
16546TIP3   OH271052   2.687   5.679   4.749 -0.3122  0.3808  0.2198
16546TIP3    H171053   2.678   5.762   4.796 -1.0001 -0.1161  0.9843
16546TIP3    H271054   2.599   5.658   4.719 -0.4256 -0.8119  1.3194
16547TIP3   OH271055   2.881   5.001   2.702 -0.1066  0.1290  0.0871
16547TIP3    H171056   2.919   4.915   2.689 -0.5052 -0.1327  0.6038
16547TIP3    H271057   2.842   4.997   2.790  1.1505  1.3214  0.7244
16548TIP3   OH271058   4.606   1.714  11.960  0.2874  0.2180 -0.4175
16548TIP3    H171059   4.534   1.651  11.962  0.7957 -0.4282 -1.3838
16548TIP3    H271060   4.564   1.799  11.966 -0.4435 -0.1961  0.5262
16549TIP3   OH271061   5.579   4.337  15.965 -0.0348  0.3322  0.6432
16549TIP3    H171062   5.500   4.360  16.014 -1.5228 -0.8433 -1.0900
16549TIP3    H271063   5.595   4.245  15.986 -0.1015  0.1061 -0.2219
16550TIP3   OH271064   4.578   5.798  14.601  0.3609  0.1180 -0.3324
16550TIP3    H171065   4.582   5.860  14.674 -1.4323 -1.7883  1.5181
16550TIP3    H271066   4.516   5.838  14.539  1.0494  1.2441 -0.3146
16551TIP3   OH271067   1.788   3.432  13.622 -0.1777  0.1476  0.2848
16551TIP3    H171068   1.735   3.475  13.555  1.1411  1.2827 -0.0919
16551TIP3    H271069   1.824   3.355  13.578 -1.1615 -0.3893  0.4135
16552TIP3   OH271070   5.675   4.773   6.325  0.3003 -0.7234 -0.3730
16552TIP3    H171071   5.652   4.865   6.310  0.6732 -0.8999 -2.4042
16552TIP3    H271072   5.683   4.765   6.420 -0.1953  1.2242 -0.1212
16553TIP3   OH271073   3.265   4.544  14.905 -0.2751  0.6107 -0.3485
16553TIP3    H171074   3.346   4.544  14.853 -0.0130  0.5996  0.0532
16553TIP3    H271075   3.295   4.544  14.996 -0.7323  1.7612 -0.1870
16554TIP3   OH271076   5.326   0.827  15.803 -0.2734 -0.1958 -0.5176
16554TIP3    H171077   5.260   0.789  15.860 -1.0763  2.0159  0.1242
16554TIP3    H271078   5.384   0.754  15.780 -1.6739 -1.7319  0.6652
16555TIP3   OH271079   4.663   1.638   3.487 -0.3665 -0.0600 -0.0365
16555TIP3    H171080   4.670   1.703   3.416  0.0475 -0.1521 -0.0842
16555TIP3    H271081   4.752   1.634   3.524 -0.1761 -1.2131 -0.5816
16556TIP3   OH271082   6.370   4.607   5.443  0.4315 -0.2897  0.0290
16556TIP3    H171083   6.404   4.646   5.523  1.3902  3.3154 -1.9331
16556TIP3    H271084   6.445   4.559   5.407  0.8463  0.3866 -0.0283
16557TIP3   OH271085   4.402   3.158   4.325 -0.2570 -0.0092  0.1540
16557TIP3    H171086   4.417   3.065   4.307  1.2221  0.4199 -1.0238
16557TIP3    H271087   4.476   3.184   4.380 -1.7164  0.0607  2.2344
16558TIP3   OH271088   3.137   6.447   2.005  0.4962  0.0262 -0.0572
16558TIP3    H171089   3.108   6.518   1.948  1.9995  0.5231 -0.2694
16558TIP3    H271090   3.107   6.367   1.960  1.0436  0.4357 -1.2084
16559TIP3   OH271091   2.718   6.256  15.927 -0.7440  0.0757 -0.3266
16559TIP3    H171092   2.669   6.201  15.866  0.7695 -2.2737  0.4352
16559TIP3    H271093   2.750   6.329  15.874 -0.3261 -1.3464 -2.1154
16560TIP3   OH271094   1.997   2.267   3.935  0.2191  0.1675  0.0338
16560TIP3    H171095   1.950   2.342   3.897 -0.2941 -0.6814 -1.0726
16560TIP3    H271096   1.975   2.194   3.877  2.6586 -0.3515 -0.3297
16561TIP3   OH271097   6.289   2.636   3.070 -0.1977 -0.3508 -0.3885
16561TIP3    H171098   6.270   2.671   2.983  0.8513 -0.5335 -0.7022
16561TIP3    H271099   6.381   2.657   3.085 -0.4382 -0.0826  0.7987
16562TIP3   OH271100   2.196   3.937  16.862 -0.0854  0.4916 -0.1221
16562TIP3    H171101   2.266   3.884  16.899 -0.7135 -0.6421 -0.5118
16562TIP3    H271102   2.187   3.906  16.772 -2.2027 -0.6433  0.3832
16563TIP3   OH271103   4.370   2.809   2.997  0.6951  0.1843 -0.3823
16563TIP3    H171104   4.364   2.901   3.024 -0.2631  0.1228 -0.3508
16563TIP3    H271105   4.279   2.779   2.994  0.9368 -0.4901 -1.3629
16564TIP3   OH271106   1.564   1.358  16.408 -0.0647 -0.7017 -0.3113
16564TIP3    H171107   1.495   1.424  16.415 -0.3206 -1.0411  0.4175
16564TIP3    H271108   1.611   1.362  16.491  0.5314 -0.7653 -0.6403
16565TIP3   OH271109   1.608   2.459   0.231 -0.1302 -0.6225  0.4068
16565TIP3    H171110   1.560   2.475   0.149 -0.6881 -1.2687  0.5945
16565TIP3    H271111   1.643   2.371   0.221 -0.8964 -1.0297  1.1862
16566TIP3   OH271112   5.817   2.800  13.309 -0.8524 -0.9369 -0.0261
16566TIP3    H171113   5.752   2.782  13.377 -0.0962 -2.3231  0.3797
16566TIP3    H271114   5.887   2.737  13.327 -1.7904 -3.3732 -3.6732
16567TIP3   OH271115   4.616   0.846   5.648  0.5360 -0.6850  0.0169
16567TIP3    H171116   4.702   0.884   5.666  1.0655 -1.0613 -1.5614
16567TIP3    H271117   4.597   0.870   5.557 -1.4742  0.1705  0.6084
16568TIP3   OH271118   3.785   2.597   2.876  0.1152  0.6371  0.0752
16568TIP3    H171119   3.737   2.678   2.889 -2.5088 -0.9834  1.3111
16568TIP3    H271120   3.732   2.548   2.813 -0.7697 -1.7584  2.4609
16569TIP3   OH271121   4.195   2.790   5.577 -0.3640 -0.6178 -0.5592
16569TIP3    H171122   4.175   2.852   5.506  0.7136 -1.9351 -2.0919
16569TIP3    H271123   4.231   2.845   5.647 -0.9343  0.6603 -1.2275
16570TIP3   OH271124   6.437   4.094  15.274  0.1133 -0.0933 -0.4585
16570TIP3    H171125   6.384   4.047  15.339 -0.1384  1.7832  0.7801
16570TIP3    H271126   6.526   4.093  15.311  0.0406  0.6565 -0.2411
16571TIP3   OH271127   4.157   6.727   2.115 -0.2021  0.6438  0.1293
16571TIP3    H171128   4.177   6.772   2.033 -1.0294  0.7810 -0.0030
16571TIP3    H271129   4.167   6.634   2.095 -0.0443  0.6934 -0.0230
16572TIP3   OH271130   0.671   4.820   3.771  0.1030 -0.6427 -0.2804
16572TIP3    H171131   0.648   4.912   3.760 -0.7067 -0.6619  1.0416
16572TIP3    H271132   0.593   4.780   3.808  0.6033 -1.7731 -0.4129
16573TIP3   OH271133   3.190   4.417  15.905  0.1615  0.4245 -0.3998
16573TIP3    H171134   3.231   4.330  15.904 -0.9046 -0.1089 -1.7487
16573TIP3    H271135   3.211   4.454  15.819  0.1541  1.2911 -0.0351
16574TIP3   OH271136   2.677   0.459   0.929 -0.5235 -0.0898 -0.2803
16574TIP3    H171137   2.726   0.389   0.973 -1.0464 -0.9288 -0.9996
16574TIP3    H271138   2.685   0.439   0.836  0.2589  1.4608 -0.5880
16575TIP3   OH271139   3.800   1.183  11.991 -0.0575 -0.0601 -0.6475
16575TIP3    H171140   3.749   1.103  11.985 -1.1249  0.3557  1.7161
16575TIP3    H271141   3.739   1.248  12.027  1.9963  0.4265  2.3966
16576TIP3   OH271142   6.520   3.847  11.847  0.8778  0.2196 -0.5135
16576TIP3    H171143   6.469   3.775  11.886  1.4387 -1.3141 -2.4306
16576TIP3    H271144   6.454   3.910  11.818  0.3611  0.3931  0.9471
16577TIP3   OH271145   4.195   3.708   5.747 -0.2309 -0.0252  0.3402
16577TIP3    H171146   4.212   3.752   5.664  0.2551 -2.1696 -0.7747
16577TIP3    H271147   4.224   3.618   5.732  0.6229 -0.2956  3.1080
16578TIP3   OH271148   4.852   5.879  16.616  0.2206 -0.5350  0.1888
16578TIP3    H171149   4.761   5.906  16.628 -0.0228 -0.8913 -0.7101
16578TIP3    H271150   4.870   5.821  16.689 -0.5069 -1.0211 -0.0055
16579TIP3   OH271151   5.886   6.158  13.216 -0.4577  0.5216 -0.1025
16579TIP3    H171152   5.880   6.213  13.294 -1.1768 -0.3629  0.4951
16579TIP3    H271153   5.799   6.119  13.208  1.0155 -3.6994  1.8870
16580TIP3   OH271154   4.711   5.543   1.813  0.0884  0.0055 -0.7595
16580TIP3    H171155   4.687   5.634   1.830  1.8812  0.4209 -0.2790
16580TIP3    H271156   4.670   5.523   1.729 -2.3801  0.4236  0.2451
16581TIP3   OH271157   5.448   4.911  15.398  0.8632 -0.4347 -0.0624
16581TIP3    H171158   5.488   4.894  15.312 -0.2524  0.8167 -0.8769
16581TIP3    H271159   5.394   4.835  15.415 -1.9023  0.8105 -2.3369
16582TIP3   OH271160   3.715   3.595  14.055  0.1550 -0.1232  0.2419
16582TIP3    H171161   3.626   3.605  14.088  0.4766  0.4908  0.9697
16582TIP3    H271162   3.767   3.574  14.133  0.8276  0.7104  0.0393
16583TIP3   OH271163   2.966   4.405  11.542  0.4611  0.5009 -0.4334
16583TIP3    H171164   3.022   4.392  11.618 -1.7980 -2.8294  0.8930
16583TIP3    H271165   3.009   4.356  11.472  0.9954  0.9874 -0.4482
16584TIP3   OH271166   3.491   2.743   4.634 -0.5211  0.3125 -0.2473
16584TIP3    H171167   3.560   2.761   4.698 -0.7596  1.0598 -0.1886
16584TIP3    H271168   3.518   2.662   4.592 -0.3184 -0.1503  0.7465
16585TIP3   OH271169   3.101   5.108  17.099 -0.0895 -0.1883  0.7059
16585TIP3    H171170   3.158   5.038  17.068  0.6597  0.5259  0.4111
16585TIP3    H271171   3.139   5.188  17.061 -1.8645  0.2174 -0.2917
16586TIP3   OH271172   3.461   2.517   6.622 -0.2337  0.1347  1.0618
16586TIP3    H171173   3.501   2.467   6.694 -1.1297 -0.7191  0.9842
16586TIP3    H271174   3.374   2.479   6.611  0.1032 -0.1782 -0.8935
16587TIP3   OH271175   0.699   1.285   2.575 -0.6211  0.5873 -0.4851
16587TIP3    H171176   0.693   1.381   2.582  0.1168  0.5597  1.1053
16587TIP3    H271177   0.655   1.253   2.654 -0.2284 -0.3585 -0.6387
16588TIP3   OH271178   5.930   6.739   2.456  0.2119 -0.3882 -0.3137
16588TIP3    H171179   5.894   6.815   2.411 -1.5613 -0.3801  1.0148
16588TIP3    H271180   5.857   6.678   2.463  1.5967 -2.3035 -1.4160
16589TIP3   OH271181   3.671   1.473  16.399 -0.6093  0.2478 -0.4298
16589TIP3    H171182   3.645   1.383  16.420 -0.3976  0.3021  0.0993
16589TIP3    H271183   3.747   1.463  16.342  1.5073  0.0163  2.1879
16590TIP3   OH271184   5.664   1.812  16.786 -0.0429 -0.4306  0.1493
16590TIP3    H171185   5.650   1.895  16.741 -2.9039  0.1944  1.9640
16590TIP3    H271186   5.692   1.836  16.874  0.3184 -1.4502  0.3336
16591TIP3   OH271187   5.582   2.338  10.772 -0.6906 -0.2582 -0.1720
16591TIP3    H171188   5.667   2.295  10.783 -0.4431  0.4052  0.5287
16591TIP3    H271189   5.599   2.411  10.713 -1.4476 -2.0748 -2.8364
16592TIP3   OH271190   1.448   5.397   4.499  0.4863 -0.2527 -0.7714
16592TIP3    H171191   1.423   5.317   4.545  0.0848 -2.5807 -4.5597
16592TIP3    H271192   1.379   5.460   4.521 -0.9133 -1.9619  0.0076
16593TIP3   OH271193   1.551   2.054  15.102 -0.3612 -0.8561  0.3194
16593TIP3    H171194   1.610   2.014  15.167  0.7826 -1.3511 -0.9723
16593TIP3    H271195   1.484   2.098  15.155  0.0839 -1.8897  1.8212
16594TIP3   OH271196   3.210   2.737   0.492  0.3658  0.1152  0.2727
16594TIP3    H171197   3.252   2.820   0.471 -1.8778  0.6064 -3.1198
16594TIP3    H271198   3.272   2.670   0.464  0.5622  0.7400 -0.8186
16595TIP3   OH271199   5.632   0.434  11.082  0.1415 -0.0264  0.6352
16595TIP3    H171200   5.616   0.468  10.993  0.7574 -0.4015  0.3734
16595TIP3    H271201   5.680   0.352  11.068 -1.3335 -1.0345  1.2576
16596TIP3   OH271202   0.827   4.623   1.875  0.5851  0.5057 -0.3732
16596TIP3    H171203   0.753   4.680   1.897 -0.8136 -1.3532  0.0221
16596TIP3    H271204   0.824   4.615   1.780  0.0951  0.2167 -0.3347
16597TIP3   OH271205   2.888   3.693  16.254  0.0342  0.1150  0.0010
16597TIP3    H171206   2.841   3.629  16.308  0.5853  0.5697  1.0591
16597TIP3    H271207   2.957   3.643  16.211  0.7409  0.0374  1.1640
16598TIP3   OH271208   6.719   3.866  11.482 -0.4154  0.0790  0.3190
16598TIP3    H171209   6.698   3.935  11.419  2.0331  0.5272 -0.1068
16598TIP3    H271210   6.747   3.792  11.428 -1.6858 -0.7960  0.8192
16599TIP3   OH271211   5.921   1.499   4.072  0.1306 -0.0678  0.1075
16599TIP3    H171212   5.828   1.475   4.073 -0.5193  2.0185 -1.4126
16599TIP3    H271213   5.942   1.516   4.164 -0.8678 -0.9807  0.5256
16600TIP3   OH271214   1.204   6.555  10.917 -0.2880  0.2074  0.0110
16600TIP3    H171215   1.253   6.497  10.976  1.3126  1.6604  0.1917
16600TIP3    H271216   1.133   6.591  10.971 -0.5345 -0.6069  0.2374
16601TIP3   OH271217   3.514   3.862  10.554  0.0713 -0.9075 -0.4506
16601TIP3    H171218   3.542   3.834  10.467 -0.2774  0.4058 -1.0010
16601TIP3    H271219   3.457   3.791  10.585 -0.8527 -0.8103 -1.8394
16602TIP3   OH271220   4.403   5.943  14.397 -0.7640 -0.1736 -0.1667
16602TIP3    H171221   4.468   5.932  14.327 -0.1893 -2.1682  0.6034
16602TIP3    H271222   4.327   5.982  14.353  0.7773  1.8796 -1.1557
16603TIP3   OH271223   5.236   6.369  11.507 -0.6191 -0.0206  0.4740
16603TIP3    H171224   5.225   6.388  11.413  0.5432 -1.5040  0.0009
16603TIP3    H271225   5.320   6.325  11.513 -1.1668 -0.9315  2.0883
16604TIP3   OH271226   5.064   5.806   0.623  0.2285 -0.3790 -0.1637
16604TIP3    H171227   5.153   5.769   0.622 -0.8437 -3.7762  3.0716
16604TIP3    H271228   5.076   5.898   0.644  3.0283 -1.1498  2.2528
16605TIP3   OH271229   4.966   2.852  16.093 -0.0361  0.0207  0.1930
16605TIP3    H171230   4.891   2.880  16.041 -0.6921 -1.1977  0.4528
16605TIP3    H271231   5.026   2.927  16.089 -0.2513  0.1570 -1.9160
16606TIP3   OH271232   0.283   2.846  14.282  0.0737 -0.1970  0.4841
16606TIP3    H171233   0.370   2.846  14.322  0.1221 -0.9679  0.3871
16606TIP3    H271234   0.224   2.826  14.354  0.1303 -1.2528  0.2472
16607TIP3   OH271235   4.116   3.650  11.922  0.5732 -0.8254 -0.0831
16607TIP3    H171236   4.026   3.646  11.890  0.9331 -1.1645 -1.0860
16607TIP3    H271237   4.115   3.600  12.003 -0.4409  0.3599  0.6747
16608TIP3   OH271238   6.200   5.461  11.674 -0.3057 -0.1949  0.9106
16608TIP3    H171239   6.277   5.476  11.619 -0.8341  0.6005  0.3680
16608TIP3    H271240   6.214   5.374  11.710  0.5133 -0.3528  0.2634
16609TIP3   OH271241   5.296   5.063   0.931  0.3716 -0.1504  0.4427
16609TIP3    H171242   5.335   5.135   0.882 -2.0568  0.2828 -1.0095
16609TIP3    H271243   5.220   5.101   0.974  0.9821 -1.1275  2.5086
16610TIP3   OH271244   5.942   3.395   0.730  0.2048  0.3953 -0.4521
16610TIP3    H171245   6.030   3.379   0.765 -0.8538 -1.4283  1.6279
16610TIP3    H271246   5.940   3.490   0.714  1.3661  1.2202  3.1634
16611TIP3   OH271247   4.266   5.992  13.121 -0.3649 -0.0256  0.0982
16611TIP3    H171248   4.286   6.004  13.213 -1.3557  0.3613  0.2812
16611TIP3    H271249   4.317   5.916  13.094  0.5586  0.3599  0.7511
16612TIP3   OH271250   4.263   0.264  10.511  0.5205  0.0967  0.4034
16612TIP3    H171251   4.340   0.215  10.480 -0.8481 -1.9518  0.0021
16612TIP3    H271252   4.276   0.272  10.605  0.8935 -0.9159  0.4579
16613TIP3   OH271253   4.182   2.314  15.193  0.0999  0.0812 -0.3493
16613TIP3    H171254   4.147   2.367  15.121 -1.6576  0.3618  0.6339
16613TIP3    H271255   4.180   2.373  15.269 -0.3092 -0.8710  0.4119
16614TIP3   OH271256   5.042   4.144   0.381 -0.4257 -0.1280  0.7311
16614TIP3    H171257   5.103   4.104   0.319 -1.1268  0.8323 -0.6316
16614TIP3    H271258   5.098   4.190   0.443  0.3443 -2.1134  1.5818
16615TIP3   OH271259   2.804   5.426  14.211 -0.3918  0.0901  0.1199
16615TIP3    H171260   2.805   5.522  14.217 -1.0499  0.0487  1.1778
16615TIP3    H271261   2.784   5.397  14.300 -0.9826 -1.0072 -0.3573
16616TIP3   OH271262   6.742   4.748   1.860  0.1698  0.0914 -0.0380
16616TIP3    H171263   6.681   4.674   1.855 -1.1183  1.1024  0.3104
16616TIP3    H271264   6.760   4.759   1.953 -0.5788  0.9362  0.0213
16617TIP3   OH271265   1.537   5.075   2.725  0.3650 -0.2424 -0.5125
16617TIP3    H171266   1.521   5.164   2.755  3.1852 -0.8991  3.7827
16617TIP3    H271267   1.629   5.074   2.701  0.4831 -2.0557 -0.1166
16618TIP3   OH271268   1.747   4.880   5.473 -0.6052 -0.0627 -0.2642
16618TIP3    H171269   1.765   4.853   5.382 -1.1020  0.0885 -0.4118
16618TIP3    H271270   1.670   4.937   5.466  0.2900  1.2243  0.0605
16619TIP3   OH271271   4.752   1.884   2.975 -0.1179  0.5285 -0.1003
16619TIP3    H171272   4.725   1.803   2.932 -0.0063 -0.0612  0.9222
16619TIP3    H271273   4.846   1.890   2.955 -0.4069  1.1926 -1.4048
16620TIP3   OH271274   0.759   4.114   2.663 -0.5049 -0.5533 -0.5297
16620TIP3    H171275   0.730   4.205   2.670  2.3330  0.3164  1.9394
16620TIP3    H271276   0.812   4.112   2.583 -1.4761 -0.3617 -1.1971
16621TIP3   OH271277   5.560   1.157   1.878 -0.2560 -0.2452  0.7620
16621TIP3    H171278   5.496   1.093   1.847  0.3264 -0.7790  0.6446
16621TIP3    H271279   5.593   1.198   1.798  1.6482 -2.0066  0.5645
16622TIP3   OH271280   6.572   4.575  15.578  0.1601  0.1790 -0.5914
16622TIP3    H171281   6.544   4.632  15.506  0.0410 -0.6184 -1.1875
16622TIP3    H271282   6.512   4.597  15.650  0.7169  1.4709 -0.4903
16623TIP3   OH271283   5.166   2.516   1.252  0.2864  0.1565  0.0118
16623TIP3    H171284   5.090   2.478   1.208 -1.2349  2.1260  0.8026
16623TIP3    H271285   5.230   2.529   1.181  0.1070 -1.9034 -0.5934
16624TIP3   OH271286   4.872   4.088  11.787  0.3323  0.0589 -0.5774
16624TIP3    H171287   4.916   4.172  11.775 -0.2435  0.6925  1.4394
16624TIP3    H271288   4.809   4.084  11.715  0.9368  0.9660 -1.1817
16625TIP3   OH271289   0.500   2.172   4.132  0.3840  0.3336  0.1862
16625TIP3    H171290   0.540   2.112   4.069  0.0276  0.4129 -0.1250
16625TIP3    H271291   0.417   2.197   4.091  1.6615  3.1636 -0.9773
16626TIP3   OH271292   5.494   0.523  11.291 -0.2843  0.1542 -0.6800
16626TIP3    H171293   5.538   0.474  11.222  0.8150 -0.9940  0.7772
16626TIP3    H271294   5.402   0.494  11.286 -0.1991  0.0278 -1.5934
16627TIP3   OH271295   4.706   5.203   0.751  0.6598 -0.1609 -0.2584
16627TIP3    H171296   4.723   5.147   0.675 -0.5847 -0.3023 -0.4451
16627TIP3    H271297   4.642   5.266   0.720  0.7052  0.2549  0.4724
16628TIP3   OH271298   0.690   3.081   4.334  0.1048 -0.1073  0.2419
16628TIP3    H171299   0.668   2.987   4.332 -0.7012  0.0857 -0.3453
16628TIP3    H271300   0.625   3.120   4.392  1.2963 -0.1082  1.6147
16629TIP3   OH271301   0.033   2.859   0.460  0.1535  0.3618  0.3218
16629TIP3    H171302  -0.030   2.806   0.411  0.3934 -0.0229  0.4222
16629TIP3    H271303   0.104   2.798   0.482  0.3212  0.6673  0.6455
16630TIP3   OH271304   6.624   2.552   4.727 -0.1133 -0.5124 -0.1521
16630TIP3    H171305   6.621   2.493   4.802  0.0087 -0.6678 -0.2696
16630TIP3    H271306   6.533   2.579   4.715 -0.5541 -2.3650 -1.4390
16631TIP3   OH271307   3.718   6.298  13.701 -0.2843  0.5317  0.5948
16631TIP3    H171308   3.672   6.377  13.729 -0.3467  0.5541  0.4289
16631TIP3    H271309   3.648   6.238  13.673 -0.1529  1.0152 -0.8201
16632TIP3   OH271310   0.581   3.120   2.713  0.3913  0.1991 -0.2068
16632TIP3    H171311   0.640   3.139   2.640  1.0196  1.1731  0.5280
16632TIP3    H271312   0.574   3.203   2.760 -0.6371 -0.2098  0.3898
16633TIP3   OH271313   1.078   6.582  16.214 -0.0274  0.2578  0.3372
16633TIP3    H171314   1.025   6.623  16.146 -0.9693  2.1496  2.0849
16633TIP3    H271315   1.164   6.624  16.206 -0.2978  0.8787  0.6413
16634TIP3   OH271316   4.594   0.667   0.542  0.2425 -0.1517  0.4478
16634TIP3    H171317   4.533   0.692   0.474  0.6709  1.2261  0.5313
16634TIP3    H271318   4.648   0.745   0.555  1.0879 -0.8639  1.3604
16635TIP3   OH271319   6.554   0.751  16.409  0.4457  0.4086 -0.0054
16635TIP3    H171320   6.632   0.804  16.426 -0.5642  1.8662  0.2936
16635TIP3    H271321   6.547   0.694  16.486  0.2591  1.5057  0.8284
16636TIP3   OH271322   1.262   1.671   4.866  0.4035 -0.1025  0.4155
16636TIP3    H171323   1.193   1.612   4.896 -0.2099  1.4723  2.3284
16636TIP3    H271324   1.216   1.750   4.838  1.2540 -0.2138 -1.3910
16637TIP3   OH271325   4.782   1.972   1.681  0.1563 -0.1315 -0.6719
16637TIP3    H171326   4.837   1.956   1.758  0.4403  2.7923 -0.1773
16637TIP3    H271327   4.697   1.936   1.704  0.5352 -0.2610  0.5668
16638TIP3   OH271328   4.923   4.200   2.321  0.6421 -0.1082  0.0637
16638TIP3    H171329   4.888   4.158   2.400  2.2801 -0.8826  0.4248
16638TIP3    H271330   4.909   4.294   2.335 -0.7489 -0.3503  0.4219
16639TIP3   OH271331   3.992   0.800   4.940  0.3808  0.6546 -0.2827
16639TIP3    H171332   3.923   0.836   4.885  1.2532  0.4189 -1.5645
16639TIP3    H271333   4.039   0.738   4.883 -0.1191 -1.3791  1.3810
16640TIP3   OH271334   5.509   5.790  16.960  0.9253  0.5637  0.5103
16640TIP3    H171335   5.413   5.783  16.967  0.8187  0.6988 -0.6052
16640TIP3    H271336   5.541   5.771  17.048  0.0781 -3.0175  0.1935
16641TIP3   OH271337   6.526   4.119   5.786 -0.1495  0.1220 -0.4958
16641TIP3    H171338   6.575   4.192   5.824  0.0302 -0.2815  0.0665
16641TIP3    H271339   6.510   4.145   5.696  2.3504 -0.3307 -1.1448
16642TIP3   OH271340   6.633   1.300  15.124  0.0857 -0.4248  0.4022
16642TIP3    H171341   6.584   1.218  15.116 -0.7834  0.1515 -0.3975
16642TIP3    H271342   6.575   1.358  15.175  0.1615  0.0895 -0.0857
16643TIP3   OH271343   5.290   2.705  16.006 -0.5674 -0.2330 -0.2665
16643TIP3    H171344   5.231   2.713  16.082 -1.2345 -1.7370 -0.6056
16643TIP3    H271345   5.358   2.645  16.035 -1.6845 -2.0927 -1.3362
16644TIP3   OH271346   0.529   4.426  12.370 -0.1186  0.0642 -0.4328
16644TIP3    H171347   0.458   4.363  12.383  0.5474 -0.4292  1.1142
16644TIP3    H271348   0.608   4.377  12.392  0.2634  2.0374  3.5448
16645TIP3   OH271349   2.110   1.235   4.584 -0.2946  0.1575 -0.0459
16645TIP3    H171350   2.126   1.252   4.491 -2.2874 -1.3176 -0.7204
16645TIP3    H271351   2.019   1.207   4.588  0.0425 -0.8358  2.2300
16646TIP3   OH271352   2.784   6.423  16.263 -0.2281  0.0438  0.1719
16646TIP3    H171353   2.842   6.368  16.210 -1.7988 -1.2369 -0.2785
16646TIP3    H271354   2.744   6.363  16.325  0.0603  1.1882  1.5242
16647TIP3   OH271355   2.368   4.172   1.612  0.2047  0.0180 -0.5672
16647TIP3    H171356   2.440   4.152   1.672 -0.8697 -3.1049 -0.1302
16647TIP3    H271357   2.403   4.148   1.525  0.6077  1.2557 -0.7633
16648TIP3   OH271358   1.348   0.639   1.169  0.1542  0.0586 -0.2178
16648TIP3    H171359   1.435   0.601   1.154 -0.2185 -1.3226  0.9288
16648TIP3    H271360   1.288   0.566   1.153 -0.6179  0.2503  1.6138
16649TIP3   OH271361   2.758   2.442   1.593 -0.0163  0.1015 -0.4498
16649TIP3    H171362   2.752   2.396   1.676 -0.1947  1.5465  0.3831
16649TIP3    H271363   2.819   2.390   1.540  0.6175 -0.4932  0.8285
16650TIP3   OH271364   3.135   3.035   3.985  0.2130 -0.2416  0.3567
16650TIP3    H171365   3.109   3.006   4.073  0.3482 -0.0902  0.4469
16650TIP3    H271366   3.169   3.123   3.998 -0.2967  0.0037  0.0661
16651TIP3   OH271367   0.887   6.520  16.587 -0.1879 -0.1523  0.5071
16651TIP3    H171368   0.819   6.478  16.638 -0.8949  0.3094 -0.0347
16651TIP3    H271369   0.910   6.455  16.520  0.7231 -0.7466  1.3724
16652TIP3   OH271370   4.347   5.880  13.943 -0.0083 -0.8172  0.2831
16652TIP3    H171371   4.404   5.927  14.005 -2.3406 -0.7200  2.5188
16652TIP3    H271372   4.310   5.949  13.888  1.9314 -0.8839 -1.2242
16653TIP3   OH271373   5.188   2.165   2.976 -0.3569 -0.1491  0.0131
16653TIP3    H171374   5.172   2.135   3.066  1.1969  0.7275  0.6202
16653TIP3    H271375   5.239   2.093   2.937 -2.1596 -1.1258 -0.6255
16654TIP3   OH271376   5.169   5.647  14.726 -0.0161  0.7137  0.3345
16654TIP3    H171377   5.169   5.726  14.673 -0.1880 -0.0592 -0.8522
16654TIP3    H271378   5.080   5.614  14.721  0.2561 -0.0178  0.0794
16655TIP3   OH271379   3.753   5.997   2.999  0.1339 -0.0557 -0.0306
16655TIP3    H171380   3.722   6.015   3.087  1.6349  0.8128  0.3477
16655TIP3    H271381   3.674   5.997   2.945 -0.6111  1.2246  1.0206
16656TIP3   OH271382   1.629   5.669  11.738  0.0256  0.3402 -0.0021
16656TIP3    H171383   1.551   5.619  11.716  0.1834  0.1970 -0.2528
16656TIP3    H271384   1.669   5.690  11.653  0.0765  0.7062  0.1083
16657TIP3   OH271385   1.052   6.806  14.904  0.1675 -0.3075 -0.5864
16657TIP3    H171386   1.112   6.879  14.924 -2.2050  1.5266  0.3035
16657TIP3    H271387   0.997   6.799  14.982 -0.8804 -1.8181 -1.4229
16658TIP3   OH271388   0.232   3.640  15.617  0.6354 -0.3179 -0.0019
16658TIP3    H171389   0.324   3.624  15.639  0.3678  0.7804  2.1577
16658TIP3    H271390   0.191   3.553  15.622  1.1467 -0.5012  1.2095
16659TIP3   OH271391   5.544   1.628   3.218  0.3829 -0.4299 -0.1891
16659TIP3    H171392   5.590   1.701   3.177 -0.5156  0.1206 -0.2377
16659TIP3    H271393   5.472   1.668   3.267 -0.2373 -1.2811 -0.3625
16660TIP3   OH271394   0.130   5.581   3.799  0.0859  0.3468 -0.2885
16660TIP3    H171395   0.074   5.506   3.783  1.7116 -0.5679 -2.0647
16660TIP3    H271396   0.088   5.653   3.751  0.6099 -0.4438 -2.0250
16661TIP3   OH271397   0.645   1.837   5.372 -0.0762 -0.0164 -0.2025
16661TIP3    H171398   0.634   1.781   5.296 -0.0369 -0.0040 -0.2173
16661TIP3    H271399   0.651   1.776   5.446 -1.5030  0.0188 -0.0343
16662TIP3   OH271400   5.029   4.183  16.669  0.1443 -0.2299 -0.3363
16662TIP3    H171401   5.033   4.174  16.574  1.2183 -2.5733 -0.1480
16662TIP3    H271402   5.099   4.126  16.702 -1.2525 -0.8165  1.8938
16663TIP3   OH271403   4.959   4.004  13.663 -0.1421  0.0127 -0.3476
16663TIP3    H171404   4.944   3.914  13.692 -0.4039 -0.0857 -0.7841
16663TIP3    H271405   4.951   4.056  13.743  2.7134 -0.6129  0.4625
16664TIP3   OH271406   2.829   0.361  16.355 -0.3604 -0.1242  0.0952
16664TIP3    H171407   2.793   0.272  16.363 -0.2425 -0.1885 -0.0876
16664TIP3    H271408   2.754   0.414  16.327 -0.2147 -0.3438 -0.7492
16665TIP3   OH271409   1.096   1.321   5.045 -0.5227 -0.4300 -0.1496
16665TIP3    H171410   1.075   1.414   5.036 -0.8665 -0.6028 -1.4795
16665TIP3    H271411   1.171   1.318   5.103 -1.1523  0.5999  0.7558
16666TIP3   OH271412   4.467   4.582  15.297  0.4789  0.1710  0.1935
16666TIP3    H171413   4.516   4.658  15.325  3.0241 -0.1149 -2.9030
16666TIP3    H271414   4.409   4.615  15.228 -0.5633 -0.2667  0.8272
16667TIP3   OH271415   5.638   3.432   2.261  0.2754  0.0483  0.3016
16667TIP3    H171416   5.687   3.427   2.179 -0.7620 -2.3676 -0.2642
16667TIP3    H271417   5.558   3.479   2.237  0.3607  0.1156  0.1418
16668TIP3   OH271418   2.180   1.210  10.965  0.0636 -0.0394  0.0646
16668TIP3    H171419   2.269   1.238  10.983  0.6249 -0.6031 -1.6794
16668TIP3    H271420   2.129   1.291  10.968  0.4643  0.1890  1.8087
16669TIP3   OH271421   0.739   6.365   1.026 -0.0172  0.5087  0.0819
16669TIP3    H171422   0.715   6.453   0.995  0.6570  1.0973  1.1526
16669TIP3    H271423   0.830   6.354   0.997  0.1131  0.4412  0.5147
16670TIP3   OH271424   0.547   0.770   3.705 -0.7423  0.7871  0.1948
16670TIP3    H171425   0.634   0.785   3.742 -0.7070 -0.9244  0.8690
16670TIP3    H271426   0.487   0.801   3.773 -0.6558  0.2494  0.5251
16671TIP3   OH271427   2.927   1.098   6.463 -0.4295 -0.1216 -0.1526
16671TIP3    H171428   2.884   1.183   6.471  0.9962  0.6699 -0.5280
16671TIP3    H271429   2.954   1.094   6.371  0.3851 -0.5374  0.1004
16672TIP3   OH271430   0.285   0.477   5.759  0.4064  0.4060 -0.2177
16672TIP3    H171431   0.316   0.519   5.838 -0.2757  0.7702 -0.1393
16672TIP3    H271432   0.198   0.443   5.782  0.5114 -0.1352 -0.5877
16673TIP3   OH271433   3.336   2.035  12.642 -0.0507  0.7510  0.4387
16673TIP3    H171434   3.327   1.947  12.677 -0.5234  1.4430  2.1441
16673TIP3    H271435   3.430   2.051  12.640 -0.0050  0.7048  1.5025
16674TIP3   OH271436   5.169   4.729   4.880 -0.6470 -0.2292  0.4864
16674TIP3    H171437   5.189   4.780   4.958  0.2164  1.1978 -0.5972
16674TIP3    H271438   5.254   4.699   4.848 -0.3986  2.6381 -2.0618
16675TIP3   OH271439   2.455   6.047   5.885 -0.0559 -0.2140 -0.5453
16675TIP3    H171440   2.536   6.012   5.848 -1.0475 -0.4553 -2.5898
16675TIP3    H271441   2.467   6.038   5.980  3.0193  1.3682 -0.6395
16676TIP3   OH271442   6.036   0.886  12.141 -0.0382 -0.2213  0.1485
16676TIP3    H171443   5.982   0.957  12.107 -0.4367 -1.2294 -1.3802
16676TIP3    H271444   6.073   0.922  12.222 -0.8402  1.4413 -0.1747
16677TIP3   OH271445   0.637   3.112  14.950 -0.5642  0.1523  0.0582
16677TIP3    H171446   0.675   3.174  14.887 -0.5898 -1.2575 -1.4113
16677TIP3    H271447   0.646   3.156  15.035  3.3550  0.4061 -0.3194
16678TIP3   OH271448   0.459   4.958  11.145 -0.3617  0.0832 -0.2450
16678TIP3    H171449   0.415   5.024  11.092  0.5974  1.2197  0.3199
16678TIP3    H271450   0.540   5.001  11.175  0.1830 -1.2750  0.3191
16679TIP3   OH271451   0.134   5.149   2.973 -0.2321 -0.6552  0.3359
16679TIP3    H171452   0.114   5.077   3.033 -3.4399 -1.2903 -1.3004
16679TIP3    H271453   0.062   5.211   2.983  2.2493  2.3502  1.4448
16680TIP3   OH271454   2.989   3.334   2.438 -0.3010 -0.6082  0.0183
16680TIP3    H171455   3.021   3.307   2.352  0.8780 -0.9224  0.5385
16680TIP3    H271456   2.894   3.326   2.432 -0.5301  2.3241 -2.2575
16681TIP3   OH271457   1.241   0.851   4.246  0.1718  0.3951 -0.1402
16681TIP3    H171458   1.190   0.821   4.170  0.8996  0.3705 -0.6304
16681TIP3    H271459   1.185   0.831   4.321  0.4949 -2.0290 -0.4416
16682TIP3   OH271460   6.009   3.079   3.626  0.2806  0.1912  0.6411
16682TIP3    H171461   6.048   3.129   3.554 -0.0670 -0.2974  0.0984
16682TIP3    H271462   5.918   3.069   3.601  0.4606 -1.1858  0.4535
16683TIP3   OH271463   4.811   5.568   2.065  0.5530  0.4455  0.3650
16683TIP3    H171464   4.767   5.526   1.991 -0.5387  2.6738 -0.3445
16683TIP3    H271465   4.898   5.590   2.032  0.7132 -0.1610  0.3635
16684TIP3   OH271466   4.902   5.940  14.797 -0.4040  0.1981  0.1201
16684TIP3    H171467   4.917   6.033  14.810  1.5453  0.2608 -1.9034
16684TIP3    H271468   4.814   5.935  14.758 -0.5580  1.1714  0.3223
16685TIP3   OH271469   3.024   6.229   1.854  0.0724  0.0649 -0.9893
16685TIP3    H171470   3.049   6.154   1.800 -0.9213  0.2624 -1.7540
16685TIP3    H271471   2.931   6.242   1.835 -0.8601 -1.0236  2.1507
16686TIP3   OH271472   5.263   5.248   1.327  0.2145  0.6676 -0.8595
16686TIP3    H171473   5.292   5.281   1.412  1.3500  1.1146 -1.4016
16686TIP3    H271474   5.316   5.170   1.312 -2.8618 -2.0034  0.7044
16687TIP3   OH271475   2.734   0.704   5.742 -0.3733  0.1643 -1.0455
16687TIP3    H171476   2.780   0.750   5.671  0.8898 -1.0269 -1.0367
16687TIP3    H271477   2.802   0.687   5.807 -1.4584  1.0009  0.3627
16688TIP3   OH271478   0.945   4.260  11.858  0.3133 -0.1911  0.5587
16688TIP3    H171479   0.932   4.171  11.824  2.2229 -0.8901  1.5302
16688TIP3    H271480   0.871   4.309  11.822 -0.0038 -1.8032 -1.2237
16689TIP3   OH271481   6.394   0.424   5.765 -0.3059 -0.0862  0.3102
16689TIP3    H171482   6.299   0.420   5.773 -0.6165  0.3091 -2.2581
16689TIP3    H271483   6.422   0.334   5.750  0.0355 -0.5092  2.9549
16690TIP3   OH271484   3.731   6.799   1.792 -0.1069  0.3898  0.0404
16690TIP3    H171485   3.693   6.879   1.830 -1.4524 -0.6754  1.0469
16690TIP3    H271486   3.711   6.804   1.699  0.9659  1.8203 -0.1451
16691TIP3   OH271487   1.677   2.465   3.506  0.5323 -0.2437 -0.1370
16691TIP3    H171488   1.742   2.486   3.439  3.5889 -0.2445  2.6023
16691TIP3    H271489   1.696   2.375   3.531  0.4289  0.2104  1.6955
16692TIP3   OH271490   0.534   5.802   5.274 -0.3829  0.4699  0.4366
16692TIP3    H171491   0.506   5.807   5.365 -1.2973  2.5234  0.0985
16692TIP3    H271492   0.607   5.740   5.274 -0.3051  0.5099  2.5600
16693TIP3   OH271493   1.783   0.943   5.818 -0.0666  0.4602 -0.3271
16693TIP3    H171494   1.730   0.929   5.739 -0.0578  0.3851 -0.3197
16693TIP3    H271495   1.731   1.004   5.871 -0.7714 -0.6153  0.2787
16694TIP3   OH271496   6.266   5.066  14.057 -0.2132 -0.0669 -0.2606
16694TIP3    H171497   6.322   5.094  14.129 -1.6746  1.1716  0.4683
16694TIP3    H271498   6.299   5.114  13.981 -0.6108  1.1080  0.2841
16695TIP3   OH271499   0.900   5.692  12.102  0.1118 -0.0341 -0.2372
16695TIP3    H171500   0.920   5.618  12.160 -0.4195 -1.1349 -1.4063
16695TIP3    H271501   0.849   5.653  12.031 -0.1704  1.4729 -0.8900
16696TIP3   OH271502   4.685   3.837   4.617  0.2461  0.1898  0.9925
16696TIP3    H171503   4.677   3.932   4.604  0.1520 -0.0726 -1.1654
16696TIP3    H271504   4.621   3.817   4.685 -0.7675  1.4779  0.4598
16697TIP3   OH271505   1.685   4.681   6.302 -0.1803  0.2040 -0.3722
16697TIP3    H171506   1.670   4.776   6.307 -2.1024 -0.0815 -0.0469
16697TIP3    H271507   1.619   4.643   6.359 -0.0202 -1.3882 -1.1894
16698TIP3   OH271508   6.162   4.456  16.216  0.3412  0.3878 -0.2591
16698TIP3    H171509   6.229   4.423  16.156  0.2943  1.7154 -1.0689
16698TIP3    H271510   6.108   4.379  16.236  2.0563 -0.7065  0.4059
16699TIP3   OH271511   6.773   4.679  12.306  0.4146 -0.2184 -0.7900
16699TIP3    H171512   6.793   4.720  12.222  0.4121  0.6427 -0.3783
16699TIP3    H271513   6.853   4.633  12.330  1.1137  1.1835 -0.3217
16700TIP3   OH271514   1.536   4.918   3.660  0.2393  0.0926  0.6947
16700TIP3    H171515   1.507   4.877   3.742  1.4192 -0.2867  0.9310
16700TIP3    H271516   1.589   4.851   3.617 -0.3186  0.3041 -0.3766
16701TIP3   OH271517   5.607   2.660  10.194 -0.3244  0.3945 -0.0872
16701TIP3    H171518   5.523   2.626  10.225 -0.1588 -0.0399 -0.1186
16701TIP3    H271519   5.671   2.630  10.258 -0.0764  0.0592 -0.4863
16702TIP3   OH271520   3.282   2.541  13.565 -0.3392 -0.1227 -0.2177
16702TIP3    H171521   3.369   2.561  13.529 -0.7886 -1.5091 -2.2791
16702TIP3    H271522   3.222   2.560  13.493 -1.8510  1.2221  1.3104
16703TIP3   OH271523   4.474   2.883  13.546 -0.3285  0.3011  0.0032
16703TIP3    H171524   4.401   2.946  13.538 -0.4936  0.2166  0.7850
16703TIP3    H271525   4.472   2.834  13.464  0.6640  2.2175 -1.2539
16704TIP3   OH271526   1.065   6.045  12.441 -0.5851  0.4909 -0.0912
16704TIP3    H171527   1.095   5.955  12.452  2.7847  1.5373  0.7589
16704TIP3    H271528   1.061   6.059  12.347  0.9291 -0.0429 -0.2677
16705TIP3   OH271529   3.849   1.470   1.379 -0.5011 -0.1991 -0.0296
16705TIP3    H171530   3.860   1.560   1.349 -1.6084  0.2415  0.8073
16705TIP3    H271531   3.867   1.474   1.473 -0.0540 -0.9555 -0.0787
16706TIP3   OH271532   4.012   0.538   3.268  0.3280 -0.2725 -0.5133
16706TIP3    H171533   4.064   0.498   3.199  0.4212 -0.8501 -0.1115
16706TIP3    H271534   4.030   0.632   3.260  1.7346 -0.4902 -0.1459
16707TIP3   OH271535   5.087   5.525  12.495 -0.0613  0.1425  0.0348
16707TIP3    H171536   5.152   5.485  12.438  0.5077 -0.4424  1.0753
16707TIP3    H271537   5.076   5.464  12.568 -1.0498  0.6916  0.3785
16708TIP3   OH271538   2.119   5.143   6.270  0.6003 -0.1854  0.2590
16708TIP3    H171539   2.035   5.185   6.290  0.4922  0.4311 -1.3840
16708TIP3    H271540   2.183   5.193   6.321  0.0462 -0.3636  1.1521
16709TIP3   OH271541   2.991   0.871  13.356  0.0922  0.6147 -0.8068
16709TIP3    H171542   2.905   0.848  13.390 -0.4412  1.9101 -1.2068
16709TIP3    H271543   3.014   0.952  13.402  0.9398  0.4754 -0.9684
16710TIP3   OH271544   2.821   5.380  12.633  0.2784 -0.4863 -0.7174
16710TIP3    H171545   2.810   5.380  12.728  2.5001 -0.4646 -0.4089
16710TIP3    H271546   2.854   5.293  12.613  2.4898  0.3549 -1.0448
16711TIP3   OH271547   3.286   0.253  16.261  0.1459 -0.6354  0.0761
16711TIP3    H171548   3.288   0.340  16.222  1.6276 -0.0098  1.4363
16711TIP3    H271549   3.200   0.247  16.302 -0.5854 -0.4725 -1.3848
16712TIP3   OH271550   4.718   5.808  15.440 -0.4700 -0.2944 -0.1599
16712TIP3    H171551   4.811   5.826  15.457 -0.1998 -0.3487 -1.4715
16712TIP3    H271552   4.684   5.776  15.523  0.6396 -0.0653  0.3983
16713TIP3   OH271553   5.725   1.261  16.336  0.5248  0.0415 -0.4827
16713TIP3    H171554   5.767   1.347  16.328  1.1408 -0.0803  0.9488
16713TIP3    H271555   5.756   1.212  16.261 -1.6306  1.7239 -2.6236
16714TIP3   OH271556   2.089   5.317  14.939  0.3327  0.0787  0.1205
16714TIP3    H171557   2.160   5.378  14.921 -0.5302  0.9720 -0.3308
16714TIP3    H271558   2.009   5.369  14.930 -0.3852 -0.8964  0.6388
16715TIP3   OH271559   1.735   0.085   4.926 -0.0824  0.0311 -0.6921
16715TIP3    H171560   1.666   0.124   4.872  0.6272  0.7162 -1.1349
16715TIP3    H271561   1.718  -0.009   4.923 -0.5488  0.1331 -1.4215
16716TIP3   OH271562   0.193   1.289  14.057  0.1328 -0.7812  0.1902
16716TIP3    H171563   0.260   1.352  14.084  1.0641 -0.9669 -1.5304
16716TIP3    H271564   0.234   1.240  13.985 -0.5611 -3.3413  1.4305
16717TIP3   OH271565   4.859   0.770  15.627  0.0348  0.5005 -0.3847
16717TIP3    H171566   4.849   0.720  15.546  0.1037  2.3010 -1.5571
16717TIP3    H271567   4.774   0.763  15.670  0.6969 -2.5214  0.7231
16718TIP3   OH271568   4.425   3.232  16.555 -0.2462  0.3957  0.2124
16718TIP3    H171569   4.426   3.327  16.556 -1.2910  0.5198  3.6124
16718TIP3    H271570   4.429   3.207  16.648 -2.8356 -2.7396 -0.3204
16719TIP3   OH271571   1.532   3.107  14.307  0.2421  0.3974  0.2494
16719TIP3    H171572   1.549   3.109  14.213 -0.4465  0.5055  0.1222
16719TIP3    H271573   1.483   3.187  14.325 -0.8807 -0.3071  0.4365
16720TIP3   OH271574   1.340   3.664  16.877  0.6725 -0.4117  0.3677
16720TIP3    H171575   1.414   3.621  16.921  1.2119 -0.2909 -0.3954
16720TIP3    H271576   1.374   3.686  16.790 -0.3986 -0.7389 -0.1517
16721TIP3   OH271577   4.931   3.854   4.938  0.5448  0.0805  0.2898
16721TIP3    H171578   4.890   3.941   4.942 -0.9543 -0.6308  0.8667
16721TIP3    H271579   4.966   3.849   4.849 -1.0786  0.5360 -0.4111
16722TIP3   OH271580   3.107   1.194   5.727 -0.2711 -0.2140 -0.0059
16722TIP3    H171581   3.142   1.111   5.695  1.8932  0.4099  0.6008
16722TIP3    H271582   3.088   1.178   5.820 -0.6043 -0.2369 -0.0750
16723TIP3   OH271583   3.638   0.844  12.919 -0.2727 -0.6684 -0.1197
16723TIP3    H171584   3.637   0.915  12.855 -1.0204 -1.9550 -1.6108
16723TIP3    H271585   3.548   0.812  12.921  0.6786 -4.0058 -2.4372
16724TIP3   OH271586   0.781   4.248   5.611 -0.5920 -0.3640 -0.5763
16724TIP3    H171587   0.716   4.280   5.549  1.2233  0.9933 -1.8913
16724TIP3    H271588   0.834   4.325   5.632 -0.4165 -1.0663  1.7683
16725TIP3   OH271589   1.664   1.317  11.256  0.2056  0.0432  0.2800
16725TIP3    H171590   1.736   1.285  11.201  2.2807 -0.0819  2.8879
16725TIP3    H271591   1.706   1.347  11.336 -2.5564  1.2951  1.4024
16726TIP3   OH271592   6.575   4.396   6.682 -0.5251 -0.2355  0.1273
16726TIP3    H171593   6.502   4.362   6.630  0.2596 -0.3291 -0.9541
16726TIP3    H271594   6.596   4.480   6.642  1.1134 -1.0126 -0.7748
16727TIP3   OH271595   1.704   4.670  16.971 -0.0739 -0.5196  0.2940
16727TIP3    H171596   1.634   4.730  16.946 -0.6916  0.0580  3.1033
16727TIP3    H271597   1.784   4.719  16.953 -0.3432 -0.7930 -1.9757
16728TIP3   OH271598   3.466   0.379  12.365 -0.5097  0.4369 -0.2813
16728TIP3    H171599   3.437   0.353  12.452  0.4629  0.5031  0.0793
16728TIP3    H271600   3.427   0.313  12.306 -1.4977  0.6282  0.1394
16729TIP3   OH271601   0.330   3.183  13.267 -0.0083 -0.0817  0.4865
16729TIP3    H171602   0.361   3.165  13.179 -0.1133 -0.9411  0.6173
16729TIP3    H271603   0.347   3.276  13.280 -1.7504  0.5408 -1.1603
16730TIP3   OH271604   4.854   1.466   0.162  0.2287  0.8134 -0.1264
16730TIP3    H171605   4.868   1.372   0.153 -1.6128  0.6498 -2.2274
16730TIP3    H271606   4.913   1.493   0.232  1.3135 -1.7694  0.0533
16731TIP3   OH271607   2.063   6.601   3.492 -0.2510  0.0591  0.2123
16731TIP3    H171608   2.033   6.520   3.451  0.5381  0.8166 -2.0102
16731TIP3    H271609   1.983   6.645   3.520 -0.7659 -0.8547  0.2257
16732TIP3   OH271610   5.350   4.766  14.233  0.8119 -0.7115  0.5392
16732TIP3    H171611   5.266   4.778  14.189  1.4071 -1.0358 -0.7238
16732TIP3    H271612   5.363   4.671  14.233  1.5845 -0.6191 -0.0903
16733TIP3   OH271613   2.847   0.912   0.931  0.3701  0.3971  0.0078
16733TIP3    H171614   2.864   0.878   0.843 -0.7086  0.2767 -0.1683
16733TIP3    H271615   2.923   0.885   0.982  0.4721 -0.5423 -0.6127
16734TIP3   OH271616   4.772   5.380   6.163 -0.1234  0.8251 -0.2602
16734TIP3    H171617   4.711   5.446   6.130 -3.1779 -1.4281  0.4473
16734TIP3    H271618   4.740   5.359   6.251 -0.4723 -2.7770 -1.0771
16735TIP3   OH271619   1.455   2.160  12.969  0.2149 -1.1095 -0.6696
16735TIP3    H171620   1.518   2.095  12.999 -0.4119 -1.5676 -0.3201
16735TIP3    H271621   1.451   2.224  13.039  0.7102 -0.7739 -0.9428
16736TIP3   OH271622   4.726   2.759  12.777 -0.0424 -0.0385  0.2545
16736TIP3    H171623   4.799   2.772  12.715  0.3229  0.1739  0.7254
16736TIP3    H271624   4.657   2.718  12.724  0.2307  0.2313 -0.3176
16737TIP3   OH271625   5.355   5.781  12.992 -0.3945 -0.0023 -0.1520
16737TIP3    H171626   5.271   5.753  12.955  0.2430 -3.1696  0.4700
16737TIP3    H271627   5.331   5.834  13.069 -1.7061  2.3299 -2.0346
16738TIP3   OH271628   5.224   6.212   6.160 -0.5759 -0.1685  0.7666
16738TIP3    H171629   5.166   6.264   6.104 -0.0513  2.4177  2.4555
16738TIP3    H271630   5.311   6.228   6.126 -0.4624 -0.5129  0.8910
16739TIP3   OH271631   0.741   4.547  14.905 -0.2270  0.8823  0.2696
16739TIP3    H171632   0.777   4.583  14.824 -0.9897  1.6530  0.2555
16739TIP3    H271633   0.796   4.471  14.924  1.9681  2.4284  0.6691
16740TIP3   OH271634   5.943   4.639  10.901  0.8445  0.3652  0.1632
16740TIP3    H171635   5.948   4.711  10.837  2.0418 -0.8711 -1.2019
16740TIP3    H271636   5.897   4.569  10.855  0.3478 -0.0167  1.2193
16741TIP3   OH271637   1.970   6.665   1.813 -0.3535  0.2845  0.0289
16741TIP3    H171638   1.961   6.720   1.891 -0.3137  0.5954 -0.1829
16741TIP3    H271639   1.979   6.728   1.741 -0.3331 -0.0018 -0.2174
16742TIP3   OH271640   1.238   0.790  15.568  0.0354  0.6908 -0.1686
16742TIP3    H171641   1.192   0.839  15.637  1.2259  0.0466  1.1551
16742TIP3    H271642   1.186   0.711  15.556  0.6201  0.0434  1.2045
16743TIP3   OH271643   2.918   2.238   2.258  0.1461 -0.5420 -0.0575
16743TIP3    H171644   2.887   2.148   2.242 -0.2272 -0.5675  0.7422
16743TIP3    H271645   2.958   2.234   2.345 -3.1283  0.8166  1.6912
16744TIP3   OH271646   5.389   2.577  10.360 -0.4961  0.2926  0.2745
16744TIP3    H171647   5.305   2.622  10.371  0.1664  1.0576  3.0115
16744TIP3    H271648   5.373   2.488  10.392 -0.3706  0.3198  0.4146
16745TIP3   OH271649   5.937   5.791   3.639  0.0022  0.5134  0.5078
16745TIP3    H171650   5.974   5.791   3.728  0.3379 -0.4475  0.3798
16745TIP3    H271651   6.013   5.782   3.582 -0.2285  0.9821  0.1246
16746TIP3   OH271652   4.086   2.736   6.342  0.2772  0.2080  0.8909
16746TIP3    H171653   4.043   2.821   6.347 -0.7765 -0.2972  0.7291
16746TIP3    H271654   4.166   2.752   6.291 -0.5307  0.8468 -0.2043
16747TIP3   OH271655   1.224   1.572  14.431 -0.7297  0.4591  0.0236
16747TIP3    H171656   1.153   1.582  14.367 -1.4254  1.0936  0.8779
16747TIP3    H271657   1.188   1.607  14.512  0.6254  0.9315  0.4364
16748TIP3   OH271658   3.071   6.634  11.998 -0.4333 -0.1083  0.0219
16748TIP3    H171659   2.986   6.665  12.028 -0.3816  0.4230 -0.3530
16748TIP3    H271660   3.127   6.639  12.076 -0.7855 -0.6211  0.3089
16749TIP3   OH271661   2.898   5.752   4.526  0.2048 -0.4182 -0.4135
16749TIP3    H171662   2.843   5.783   4.454  0.8092 -0.1987 -0.7854
16749TIP3    H271663   2.836   5.732   4.596 -0.3601 -0.2875 -0.8655
16750TIP3   OH271664   5.910   4.543   3.694 -1.1178  0.3192 -0.0730
16750TIP3    H171665   5.881   4.531   3.604 -1.2270 -0.7730  0.0947
16750TIP3    H271666   5.874   4.469   3.742  1.7539 -1.0680  0.1798
16751TIP3   OH271667   6.485   3.118   0.938  0.5197 -0.2078  0.2202
16751TIP3    H171668   6.402   3.163   0.927  0.4160 -0.3312  0.4814
16751TIP3    H271669   6.533   3.134   0.857 -0.4360 -1.5707 -0.6424
16752TIP3   OH271670   0.348   1.496   0.855 -0.4741 -0.2285  0.2479
16752TIP3    H171671   0.347   1.549   0.775 -0.9605 -2.1482 -1.0679
16752TIP3    H271672   0.415   1.430   0.839  0.3534  0.1242  1.9955
16753TIP3   OH271673   4.504   4.787  13.855 -0.5807 -0.1017  0.2450
16753TIP3    H171674   4.465   4.791  13.942  1.4917 -0.5802  1.2632
16753TIP3    H271675   4.496   4.876  13.821 -1.5897  0.0475  0.8130
16754TIP3   OH271676   0.329   5.703  15.942  0.0943 -0.2686 -0.1319
16754TIP3    H171677   0.244   5.661  15.926 -1.0023  1.3960  1.0667
16754TIP3    H271678   0.317   5.793  15.914  1.5088 -0.0102  0.0245
16755TIP3   OH271679   1.891   3.901   5.296 -0.0053 -0.4233 -0.2965
16755TIP3    H171680   1.952   3.918   5.224 -1.2031  0.3846 -1.1769
16755TIP3    H271681   1.901   3.976   5.354  0.0609 -0.4402 -0.2862
16756TIP3   OH271682   4.164   3.145  15.992 -0.0293 -0.4516 -0.2562
16756TIP3    H171683   4.100   3.083  15.956 -1.3586  0.7831 -0.1078
16756TIP3    H271684   4.117   3.191  16.061  0.5938  1.4025 -1.0115
16757TIP3   OH271685   4.716   0.016   1.255  0.2538 -0.5539  0.3950
16757TIP3    H171686   4.790   0.076   1.266  1.5843 -1.8044 -1.1491
16757TIP3    H271687   4.676   0.042   1.173 -1.3259  0.3403  1.3908
16758TIP3   OH271688   6.620   3.964  16.470 -0.8159 -1.0070 -0.6791
16758TIP3    H171689   6.671   3.902  16.418  0.8468  1.6401 -2.4923
16758TIP3    H271690   6.655   3.957  16.558  1.2284 -0.8208 -1.4240
16759TIP3   OH271691   5.030   0.225  12.638  0.5981  0.3351 -0.0244
16759TIP3    H171692   5.052   0.137  12.607 -2.8086 -1.3663  1.7352
16759TIP3    H271693   5.036   0.280  12.560  1.9865 -1.5975 -1.3995
16760TIP3   OH271694   5.759   5.231  10.760 -0.4389  0.3468  0.0297
16760TIP3    H171695   5.766   5.326  10.770 -0.9930  0.3929  0.0165
16760TIP3    H271696   5.850   5.200  10.759 -0.2728  0.7623  1.0770
16761TIP3   OH271697   3.431   1.535   0.930  0.0557  0.3126  0.2058
16761TIP3    H171698   3.444   1.452   0.885 -0.3706  0.6652 -0.6062
16761TIP3    H271699   3.335   1.545   0.935  0.0664  1.3560 -0.9304
16762TIP3   OH271700   1.554   2.908  14.988  0.8114  0.3022  0.2268
16762TIP3    H171701   1.641   2.924  14.952  1.0884 -0.6033  0.4580
16762TIP3    H271702   1.499   2.977  14.950  1.6587  0.9873  0.2198
16763TIP3   OH271703   5.449   0.691   5.227  0.6602 -0.8835  0.0920
16763TIP3    H171704   5.480   0.758   5.167 -0.5576 -0.4994 -0.1375
16763TIP3    H271705   5.518   0.684   5.293  0.1216  1.8125  1.0750
16764TIP3   OH271706   5.058   0.027  11.719  0.4517 -0.1799 -0.1396
16764TIP3    H171707   5.090   0.016  11.630 -0.3047 -0.2571 -0.4113
16764TIP3    H271708   4.982   0.085  11.711 -0.4919 -1.3030  0.2491
16765TIP3   OH271709   2.143   1.625  13.203 -0.4360  0.2187  0.1369
16765TIP3    H171710   2.104   1.686  13.140 -0.2359 -0.5319 -0.7337
16765TIP3    H271711   2.185   1.681  13.268 -1.3582  1.0206  0.0635
16766TIP3   OH271712   6.238   5.824   2.822 -0.5181 -0.3589 -0.2891
16766TIP3    H171713   6.286   5.859   2.747 -1.6512  0.5939 -0.6110
16766TIP3    H271714   6.195   5.900   2.861 -1.2783 -1.0758  0.3245
16767TIP3   OH271715   2.299   0.232   3.311  0.3885  0.3539  0.1648
16767TIP3    H171716   2.349   0.187   3.380 -1.4005  1.6031  2.4136
16767TIP3    H271717   2.215   0.185   3.309 -0.3120  1.5751  0.2820
16768TIP3   OH271718   3.755   1.639  13.064 -0.0427  0.4467 -0.3107
16768TIP3    H171719   3.772   1.710  13.127  1.2312  0.1787 -0.3194
16768TIP3    H271720   3.701   1.680  12.997  0.6980  1.4369 -0.3375
16769TIP3   OH271721   2.006   4.680   2.296  0.3677 -0.2049 -0.2504
16769TIP3    H171722   2.064   4.614   2.258  0.8753 -1.1124  1.9215
16769TIP3    H271723   2.059   4.720   2.366 -0.9238  0.4114  0.4023
16770TIP3   OH271724   6.724   4.523  13.658 -0.6228  0.5405 -0.4064
16770TIP3    H171725   6.641   4.526  13.610 -1.3459  0.4581  0.8212
16770TIP3    H271726   6.705   4.561  13.743  0.5834  0.4349 -0.0617
16771TIP3   OH271727   0.244   5.550  10.948 -0.2919  0.2054  0.0013
16771TIP3    H171728   0.228   5.498  10.869  1.9778  1.5181 -1.4440
16771TIP3    H271729   0.270   5.636  10.915  0.6176  0.8416  2.1898
16772TIP3   OH271730   5.589   6.407   1.368  0.2920 -0.3378 -0.0261
16772TIP3    H171731   5.642   6.385   1.291 -0.5656 -1.2425 -0.3640
16772TIP3    H271732   5.654   6.418   1.438  1.1963  1.5773 -1.0633
16773TIP3   OH271733   3.689   4.729   4.918 -0.0702  0.4242  0.2103
16773TIP3    H171734   3.693   4.795   4.849  0.2219 -0.2041 -0.3907
16773TIP3    H271735   3.614   4.754   4.971 -1.6402 -0.2754 -1.5729
16774TIP3   OH271736   6.559   5.179  10.988  0.3465 -0.2650 -0.1206
16774TIP3    H171737   6.518   5.220  10.912 -1.6964  0.0700  1.0830
16774TIP3    H271738   6.578   5.252  11.047  3.6168 -0.2864 -0.9403
16775TIP3   OH271739   0.811   4.176   3.838 -0.1606  0.2643 -0.8313
16775TIP3    H171740   0.773   4.248   3.888  0.1444 -1.7908  2.7155
16775TIP3    H271741   0.740   4.113   3.830 -0.1407  0.4398 -3.0123
16776TIP3   OH271742   0.609   6.211  13.954  0.1103  0.1574 -0.0064
16776TIP3    H171743   0.544   6.268  13.994  1.4826  0.6190  1.6872
16776TIP3    H271744   0.655   6.267  13.891 -0.4234  0.1039 -0.4555
16777TIP3   OH271745   6.233   6.284   0.241 -0.4815 -0.5668 -0.6661
16777TIP3    H171746   6.309   6.343   0.238 -0.2521 -0.8574 -0.5820
16777TIP3    H271747   6.158   6.342   0.233 -0.2463 -0.2849 -0.8771
16778TIP3   OH271748   2.718   6.577   0.148  0.4474  0.0617 -0.0964
16778TIP3    H171749   2.624   6.555   0.146  0.9637 -2.4063 -0.2919
16778TIP3    H271750   2.753   6.526   0.221  1.7918  0.3799 -0.4912
16779TIP3   OH271751   5.657   0.652   3.417  0.1647 -0.5025  0.2788
16779TIP3    H171752   5.742   0.689   3.392  0.8586 -1.6420  0.8944
16779TIP3    H271753   5.594   0.720   3.393  1.2506  0.3993 -0.1179
16780TIP3   OH271754   5.633   5.470  10.825 -0.5337 -0.4699 -0.0685
16780TIP3    H171755   5.579   5.549  10.823  2.5778  1.8314 -0.2982
16780TIP3    H271756   5.603   5.422  10.902 -3.3217  0.2682 -0.5977
16781TIP3   OH271757   5.400   5.864  16.396  0.8804  0.5678  0.0806
16781TIP3    H171758   5.493   5.869  16.373  1.3753 -1.4505  1.3808
16781TIP3    H271759   5.384   5.943  16.448  2.3617  0.0548  1.3748
16782TIP3   OH271760   0.684   5.988   0.706  0.5574  0.7035 -0.2494
16782TIP3    H171761   0.680   5.949   0.793 -1.0514 -2.0260 -1.3972
16782TIP3    H271762   0.714   5.917   0.649  0.0406  1.9114 -2.1218
16783TIP3   OH271763   6.588   2.881  14.724 -0.1128  0.5603  0.4796
16783TIP3    H171764   6.674   2.858  14.759 -0.5662 -0.3822  0.9962
16783TIP3    H271765   6.577   2.973  14.746  0.3129  0.4099  1.3465
16784TIP3   OH271766   5.440   3.500  13.119 -0.1576  0.4053 -0.5272
16784TIP3    H171767   5.437   3.450  13.037 -0.6707  0.0672 -0.3031
16784TIP3    H271768   5.367   3.561  13.112  0.7576  1.4665 -1.0106
16785TIP3   OH271769   4.681   4.455   2.189 -0.2892 -0.2374 -0.3527
16785TIP3    H171770   4.715   4.540   2.218 -0.1438 -0.4563  0.1449
16785TIP3    H271771   4.671   4.464   2.095  1.8471 -0.3743 -0.6588
16786TIP3   OH271772   2.844   5.004  17.029  0.0786  0.0545  0.2891
16786TIP3    H171773   2.875   5.023  16.940 -0.1185 -1.0496 -0.0219
16786TIP3    H271774   2.919   5.027  17.085 -0.3366  2.3228  0.0274
16787TIP3   OH271775   4.935   0.141   1.071 -0.3230  0.2991 -0.1146
16787TIP3    H171776   5.023   0.164   1.101 -0.3066  2.8429 -1.8037
16787TIP3    H271777   4.891   0.225   1.060 -2.5373 -0.8534 -0.6371
16788TIP3   OH271778   2.412   0.693   5.174  0.0945  0.1474 -0.0949
16788TIP3    H171779   2.495   0.719   5.213 -0.4827 -0.0079  1.3194
16788TIP3    H271780   2.376   0.629   5.236 -0.8386 -0.1724 -0.9386
16789TIP3   OH271781   1.617   2.225  14.699 -0.4137 -0.3265 -0.5154
16789TIP3    H171782   1.585   2.311  14.726  0.4135 -0.0800 -0.2949
16789TIP3    H271783   1.559   2.163  14.744 -0.5925  0.1109 -0.1368
16790TIP3   OH271784   6.385   3.447  11.455 -0.5287 -0.1535  0.5184
16790TIP3    H171785   6.423   3.403  11.379 -2.4093  0.3152 -0.7618
16790TIP3    H271786   6.363   3.376  11.515  1.1680 -0.5129  0.7811
16791TIP3   OH271787   3.034   0.548   0.039 -0.2307 -0.4572 -0.3344
16791TIP3    H171788   3.089   0.492  -0.014 -0.9473 -1.5206  0.0141
16791TIP3    H271789   3.045   0.516   0.129  1.4826  1.7250  0.3368
16792TIP3   OH271790   1.526   2.992  11.159 -0.3362 -0.4402 -0.2592
16792TIP3    H171791   1.554   2.928  11.225  1.3078  2.4483  2.1347
16792TIP3    H271792   1.602   3.003  11.103 -0.6526 -0.6438 -0.7306
16793TIP3   OH271793   5.501   5.606   3.244  0.5154  0.2216 -0.2534
16793TIP3    H171794   5.581   5.650   3.215  0.9946 -0.9530 -0.7584
16793TIP3    H271795   5.521   5.578   3.333 -0.7122  3.2226  1.0943
16794TIP3   OH271796   5.189   2.834  16.627 -0.1623 -0.1189 -0.4963
16794TIP3    H171797   5.241   2.855  16.704  0.2298 -1.1869 -0.4555
16794TIP3    H271798   5.141   2.915  16.607  0.1082  0.3124  0.5634
16795TIP3   OH271799   3.545   1.343  16.867  0.0907  0.0446 -0.0580
16795TIP3    H171800   3.557   1.373  16.957 -0.8229 -0.2089  0.1640
16795TIP3    H271801   3.618   1.381  16.819 -1.1929  3.0203  0.1256
16796TIP3   OH271802   2.006   3.205  10.815  0.0085  0.0224  0.3290
16796TIP3    H171803   2.038   3.295  10.827 -0.6659  0.1395  1.5091
16796TIP3    H271804   1.912   3.215  10.799  0.1021 -0.4348 -0.5674
16797TIP3   OH271805   4.185   0.795  15.428  0.1893  0.1567  0.3944
16797TIP3    H171806   4.128   0.839  15.365  0.4730  0.5702  0.4275
16797TIP3    H271807   4.210   0.713  15.385 -0.2251  0.0888  0.2762
16798TIP3   OH271808   5.098   5.621   3.249 -0.1169 -0.2566 -0.2462
16798TIP3    H171809   5.020   5.673   3.266 -0.2830 -0.5268 -0.1784
16798TIP3    H271810   5.146   5.670   3.182  0.4614  0.7482  0.8606
16799TIP3   OH271811   6.209   6.615  13.379  0.3691  0.5444  0.4587
16799TIP3    H171812   6.177   6.698  13.415 -0.2970  0.1147  0.8931
16799TIP3    H271813   6.289   6.597  13.428  0.6991  1.1001  0.1247
16800TIP3   OH271814   2.879   1.198   1.985 -0.3144  1.1912 -0.0696
16800TIP3    H171815   2.877   1.271   1.924  2.3302  0.9973 -0.4782
16800TIP3    H271816   2.947   1.220   2.048 -1.3486  0.2925  1.4397
16801TIP3   OH271817   1.469   5.221  14.540 -1.2148  0.4791 -1.0402
16801TIP3    H171818   1.520   5.188  14.613  1.3467  0.3646 -2.7362
16801TIP3    H271819   1.429   5.143  14.501 -1.4174  0.3676 -0.6151
16802TIP3   OH271820   0.925   0.955   2.220  0.1645  0.9586  0.1489
16802TIP3    H171821   0.848   1.002   2.250 -0.2789  0.4897 -0.2307
16802TIP3    H271822   0.890   0.876   2.177  0.9046  0.0546  1.1454
16803TIP3   OH271823   4.225   0.346  11.198 -0.3697  0.1386 -0.1477
16803TIP3    H171824   4.163   0.394  11.143 -1.4144  1.6657  2.2369
16803TIP3    H271825   4.179   0.334  11.281  1.5244 -1.1671  0.7750
16804TIP3   OH271826   1.478   5.817  11.041  0.2554  0.0273  0.3728
16804TIP3    H171827   1.426   5.878  10.989 -0.2449  0.7697  1.6827
16804TIP3    H271828   1.414   5.769  11.093  0.5529 -2.3699 -1.3168
16805TIP3   OH271829   3.619   6.574  11.609  0.4766 -0.6680 -0.2803
16805TIP3    H171830   3.575   6.581  11.525  1.2189  0.3439 -0.6017
16805TIP3    H271831   3.591   6.652  11.658  3.9572  1.5765 -1.5259
16806TIP3   OH271832   3.197   0.426   0.500 -0.6523  0.3464  0.3114
16806TIP3    H171833   3.280   0.446   0.457  0.1086 -0.5455  1.2840
16806TIP3    H271834   3.185   0.497   0.563  2.0422 -1.9094  3.7646
16807TIP3   OH271835   1.337   6.757   0.681 -0.1229  0.0678 -0.0581
16807TIP3    H171836   1.383   6.708   0.749 -1.8197 -0.5439  0.6878
16807TIP3    H271837   1.271   6.697   0.648 -0.2916  0.8658 -1.2417
16808TIP3   OH271838   1.682   5.479  15.514 -0.4255 -0.4619  0.4919
16808TIP3    H171839   1.628   5.400  15.511 -1.5759  0.3494 -1.2162
16808TIP3    H271840   1.660   5.527  15.435 -0.7438  2.2511  2.1147
16809TIP3   OH271841   1.264   6.490   1.602  0.3925  0.2985 -0.3107
16809TIP3    H171842   1.185   6.536   1.630  1.3820  2.2994 -0.5949
16809TIP3    H271843   1.295   6.445   1.680 -1.0425 -0.6029 -0.2219
16810TIP3   OH271844   6.271   0.366  11.516 -0.1953 -0.3115 -0.2009
16810TIP3    H171845   6.232   0.346  11.601 -2.9190  0.4740 -1.1523
16810TIP3    H271846   6.228   0.305  11.456 -0.1092  0.7522 -1.3748
16811TIP3   OH271847   4.107   2.359   3.322  0.5714  0.4435 -0.5250
16811TIP3    H171848   4.021   2.384   3.354  0.9057 -0.6631  1.3944
16811TIP3    H271849   4.091   2.290   3.258  0.0516 -0.1674  0.2591
16812TIP3   OH271850   6.498   4.770   0.019 -0.4881  0.1868 -0.0757
16812TIP3    H171851   6.481   4.677   0.004 -0.5708  0.0860  0.6333
16812TIP3    H271852   6.539   4.799  -0.062  2.2798 -1.1541  0.7239
16813TIP3   OH271853   0.534   2.095  13.735  0.5340 -0.0970 -0.1758
16813TIP3    H171854   0.452   2.138  13.708  1.7287  1.9960 -0.7155
16813TIP3    H271855   0.512   2.002  13.740 -2.3033  0.5389  1.3504
16814TIP3   OH271856   4.060   5.556  16.259  0.7262 -0.1998  0.2364
16814TIP3    H171857   3.984   5.615  16.257  0.5929 -0.3950 -1.1995
16814TIP3    H271858   4.023   5.468  16.247  1.2128 -0.2382 -1.1682
16815TIP3   OH271859   1.907   1.755   1.166  0.3777  0.1756 -0.0893
16815TIP3    H171860   2.001   1.736   1.163  0.8977  2.3103  1.0626
16815TIP3    H271861   1.870   1.685   1.221  1.0420 -1.3898 -1.5537
16816TIP3   OH271862   3.065   4.768  17.092  0.3217 -0.4888  0.0963
16816TIP3    H171863   2.975   4.736  17.097 -0.0733 -0.0451 -2.5181
16816TIP3    H271864   3.119   4.689  17.083  0.1403 -0.7096  0.8530
16817TIP3   OH271865   2.483   2.377  13.137 -0.3280 -0.1430 -0.0844
16817TIP3    H171866   2.509   2.339  13.053  0.6758  0.7490 -0.1929
16817TIP3    H271867   2.395   2.342  13.152 -0.5529 -0.2758 -1.5312
16818TIP3   OH271868   0.412   5.172  12.432 -0.0763  0.4423  0.1836
16818TIP3    H171869   0.325   5.164  12.469  0.8111  0.0548  2.3088
16818TIP3    H271870   0.467   5.202  12.504  1.5253  0.9659 -1.1662
16819TIP3   OH271871   1.237   5.223  15.719  0.2370 -0.6988  0.6909
16819TIP3    H171872   1.175   5.163  15.761 -0.8000  0.6924  1.2144
16819TIP3    H271873   1.194   5.308  15.722  1.9959  0.2320  0.6323
16820TIP3   OH271874   0.097   3.867   0.189 -0.1100 -0.2015 -0.4257
16820TIP3    H171875   0.145   3.837   0.112  0.4763 -0.6909  0.1092
16820TIP3    H271876   0.070   3.956   0.168  1.9939  0.5129 -0.3537
16821TIP3   OH271877   1.655   5.822  10.349  0.0338  0.5093 -0.1608
16821TIP3    H171878   1.561   5.830  10.367 -0.1500  0.5874 -1.1050
16821TIP3    H271879   1.690   5.775  10.425 -0.9561 -0.4752 -0.2844
16822TIP3   OH271880   0.867   1.607   6.067  0.8814 -0.0692 -0.0513
16822TIP3    H171881   0.917   1.561   6.134  2.3945  1.1864 -0.2667
16822TIP3    H271882   0.781   1.567   6.070  1.0969 -0.5040  2.1938
16823TIP3   OH271883   1.077   1.678  13.187 -0.3610 -0.5134 -0.2149
16823TIP3    H171884   1.167   1.707  13.200  0.1415 -1.7490 -0.7811
16823TIP3    H271885   1.058   1.699  13.096  0.2654 -2.4848 -0.8627
16824TIP3   OH271886   4.713   5.247  12.961  0.3491 -0.2861 -0.1625
16824TIP3    H171887   4.704   5.302  12.884 -1.7156  0.7318  0.7207
16824TIP3    H271888   4.779   5.182  12.937  2.2760  2.0169 -1.5418
16825TIP3   OH271889   4.816   6.658  11.651 -0.1261 -0.1651  0.3022
16825TIP3    H171890   4.865   6.617  11.722  2.0703 -0.1197 -1.0892
16825TIP3    H271891   4.859   6.627  11.571 -1.2306  1.3436 -0.9409
16826TIP3   OH271892   6.634   1.805  11.770 -0.0853 -0.0762  0.3081
16826TIP3    H171893   6.656   1.892  11.802 -0.2158  0.7422 -1.6702
16826TIP3    H271894   6.562   1.819  11.709 -1.1081 -1.7836  1.0510
16827TIP3   OH271895   2.166   1.210  14.507  0.3734  0.4422 -0.5630
16827TIP3    H171896   2.140   1.184  14.419 -1.1251 -1.3809  0.3298
16827TIP3    H271897   2.205   1.130  14.544  1.3093  1.2821  0.3210
16828TIP3   OH271898   3.227   2.257   4.732  0.4569  0.1094 -0.0161
16828TIP3    H171899   3.274   2.256   4.816 -1.5779 -0.3705  1.1984
16828TIP3    H271900   3.223   2.349   4.708 -0.4480  0.4740  1.3748
16829TIP3   OH271901   6.018   2.109   4.079 -0.3767  0.4346  0.2864
16829TIP3    H171902   6.090   2.053   4.107 -0.8973 -0.7720 -0.6717
16829TIP3    H271903   6.013   2.096   3.984  0.9258  3.8930 -0.3853
16830TIP3   OH271904   2.072   2.548  13.800 -0.9515 -0.3916 -0.5148
16830TIP3    H171905   2.014   2.520  13.871  0.3003 -1.9660 -0.0731
16830TIP3    H271906   2.020   2.535  13.721 -3.0022  2.9819  0.0765
16831TIP3   OH271907   1.829   6.583  11.940 -0.1990 -0.0230 -0.3577
16831TIP3    H171908   1.768   6.653  11.964 -1.8554 -1.6774  0.6154
16831TIP3    H271909   1.781   6.531  11.876  0.4458 -1.0062 -0.0648
16832TIP3   OH271910   0.029   1.921  17.022 -0.5668  0.3407 -0.1363
16832TIP3    H171911   0.067   1.834  17.029 -0.4792  0.3694 -0.2497
16832TIP3    H271912  -0.027   1.929  17.100 -0.2332  0.3515  0.1045
16833TIP3   OH271913   5.985   2.540  12.318 -0.4128 -0.1000 -0.0263
16833TIP3    H171914   5.914   2.604  12.316 -0.4122 -0.0649  0.5922
16833TIP3    H271915   5.966   2.479  12.247 -0.2286  0.7777 -0.8454
16834TIP3   OH271916   6.476   2.157  14.362  0.3052  0.4043 -0.0755
16834TIP3    H171917   6.419   2.177  14.288  0.3351 -1.8874 -0.7751
16834TIP3    H271918   6.531   2.085  14.331  1.6065  0.6302  1.5705
16835TIP3   OH271919   3.931   1.188  16.865  0.2331  0.0388 -0.3863
16835TIP3    H171920   3.880   1.220  16.939  1.0154  2.2108 -0.7154
16835TIP3    H271921   4.021   1.215  16.884  1.0172 -2.1100 -0.6791
16836TIP3   OH271922   5.089   5.475   3.666 -0.4849 -0.4772  0.0854
16836TIP3    H171923   5.030   5.541   3.632  0.2098  0.2350  0.2330
16836TIP3    H271924   5.174   5.495   3.626 -0.2560 -1.2427  0.1749
16837TIP3   OH271925   3.885   2.613  11.774  0.5799 -0.2730  0.5324
16837TIP3    H171926   3.799   2.616  11.734  1.1667 -1.4406 -0.8708
16837TIP3    H271927   3.886   2.533  11.825  1.1553 -0.7822 -0.2551
16838TIP3   OH271928   1.978   4.739   0.468 -0.2733  0.1310  0.2625
16838TIP3    H171929   2.010   4.690   0.392  0.5019  1.5700 -0.4024
16838TIP3    H271930   2.013   4.693   0.543  0.0459 -0.5902 -0.3196
16839TIP3   OH271931   5.334   5.841   4.470 -0.1243 -0.3782  0.4202
16839TIP3    H171932   5.271   5.859   4.400 -1.6609 -1.2174  1.5212
16839TIP3    H271933   5.415   5.820   4.425 -0.7257  0.3540 -1.0641
16840TIP3   OH271934   1.397   2.579  16.298  0.2590 -0.1932 -0.2329
16840TIP3    H171935   1.443   2.542  16.373 -1.0092  0.8550  1.1382
16840TIP3    H271936   1.388   2.672  16.320 -0.0031  0.1606 -1.7667
16841TIP3   OH271937   6.120   2.463  16.074 -0.6560 -0.9204 -0.0467
16841TIP3    H171938   6.138   2.374  16.102  2.4380 -0.7696 -1.1859
16841TIP3    H271939   6.025   2.466  16.063 -1.1202 -3.2816  2.3773
16842TIP3   OH271940   5.867   3.711   5.358  0.2159  0.1199 -0.3327
16842TIP3    H171941   5.815   3.731   5.280 -0.5039  1.0991  0.3786
16842TIP3    H271942   5.815   3.646   5.406  0.4475 -0.1495 -0.4437
16843TIP3   OH271943   6.717   4.875  13.127  0.1461 -0.3683  0.2928
16843TIP3    H171944   6.800   4.897  13.170 -0.5337  1.8406  0.6078
16843TIP3    H271945   6.731   4.896  13.035  0.0028 -0.2314  0.3027
16844TIP3   OH271946   0.276   5.490   1.977  0.2752 -0.1862  0.3153
16844TIP3    H171947   0.300   5.481   2.069  2.2647 -2.1027 -0.2900
16844TIP3    H271948   0.358   5.477   1.929 -1.1781 -2.6245 -1.8025
16845TIP3   OH271949   3.625   2.815   1.816 -0.0878  0.1926 -0.1086
16845TIP3    H171950   3.548   2.776   1.858 -1.3408  1.4840 -1.1089
16845TIP3    H271951   3.657   2.878   1.880 -0.2297  0.0936  0.0629
16846TIP3   OH271952   4.175   6.660  12.605 -0.4309 -0.0586 -0.0496
16846TIP3    H171953   4.198   6.568  12.614 -0.6331 -0.1287 -0.2279
16846TIP3    H271954   4.124   6.664  12.524  0.0933  0.3065 -0.3685
16847TIP3   OH271955   4.995   3.516  16.647 -0.1291 -0.0357 -0.3504
16847TIP3    H171956   4.944   3.464  16.710  0.2926  0.4201  0.3896
16847TIP3    H271957   4.977   3.607  16.672  0.9421  0.1306 -0.1463
16848TIP3   OH271958   6.215   2.014   1.623  0.2308  0.0875 -0.2304
16848TIP3    H171959   6.233   2.007   1.529  0.1798  2.1764 -0.4476
16848TIP3    H271960   6.283   1.961   1.664  1.5309  0.7792 -1.3848
16849TIP3   OH271961   0.743   6.788   4.707  0.1908 -0.1820  0.1501
16849TIP3    H171962   0.802   6.749   4.770  2.8335 -0.1902 -2.1416
16849TIP3    H271963   0.689   6.715   4.675  2.2601 -1.2531 -1.1129
16850TIP3   OH271964   2.445   2.745   5.339 -0.6413 -0.0494  0.6116
16850TIP3    H171965   2.537   2.760   5.361  0.3196 -0.9073 -2.3433
16850TIP3    H271966   2.413   2.831   5.313  0.7440 -0.3471 -2.6291
16851TIP3   OH271967   0.105   6.329  16.917  0.4057  0.1216 -0.6521
16851TIP3    H171968   0.048   6.400  16.948  0.2706  0.0940 -0.8322
16851TIP3    H271969   0.082   6.254  16.972  0.4110  0.1659 -0.5892
16852TIP3   OH271970   6.819   3.410   1.441  0.0282  0.2173  0.1036
16852TIP3    H171971   6.800   3.322   1.410 -0.0124  0.1851  0.2175
16852TIP3    H271972   6.909   3.407   1.471  0.4775  0.5703 -1.1497
16853TIP3   OH271973   2.054   3.379  10.568 -0.2770  0.1649 -0.2820
16853TIP3    H171974   2.132   3.336  10.534  0.2186 -0.4823  1.5218
16853TIP3    H271975   2.017   3.316  10.630  0.2388  2.1118  2.1562
16854TIP3   OH271976   6.027   5.215  14.630 -0.6765  0.3194 -0.1080
16854TIP3    H171977   6.009   5.272  14.555 -0.0603  2.7144  1.4485
16854TIP3    H271978   5.942   5.203  14.672 -0.7234  0.5431 -0.1382
16855TIP3   OH271979   4.329   0.312  15.441  0.4911 -0.1873  0.1598
16855TIP3    H171980   4.344   0.261  15.361  2.1861  1.0580 -0.3698
16855TIP3    H271981   4.414   0.314  15.484 -0.5408 -1.3997  2.4002
16856TIP3   OH271982   3.029   6.396   1.618  0.6734 -0.1283 -0.6720
16856TIP3    H171983   3.072   6.480   1.603  0.9247 -0.6015 -2.8632
16856TIP3    H271984   3.054   6.372   1.707 -0.1726  2.5161  0.3899
16857TIP3   OH271985   5.441   0.330   1.621  0.6131  0.5339  0.6023
16857TIP3    H171986   5.354   0.321   1.584  0.3719  0.7967  1.0946
16857TIP3    H271987   5.478   0.241   1.618  0.2366  0.3766  0.6210
16858TIP3   OH271988   3.383   2.786  13.394  0.3196 -1.0228  0.4541
16858TIP3    H171989   3.443   2.850  13.355 -1.0754  0.2337  0.2490
16858TIP3    H271990   3.411   2.702  13.359  0.8997 -0.2654 -0.9863
16859TIP3   OH271991   1.169   0.725  16.194 -0.1396  0.5678  0.1418
16859TIP3    H171992   1.241   0.786  16.210  0.7703 -0.6086  0.6471
16859TIP3    H271993   1.090   0.780  16.197  0.7961  2.1377 -1.9394
16860TIP3   OH271994   5.711   2.080  12.373 -0.2457  0.4685 -0.2030
16860TIP3    H171995   5.640   2.049  12.429  1.6880 -1.2628  1.4236
16860TIP3    H271996   5.666   2.107  12.292 -2.6521 -1.7324  0.2355
16861TIP3   OH271997   0.085   5.572  15.904  0.0259 -0.5993  0.0647
16861TIP3    H171998   0.110   5.482  15.920 -0.2752 -0.6884  0.0349
16861TIP3    H271999   0.051   5.604  15.988 -0.8460 -0.8369 -0.1847
16862TIP3   OH272000   5.680   6.343   4.396  0.0208 -0.0862 -0.3504
16862TIP3    H172001   5.664   6.329   4.302 -1.5853  1.1119 -0.2830
16862TIP3    H272002   5.644   6.266   4.438 -1.2733  0.3584 -0.5872
16863TIP3   OH272003   0.698   1.712   3.905 -0.0210 -0.3444 -0.0707
16863TIP3    H172004   0.708   1.697   3.811  1.3665  0.4472 -0.0602
16863TIP3    H272005   0.742   1.638   3.946  0.9303  0.2278 -0.0456
16864TIP3   OH272006   1.595   4.373  10.313 -0.0026 -0.1357 -0.4982
16864TIP3    H172007   1.564   4.453  10.354  1.8804 -0.1805  1.2106
16864TIP3    H272008   1.522   4.312  10.319 -0.9421  0.9782 -0.4268
16865TIP3   OH272009   5.418   5.602   0.075  0.3509  0.4886  0.1597
16865TIP3    H172010   5.369   5.582  -0.004  0.8646 -0.2614  0.0185
16865TIP3    H272011   5.492   5.656   0.045  0.5467  0.2027  0.1252
16866TIP3   OH272012   3.732   5.385   5.513  0.1586  0.0620  0.5769
16866TIP3    H172013   3.689   5.405   5.596 -1.8191  1.1660 -0.6129
16866TIP3    H272014   3.676   5.426   5.447  2.6964  0.9061 -1.1931
16867TIP3   OH272015   6.338   0.687   4.503 -0.1225 -0.0093  0.1556
16867TIP3    H172016   6.386   0.734   4.434  1.3959 -0.2449  1.0113
16867TIP3    H272017   6.299   0.613   4.457  3.0187 -1.6794 -0.1251
16868TIP3   OH272018   3.239   4.171  13.029  0.4813  0.3350 -0.4981
16868TIP3    H172019   3.181   4.235  13.071  0.0682  0.3784 -1.1260
16868TIP3    H272020   3.273   4.216  12.952 -0.8811 -0.6284 -1.7197
16869TIP3   OH272021   5.424   4.146   0.990 -0.1063 -0.2194 -0.3978
16869TIP3    H172022   5.353   4.211   0.993  1.2882  1.3754 -0.5510
16869TIP3    H272023   5.488   4.178   1.053  0.5362 -1.5896 -0.3183
16870TIP3   OH272024   1.306   5.201   5.579 -0.1384  0.1561  0.6393
16870TIP3    H172025   1.224   5.209   5.530  1.2610 -0.4144 -2.0113
16870TIP3    H272026   1.311   5.108   5.603  0.0078  0.0540  0.2266
16871TIP3   OH272027   4.862   3.150   2.359 -0.1057  0.5068 -0.8731
16871TIP3    H172028   4.906   3.222   2.405  0.8787 -0.8101  0.3490
16871TIP3    H272029   4.851   3.082   2.426 -1.7586 -0.1801 -1.7880
16872TIP3   OH272030   1.541   3.661   5.311 -0.0399  0.8566  0.0728
16872TIP3    H172031   1.629   3.630   5.289 -1.0158 -1.7680 -0.4967
16872TIP3    H272032   1.483   3.615   5.250 -2.0209  0.6231  1.9879
16873TIP3   OH272033   2.978   4.092  10.500  0.6149 -0.5716  0.3058
16873TIP3    H172034   3.006   4.143  10.577  1.0321 -0.5108  0.1139
16873TIP3    H272035   3.059   4.055  10.465  0.3259 -1.2564  0.3601
16874TIP3   OH272036   1.639   1.920   5.639  0.0324  0.0700 -0.1079
16874TIP3    H172037   1.710   1.933   5.702  0.6349  0.0107 -0.7567
16874TIP3    H272038   1.580   1.994   5.654  0.0592 -0.0564  0.6563
16875TIP3   OH272039   1.071   5.731   6.384  0.2372  0.4098 -0.4022
16875TIP3    H172040   1.155   5.774   6.366 -0.3224  2.2211  0.9984
16875TIP3    H272041   1.019   5.745   6.305  0.2768  1.8500 -0.1966
16876TIP3   OH272042   0.950   4.267  16.521  0.3664  0.4098  0.2912
16876TIP3    H172043   0.858   4.248  16.542  0.6146 -1.1784  0.0434
16876TIP3    H272044   1.000   4.200  16.568  1.3532  0.8406 -0.1168
16877TIP3   OH272045   2.954   0.026   2.859 -0.2104  0.5371 -0.3861
16877TIP3    H172046   2.901  -0.053   2.848 -0.8121  0.4955  2.1266
16877TIP3    H272047   3.042   0.000   2.831 -0.1086 -1.4841  1.4990
16878TIP3   OH272048   4.991   2.260  12.398  0.7455  0.0459 -0.3790
16878TIP3    H172049   4.957   2.347  12.419  0.0381 -0.3238  0.0304
16878TIP3    H272050   5.085   2.267  12.412  0.6909  0.7335 -0.3151
16879TIP3   OH272051   1.095   0.122   1.913 -0.2594 -0.0470 -0.4771
16879TIP3    H172052   1.112   0.211   1.883  1.7159  0.6241  2.2182
16879TIP3    H272053   1.035   0.132   1.987  1.1707 -0.7409  0.8241
16880TIP3   OH272054   1.929   2.108  12.084  0.0355  0.1876  0.5627
16880TIP3    H172055   1.887   2.142  12.005  0.7758  0.5652  0.3195
16880TIP3    H272056   1.988   2.040  12.053 -0.8338 -0.7745  0.9690
16881TIP3   OH272057   5.859   2.724   1.924  0.4771  0.1180  0.6946
16881TIP3    H172058   5.887   2.769   2.003  0.8505 -0.6553  1.0095
16881TIP3    H272059   5.763   2.724   1.928  0.4636 -2.3088  2.5615
16882TIP3   OH272060   0.729   5.816  11.708  0.9360 -0.7911 -0.0863
16882TIP3    H172061   0.717   5.756  11.782 -0.4705 -1.2641 -0.6602
16882TIP3    H272062   0.783   5.766  11.646  1.1778 -0.8215  0.1465
16883TIP3   OH272063   0.853   6.573  13.056 -0.1234  0.2899 -0.5196
16883TIP3    H172064   0.782   6.511  13.036  0.7503 -0.8733 -0.1267
16883TIP3    H272065   0.933   6.521  13.045  0.6728  1.5587 -0.8751
16884TIP3   OH272066   5.302   2.215   1.920 -0.2246  0.3802 -0.5874
16884TIP3    H172067   5.329   2.166   1.998  0.0995 -0.7245 -1.3676
16884TIP3    H272068   5.350   2.173   1.848 -0.9310  1.0340 -1.4545
16885TIP3   OH272069   5.853   4.922   4.987  0.0356 -0.2796  0.6883
16885TIP3    H172070   5.892   4.993   4.937 -2.2389  0.4675 -0.1480
16885TIP3    H272071   5.880   4.938   5.078  1.7090  0.0962  0.1521
16886TIP3   OH272072   2.583   4.242  11.101  0.6127 -0.1366  0.7139
16886TIP3    H172073   2.671   4.245  11.064  1.2147 -2.4861  1.7727
16886TIP3    H272074   2.529   4.202  11.033  1.2673 -2.4497  1.4767
16887TIP3   OH272075   0.891   3.027   1.882  0.1643  0.2375  0.1590
16887TIP3    H172076   0.969   3.048   1.934  0.3307 -0.8257  0.3666
16887TIP3    H272077   0.821   3.018   1.947  0.2616 -0.5642  0.1730
16888TIP3   OH272078   2.640   1.494  13.250  0.2253  0.7263 -0.3522
16888TIP3    H172079   2.666   1.506  13.159  0.3275  1.1413 -0.2676
16888TIP3    H272080   2.580   1.566  13.268  1.5589  1.6975  0.4229
16889TIP3   OH272081   1.657   3.130   0.047  0.3171  0.1226  0.2778
16889TIP3    H172082   1.590   3.123   0.115 -0.2574  3.1131  0.1776
16889TIP3    H272083   1.648   3.050  -0.004 -1.4965 -0.6749  1.7348
16890TIP3   OH272084   4.392   0.772   3.688  0.5690 -0.7920  0.0657
16890TIP3    H172085   4.379   0.800   3.597 -0.8040 -0.0504  0.4656
16890TIP3    H272086   4.408   0.853   3.736  4.9153 -1.3959  0.0172
16891TIP3   OH272087   2.953   5.132   1.662 -0.4279 -0.2503 -0.4697
16891TIP3    H172088   3.042   5.151   1.691 -0.6784  1.6123 -0.7563
16891TIP3    H272089   2.897   5.172   1.729 -1.0413 -0.8233 -0.6289
16892TIP3   OH272090   3.876   2.747   4.215 -0.5646 -0.0437  0.2371
16892TIP3    H172091   3.897   2.654   4.208  2.1074  0.5244 -0.1681
16892TIP3    H272092   3.934   2.780   4.283 -0.8801  1.5047 -0.2040
16893TIP3   OH272093   0.225   1.845   0.216 -0.0966  0.5292 -0.1563
16893TIP3    H172094   0.171   1.861   0.139 -2.7491 -0.0195  1.4697
16893TIP3    H272095   0.212   1.922   0.271  1.4929  0.7645 -0.0663
16894TIP3   OH272096   6.084   2.006  13.450  0.0127 -0.3077  0.1722
16894TIP3    H172097   6.047   2.043  13.530  2.5632 -0.2725  1.4605
16894TIP3    H272098   6.154   2.067  13.426  0.6479 -1.4004 -0.8835
16895TIP3   OH272099   5.911   6.622  15.786 -0.4940  0.4512  0.5908
16895TIP3    H172100   5.978   6.669  15.836  2.3042 -2.2201 -0.2944
16895TIP3    H272101   5.870   6.563  15.849 -0.2062  0.3044  0.6416
16896TIP3   OH272102   4.555   4.156  15.113 -0.2597  0.7179  0.5469
16896TIP3    H172103   4.465   4.128  15.127  0.2256 -2.6717 -1.8235
16896TIP3    H272104   4.547   4.240  15.067 -2.2701 -0.1523 -0.8268
16897TIP3   OH272105   1.788   0.470  11.779 -0.2068  0.0027  0.0513
16897TIP3    H172106   1.704   0.513  11.770 -0.3241 -0.0835  0.6379
16897TIP3    H272107   1.850   0.541  11.792 -0.3285  0.0241  0.5342
16898TIP3   OH272108   3.117   6.671  12.787  0.2427  0.5451 -0.6844
16898TIP3    H172109   3.126   6.583  12.752 -2.8056  0.2975 -1.0693
16898TIP3    H272110   3.143   6.663  12.879  1.6956 -0.2854 -1.1287
16899TIP3   OH272111   2.613   3.372  11.169  0.1473  0.1371  0.1975
16899TIP3    H172112   2.529   3.416  11.158  0.9985  2.1603  1.3142
16899TIP3    H272113   2.591   3.288  11.210 -1.4250 -0.1172 -1.0488
16900TIP3   OH272114   5.497   1.960   0.345 -0.0378 -0.4021  0.1917
16900TIP3    H172115   5.584   1.922   0.357  0.0950  0.1087  0.9365
16900TIP3    H272116   5.507   2.052   0.370 -1.0429 -0.5965  1.4429
16901TIP3   OH272117   2.771   6.443  12.134 -0.4634 -0.8445  0.1260
16901TIP3    H172118   2.754   6.509  12.066  0.5896 -1.5783 -0.8966
16901TIP3    H272119   2.695   6.385  12.131 -1.9933  0.9104  1.8606
16902TIP3   OH272120   0.844   2.031  16.257 -0.0671 -0.2562  0.5240
16902TIP3    H172121   0.919   2.050  16.314  0.9623 -1.2138 -0.4680
16902TIP3    H272122   0.789   1.972  16.309 -0.6491  1.1792  1.6128
16903TIP3   OH272123   3.475   2.336   4.024  0.3473 -0.0966 -0.6155
16903TIP3    H172124   3.484   2.299   4.112 -0.0570 -0.3274 -0.6713
16903TIP3    H272125   3.493   2.429   4.036  0.5899 -0.1768 -0.3403
16904TIP3   OH272126   1.733   4.366  16.998 -0.1783 -0.6803 -1.0186
16904TIP3    H172127   1.793   4.367  16.923  1.6171 -0.6816  0.3774
16904TIP3    H272128   1.731   4.456  17.029 -0.8053 -0.7110 -0.9479
16905TIP3   OH272129   5.949   3.632  12.251 -0.0213  0.1102 -0.2136
16905TIP3    H172130   5.992   3.549  12.233  1.9070  0.6976  1.3536
16905TIP3    H272131   5.943   3.675  12.165 -0.6956 -1.4303 -0.9745
16906TIP3   OH272132   2.094   6.572  13.094 -0.4397 -0.5578 -0.3874
16906TIP3    H172133   2.061   6.614  13.173  1.0457 -0.8723  0.4508
16906TIP3    H272134   2.156   6.635  13.058 -0.0704 -0.9856 -0.5073
16907TIP3   OH272135   4.521   4.494   1.420  0.4721  0.3114  0.5011
16907TIP3    H172136   4.611   4.512   1.393  0.9327  0.6193  2.1293
16907TIP3    H272137   4.517   4.399   1.430  0.3633  0.2171 -0.3797
16908TIP3   OH272138   4.125   6.790   5.368  0.5381  0.1255 -0.1983
16908TIP3    H172139   4.196   6.831   5.417 -0.4372  3.4852 -1.3264
16908TIP3    H272140   4.123   6.835   5.284 -2.4763 -0.2878 -0.4837
16909TIP3   OH272141   0.642   0.607  14.520  0.5336  0.0975 -0.2431
16909TIP3    H172142   0.649   0.541  14.589 -2.3456  0.5206  0.5644
16909TIP3    H272143   0.647   0.691  14.566 -0.1980  0.4017 -0.7057
16910TIP3   OH272144   2.515   6.443  16.041 -0.4274  0.3183  0.0384
16910TIP3    H172145   2.590   6.388  16.017 -0.6289  0.4590 -0.9500
16910TIP3    H272146   2.488   6.484  15.958  0.4592  2.8485  0.8905
16911TIP3   OH272147   3.679   2.233  15.472 -0.2572 -0.0986  0.6917
16911TIP3    H172148   3.683   2.324  15.441 -0.7906 -0.4297 -0.3979
16911TIP3    H272149   3.712   2.182  15.398 -0.8955 -0.8659  0.9290
16912TIP3   OH272150   4.831   0.589   3.539 -0.0143 -0.0791 -0.4587
16912TIP3    H172151   4.855   0.526   3.607 -0.6232  0.3681  0.1878
16912TIP3    H272152   4.809   0.535   3.463 -1.9201 -0.7839  0.5030
16913TIP3   OH272153   0.787   0.211  13.860 -0.2584  0.6426 -0.0666
16913TIP3    H172154   0.703   0.255  13.870 -0.5824  0.7058 -2.5839
16913TIP3    H272155   0.851   0.283  13.856 -0.6099  0.9041 -2.4748
16914TIP3   OH272156   5.001   0.959   1.075 -0.0407  0.2970  0.3785
16914TIP3    H172157   4.915   0.999   1.089 -0.3619  0.2135 -1.1655
16914TIP3    H272158   4.988   0.900   1.001  0.9840 -0.9050  1.1254
16915TIP3   OH272159   3.820   5.218  16.404 -0.1683 -0.5135  0.2757
16915TIP3    H172160   3.772   5.283  16.352  0.4191 -0.0573  0.2984
16915TIP3    H272161   3.816   5.253  16.493  0.8123 -0.1010  0.1704
16916TIP3   OH272162   0.012   5.873   2.252 -0.3110 -0.3831  0.0713
16916TIP3    H172163   0.087   5.846   2.200 -0.7738 -0.5540 -0.5110
16916TIP3    H272164  -0.034   5.792   2.273 -1.1171 -0.1649 -0.7852
16917TIP3   OH272165   5.581   0.421   0.874  0.2848 -0.0201  0.0175
16917TIP3    H172166   5.584   0.331   0.906 -2.2943  0.4691  1.9201
16917TIP3    H272167   5.612   0.474   0.948  1.5917  0.7232 -1.0151
16918TIP3   OH272168   3.024   1.321  12.739 -0.3251 -0.2273  0.5181
16918TIP3    H172169   3.033   1.415  12.758 -1.0128  0.0703 -0.5689
16918TIP3    H272170   2.988   1.285  12.820  0.2003  0.3831  1.0499
16919TIP3   OH272171   2.405   5.107   4.651 -0.5604  0.2776 -0.6050
16919TIP3    H172172   2.316   5.100   4.617 -0.8867 -0.2210  0.3252
16919TIP3    H272173   2.420   5.025   4.698 -0.4124  1.2282  1.0862
16920TIP3   OH272174   5.383   2.721  15.677 -0.2765 -0.2526  0.0457
16920TIP3    H172175   5.355   2.638  15.639  2.2812 -1.8081  1.2567
16920TIP3    H272176   5.373   2.784  15.606  0.8527 -2.2933 -2.0977
16921TIP3   OH272177   5.506   0.844  15.552  0.1037  0.1402 -0.3367
16921TIP3    H172178   5.505   0.792  15.632  0.3330 -0.2608 -0.5913
16921TIP3    H272179   5.572   0.802  15.497  0.1192  0.5547 -0.6440
16922TIP3   OH272180   6.535   3.017  15.295 -0.3801  0.9349 -0.0381
16922TIP3    H172181   6.568   3.105  15.313 -0.8008  1.5968 -2.2265
16922TIP3    H272182   6.449   3.031  15.256 -0.4700 -0.4626 -0.3917
16923TIP3   OH272183   6.489   2.626   1.887  0.3569  0.0835 -0.1921
16923TIP3    H172184   6.520   2.538   1.908 -1.5871 -0.8997 -1.1423
16923TIP3    H272185   6.524   2.644   1.800  1.3025  0.5551  0.2724
16924TIP3   OH272186   3.042   1.912   3.932  0.1365  0.7321  0.0895
16924TIP3    H172187   3.011   1.995   3.968 -0.9894 -0.9459  3.3323
16924TIP3    H272188   2.965   1.871   3.894  0.4158  0.5912 -0.3394
16925TIP3   OH272189   5.188   3.393   6.408 -0.2882  0.2649  0.6256
16925TIP3    H172190   5.236   3.323   6.451 -0.1058  0.5316  0.8598
16925TIP3    H272191   5.239   3.472   6.426 -0.5354  0.4716  0.4347
16926TIP3   OH272192   1.945   0.292   1.553 -0.1439  0.2048  0.6613
16926TIP3    H172193   1.958   0.199   1.532  1.6556  0.8783 -1.6038
16926TIP3    H272194   1.911   0.292   1.643 -2.2602 -2.7135 -0.0052
16927TIP3   OH272195   2.807   0.291   4.594 -0.7768  0.7619  0.4514
16927TIP3    H172196   2.869   0.315   4.525 -1.5760 -2.2879 -1.5258
16927TIP3    H272197   2.724   0.329   4.566 -0.7224  1.1004  0.7443
16928TIP3   OH272198   1.639   3.799   0.084 -0.3674  0.2999 -0.1290
16928TIP3    H172199   1.612   3.740   0.155  0.2258 -0.3029 -0.3878
16928TIP3    H272200   1.696   3.863   0.126  1.3435 -1.0412 -0.3107
16929TIP3   OH272201   6.694   1.765   6.829  0.2866 -0.3627  0.1225
16929TIP3    H172202   6.760   1.697   6.813  1.4531  0.4849  1.1540
16929TIP3    H272203   6.719   1.837   6.772 -1.1615 -0.8830 -1.2367
16930TIP3   OH272204   1.866   5.759  13.031 -0.0655 -0.2476  0.2021
16930TIP3    H172205   1.905   5.766  13.118  0.5223 -1.2220  0.0353
16930TIP3    H272206   1.794   5.697  13.043  0.7571 -1.3160 -0.2267
16931TIP3   OH272207   2.637   1.922  11.455 -0.6817 -0.0072 -0.1147
16931TIP3    H172208   2.571   1.853  11.466 -0.2773 -0.8409 -2.4324
16931TIP3    H272209   2.716   1.886  11.496 -1.3636  0.6410  1.8972
16932TIP3   OH272210   1.731   3.388   2.039 -0.3722 -0.5433  0.4962
16932TIP3    H172211   1.670   3.399   2.112 -0.7603  1.2475 -0.0501
16932TIP3    H272212   1.815   3.418   2.073 -0.3563 -0.5460  0.4592
16933TIP3   OH272213   2.888   4.405   1.981 -0.6337 -0.5057  0.1679
16933TIP3    H172214   2.917   4.317   2.007 -0.2988 -0.2865  0.5584
16933TIP3    H272215   2.886   4.403   1.886 -0.9794 -1.0507  0.1867
16934TIP3   OH272216   3.260   4.765   6.663 -0.1855  0.3286 -0.0162
16934TIP3    H172217   3.300   4.838   6.614 -2.0286  0.5997 -1.1937
16934TIP3    H272218   3.198   4.807   6.722  0.2630 -0.1834  0.8422
16935TIP3   OH272219   1.485   4.798  16.280  0.1579  0.0246  0.3262
16935TIP3    H172220   1.471   4.709  16.313  0.6321 -0.1670  0.0169
16935TIP3    H272221   1.550   4.836  16.340  1.1542 -0.3840 -0.4662
16936TIP3   OH272222   1.606   4.507  16.749  0.0392  0.0023  0.0597
16936TIP3    H172223   1.616   4.412  16.747  0.8136  0.0703  0.1566
16936TIP3    H272224   1.649   4.534  16.830 -0.1856  0.4295  0.0372
16937TIP3   OH272225   0.078   6.184   4.695  0.7020  0.4866 -0.3035
16937TIP3    H172226   0.039   6.119   4.754  1.3442 -0.1303 -0.5427
16937TIP3    H272227   0.076   6.266   4.745  2.4330 -0.2764  1.1407
16938TIP3   OH272228   4.187   3.665  14.921  0.7102  0.1980  0.3062
16938TIP3    H172229   4.108   3.624  14.885  0.5867 -0.0683  0.8713
16938TIP3    H272230   4.154   3.723  14.989  0.7812  2.0995 -1.1946
16939TIP3   OH272231   2.319   5.626  12.802  0.0107  0.3250  0.4489
16939TIP3    H172232   2.238   5.677  12.808  0.0320  0.3844  0.2237
16939TIP3    H272233   2.332   5.611  12.709 -0.7556 -1.3053  0.5652
16940TIP3   OH272234   5.183   1.194   5.582  0.4099  0.5911 -0.3888
16940TIP3    H172235   5.096   1.165   5.555  1.4206 -1.4608 -1.6770
16940TIP3    H272236   5.205   1.265   5.522  0.4171 -0.2407 -1.3862
16941TIP3   OH272237   0.295   2.859  15.854 -0.9383  0.5040 -0.5780
16941TIP3    H172238   0.239   2.806  15.798 -2.7077  2.1829 -0.5098
16941TIP3    H272239   0.235   2.897  15.918  0.3266  2.1188 -0.2892
16942TIP3   OH272240   0.404   1.936  11.298  0.0795 -0.3002  0.0648
16942TIP3    H172241   0.359   1.914  11.380 -0.4600 -0.3244 -0.2294
16942TIP3    H272242   0.469   2.002  11.324 -1.4856  1.2702  0.2086
16943TIP3   OH272243   4.016   3.352   1.637 -0.3140 -0.1062 -0.2126
16943TIP3    H172244   4.110   3.353   1.658  0.1024  1.4980 -1.9154
16943TIP3    H272245   4.002   3.431   1.584 -2.8500  0.2829  0.8594
16944TIP3   OH272246   2.033   4.336  10.572 -0.4357 -0.2388  0.1612
16944TIP3    H172247   2.017   4.418  10.619  0.4061 -0.1791  0.3544
16944TIP3    H272248   1.991   4.349  10.486 -3.3010 -0.9086  1.3382
16945TIP3   OH272249   1.194   4.232   6.347  0.1618  0.3840  0.0542
16945TIP3    H172250   1.110   4.230   6.391 -0.7307  1.9178 -1.4519
16945TIP3    H272251   1.255   4.266   6.412 -0.0024 -2.1050  1.6333
16946TIP3   OH272252   0.852   5.114   1.435  0.0384  0.1621 -0.3973
16946TIP3    H172253   0.937   5.110   1.390  2.5443 -1.9595  3.8417
16946TIP3    H272254   0.807   5.034   1.407 -0.4110  1.0171 -2.2536
16947TIP3   OH272255   0.617   0.758   4.921 -0.1897  0.0200 -0.1180
16947TIP3    H172256   0.583   0.677   4.882 -0.4651  0.0881 -0.0146
16947TIP3    H272257   0.630   0.737   5.013  1.8881 -0.6211 -0.4908
16948TIP3   OH272258   2.970   2.297  12.430  0.1266  0.2393 -0.3211
16948TIP3    H172259   3.009   2.240  12.364 -0.6740  0.4338 -0.9704
16948TIP3    H272260   2.876   2.281  12.424  0.0521  0.0943  0.9378
16949TIP3   OH272261   0.017   2.884  13.973 -0.3206  0.0521 -0.6697
16949TIP3    H172262   0.082   2.914  14.036 -2.6918  0.5774  1.6710
16949TIP3    H272263   0.068   2.837  13.907  2.2710 -0.7990  1.7490
16950TIP3   OH272264   1.006   2.014   4.372  0.2293 -0.0373 -0.1940
16950TIP3    H172265   1.083   2.030   4.318 -1.2623  3.0614 -1.6340
16950TIP3    H272266   1.025   2.056   4.456  0.2295  0.4732 -0.4486
16951TIP3   OH272267   0.858   4.053  14.563  0.3777 -0.3658  0.4437
16951TIP3    H172268   0.910   3.974  14.548  1.0372  0.3008 -0.8251
16951TIP3    H272269   0.914   4.125  14.536 -0.8173  0.4367  0.0271
16952TIP3   OH272270   2.839   3.151   0.044  0.2672 -0.4657  0.4506
16952TIP3    H172271   2.919   3.194   0.074  0.6054 -0.7005 -0.0908
16952TIP3    H272272   2.867   3.102  -0.033 -0.5353 -0.0368 -0.1191
16953TIP3   OH272273   3.848   0.398  13.900 -0.4662  0.3869 -0.1177
16953TIP3    H172274   3.930   0.378  13.945 -1.1069  0.0438  0.9305
16953TIP3    H272275   3.783   0.406  13.970 -0.7334  3.9558 -0.5783
16954TIP3   OH272276   5.712   0.464  14.554 -0.2129 -0.4906 -0.0800
16954TIP3    H172277   5.719   0.377  14.514  1.5979 -0.1386 -0.6142
16954TIP3    H272278   5.801   0.499  14.552 -0.8548  1.2900  0.3590
16955TIP3   OH272279   1.058   1.588   5.125  0.7128  0.3249  0.1768
16955TIP3    H172280   1.108   1.617   5.201 -1.1543  0.6365  1.3590
16955TIP3    H272281   1.023   1.669   5.087 -1.3517 -0.0291  1.1973
16956TIP3   OH272282   5.398   1.376   5.316  0.0557  0.7100 -0.3246
16956TIP3    H172283   5.437   1.441   5.258  0.3434  1.3770  0.6030
16956TIP3    H272284   5.468   1.353   5.377 -0.0967 -0.3498 -0.5288
16957TIP3   OH272285   2.132   5.350  12.033 -0.5639 -0.6921 -0.3602
16957TIP3    H172286   2.208   5.329  12.086 -0.3667  0.1519 -0.2913
16957TIP3    H272287   2.084   5.416  12.084 -0.0514  0.5928 -1.4730
16958TIP3   OH272288   2.708   1.525   5.118 -0.0270  0.3284  0.7610
16958TIP3    H172289   2.788   1.494   5.076  1.6439  0.4787  3.6214
16958TIP3    H272290   2.697   1.614   5.086  0.3219 -0.0419 -0.4422
16959TIP3   OH272291   5.559   2.989  14.852  0.0703 -0.0106 -0.3132
16959TIP3    H172292   5.582   3.021  14.764 -0.3155 -0.1949 -0.4824
16959TIP3    H272293   5.572   3.065  14.909 -0.8771  0.4690 -0.7145
16960TIP3   OH272294   2.869   1.846   2.410  0.0152 -0.1661  0.0030
16960TIP3    H172295   2.875   1.752   2.394  1.6567 -0.3228  1.2245
16960TIP3    H272296   2.834   1.853   2.499 -1.6070  0.4598 -0.6348
16961TIP3   OH272297   5.462   1.701  15.860 -0.8813  0.0437  0.0313
16961TIP3    H172298   5.538   1.725  15.807 -1.8633  2.3646 -0.4566
16961TIP3    H272299   5.391   1.689  15.797 -1.3644 -0.1586  0.6030
16962TIP3   OH272300   6.332   1.572   3.678  0.2175  0.0948  0.0459
16962TIP3    H172301   6.403   1.633   3.657 -1.0147  0.4924 -3.6765
16962TIP3    H272302   6.266   1.588   3.610 -2.5183 -1.7498  2.0654
16963TIP3   OH272303   4.612   4.036   4.291 -0.0100  0.0806  0.0890
16963TIP3    H172304   4.558   3.981   4.348 -0.7723 -0.6976 -1.3077
16963TIP3    H272305   4.574   4.024   4.204  1.3729  0.8788 -0.6618
16964TIP3   OH272306   5.548   4.190   2.354  0.1960  0.4364  0.0788
16964TIP3    H172307   5.460   4.203   2.389  0.6368 -2.6699  2.8138
16964TIP3    H272308   5.605   4.238   2.414  0.5157  1.6263 -1.1163
16965TIP3   OH272309   4.549   5.819  11.755  0.6570 -0.4469  0.3081
16965TIP3    H172310   4.628   5.769  11.778  2.0079  0.7708 -1.4648
16965TIP3    H272311   4.488   5.753  11.722  2.3134 -1.0668 -1.7541
16966TIP3   OH272312   2.074   1.584   5.115 -0.4321  0.3462 -0.4770
16966TIP3    H172313   2.059   1.490   5.129 -0.5310  0.0666 -2.2096
16966TIP3    H272314   2.159   1.601   5.156 -0.7220 -0.3513  0.4321
16967TIP3   OH272315   1.411   4.022   0.233  0.6900 -0.0724  0.2041
16967TIP3    H172316   1.408   3.976   0.149 -0.4839  1.8363 -0.8776
16967TIP3    H272317   1.392   4.113   0.210 -0.7203  0.3194  2.6820
16968TIP3   OH272318   0.026   4.384  10.389  0.4610 -0.0058  0.1194
16968TIP3    H172319   0.120   4.380  10.410  0.3693  0.6309  0.7180
16968TIP3    H272320  -0.001   4.470  10.421 -0.6461 -0.7505  1.2945
16969TIP3   OH272321   2.180   4.009   4.264 -0.7871  0.8833 -0.2282
16969TIP3    H172322   2.256   4.059   4.235 -0.2009 -0.6047 -1.3669
16969TIP3    H272323   2.115   4.021   4.196 -0.4871 -0.1955 -0.7368
16970TIP3   OH272324   2.027   2.969  10.551 -0.1249 -0.2916  0.6946
16970TIP3    H172325   1.967   2.922  10.493 -0.2116  1.2433 -0.5238
16970TIP3    H272326   1.971   3.001  10.622 -0.7742  0.9640 -0.3302
16971TIP3   OH272327   2.279   4.089  14.188  0.4149 -0.0009  0.0051
16971TIP3    H172328   2.185   4.072  14.198  0.4049 -0.4553 -0.7645
16971TIP3    H272329   2.283   4.169  14.134  0.4578 -0.6239 -0.9384
16972TIP3   OH272330   0.368   3.720  13.138  0.1646  0.3269  0.0165
16972TIP3    H172331   0.332   3.631  13.139 -0.4069  0.5438 -0.2910
16972TIP3    H272332   0.405   3.729  13.050 -1.1253  0.8928 -0.5022
16973TIP3   OH272333   1.996   2.488   1.728 -0.5028 -0.1531  0.5623
16973TIP3    H172334   2.090   2.488   1.745 -0.8820  1.0659  3.1142
16973TIP3    H272335   1.964   2.570   1.766 -2.7763 -1.1679  1.0678
16974TIP3   OH272336   0.104   2.040   3.886  0.1735 -0.3999  0.0810
16974TIP3    H172337   0.080   1.972   3.950 -0.2897 -0.3409 -0.0231
16974TIP3    H272338   0.024   2.053   3.835 -0.1395  1.0680  0.8699
16975TIP3   OH272339   4.838   6.439   4.213 -0.2010  0.1432  0.1603
16975TIP3    H172340   4.837   6.473   4.302 -2.7211  2.4113 -0.5968
16975TIP3    H272341   4.765   6.484   4.169  0.3592 -1.5619 -2.8006
16976TIP3   OH272342   3.848   6.514   3.517  0.5143 -0.3686 -0.5012
16976TIP3    H172343   3.922   6.469   3.559 -0.7262 -0.3066  1.9288
16976TIP3    H272344   3.796   6.444   3.479 -1.1823 -1.1809  2.9029
16977TIP3   OH272345   5.866   0.059  15.678 -0.4736 -0.0655  0.0650
16977TIP3    H172346   5.885  -0.025  15.719 -0.1996  0.6843  1.5792
16977TIP3    H272347   5.934   0.069  15.612  1.5659  0.3800  2.0978
16978TIP3   OH272348   4.086   2.243  17.095  0.1526  0.1556 -0.2196
16978TIP3    H172349   4.177   2.218  17.079  0.8806  1.2426  1.8784
16978TIP3    H272350   4.073   2.321  17.040  0.8652  0.6419  0.2735
16979TIP3   OH272351   3.046   2.188  11.857  0.1433 -0.3294 -0.2125
16979TIP3    H172352   3.076   2.115  11.912  1.3005  0.1573 -0.1651
16979TIP3    H272353   3.006   2.249  11.918  1.8008  0.4059  0.2139
16980TIP3   OH272354   5.994   6.380   1.790 -0.6057  0.2842  0.4138
16980TIP3    H172355   5.941   6.350   1.864  0.7936 -0.5877  1.1028
16980TIP3    H272356   6.012   6.472   1.809  1.1776 -0.3352  2.1223
16981TIP3   OH272357   5.654   0.653   5.459  0.0178 -0.5568  0.1356
16981TIP3    H172358   5.676   0.746   5.449  0.4960 -0.7387 -0.5627
16981TIP3    H272359   5.577   0.653   5.515  0.5179  0.2197  0.8515
16982TIP3   OH272360   4.696   0.608   2.268  0.4446 -0.1549  0.9044
16982TIP3    H172361   4.711   0.679   2.329  0.3808 -0.1577  0.9241
16982TIP3    H272362   4.737   0.531   2.308  2.0040  0.2181  0.0937
16983TIP3   OH272363   4.193   1.767  11.056 -0.2879 -1.0658 -0.1221
16983TIP3    H172364   4.249   1.817  11.116  2.2431 -1.4470 -2.0139
16983TIP3    H272365   4.191   1.679  11.093 -0.1478 -0.9019  0.2868
16984TIP3   OH272366   0.329   0.626  14.043 -0.0299 -0.2820 -0.4739
16984TIP3    H172367   0.389   0.677  14.098  0.1503 -0.2630 -0.6863
16984TIP3    H272368   0.248   0.677  14.042  0.1826  0.0525 -0.7667
16985TIP3   OH272369   5.957   2.060  13.714 -0.1423 -0.3870 -0.0296
16985TIP3    H172370   5.966   2.098  13.802  0.2382  0.8162 -0.5711
16985TIP3    H272371   5.998   1.974  13.721  0.6801  0.0517  0.7532
16986TIP3   OH272372   4.127   0.970  13.193  0.3594  0.6281  0.0807
16986TIP3    H172373   4.160   0.960  13.282  0.1017 -0.0911  0.0971
16986TIP3    H272374   4.038   0.936  13.196  0.3534  0.5875 -0.4586
16987TIP3   OH272375   4.879   3.845   6.274  0.4401 -0.2434 -0.3139
16987TIP3    H172376   4.919   3.766   6.237 -1.3924 -0.9283 -0.9299
16987TIP3    H272377   4.848   3.894   6.198  0.3168  0.3836  0.1345
16988TIP3   OH272378   1.427   4.924  11.964 -0.4006  0.3709  0.5820
16988TIP3    H172379   1.385   4.901  12.046  0.1546  0.3726  0.8696
16988TIP3    H272380   1.519   4.902  11.976 -0.7626 -2.6474 -1.1401
16989TIP3   OH272381   3.618   1.100   0.723  0.0597 -0.5608 -0.2262
16989TIP3    H172382   3.601   1.039   0.794 -0.9749 -0.0168  0.0132
16989TIP3    H272383   3.697   1.066   0.680  0.5818 -1.0052  1.0425
16990TIP3   OH272384   2.193   4.058  11.089 -0.2769  0.2146  0.0537
16990TIP3    H172385   2.268   4.054  11.029 -0.8787  2.2083 -0.9353
16990TIP3    H272386   2.118   4.034  11.036 -0.6557  0.7283  0.3451
16991TIP3   OH272387   4.432   6.084   6.039  0.4613 -0.4982 -0.0437
16991TIP3    H172388   4.502   6.105   5.977 -0.2705 -1.0715 -1.1002
16991TIP3    H272389   4.371   6.157   6.032 -0.4250 -1.3236 -1.2307
16992TIP3   OH272390   0.605   1.604   1.535 -0.2352  0.4692  0.1347
16992TIP3    H172391   0.566   1.678   1.488 -0.7712  1.4319  1.9823
16992TIP3    H272392   0.635   1.545   1.466  0.7103  2.6438 -1.4252
16993TIP3   OH272393   4.779   4.038  12.374 -1.0788  0.5786  0.3006
16993TIP3    H172394   4.727   4.073  12.302 -1.1563 -0.7505 -0.3100
16993TIP3    H272395   4.715   4.019  12.443 -1.2540  0.1278  0.0203
16994TIP3   OH272396   0.918   4.352   1.429  0.2222 -0.3205  0.1433
16994TIP3    H172397   1.000   4.303   1.441 -0.5403 -2.1429 -1.5420
16994TIP3    H272398   0.936   4.411   1.357  0.3322 -0.0109  0.4210
16995TIP3   OH272399   5.909   4.432   4.811 -0.4636 -0.6342  0.2619
16995TIP3    H172400   5.874   4.509   4.857 -0.6347 -1.0563  0.8489
16995TIP3    H272401   6.002   4.431   4.833  0.0565  0.7004 -1.5962
16996TIP3   OH272402   2.275   0.555   2.434  0.3133 -0.0135  0.3653
16996TIP3    H172403   2.284   0.627   2.497 -1.0007  0.2051  0.3268
16996TIP3    H272404   2.365   0.533   2.410  0.8071  0.4093  1.7426
16997TIP3   OH272405   5.639   4.283   3.170 -0.2008 -0.0690 -0.1965
16997TIP3    H172406   5.594   4.202   3.198 -1.2018  0.3041 -0.6848
16997TIP3    H272407   5.611   4.296   3.080 -0.3371  1.0185 -0.0102
16998TIP3   OH272408   1.813   3.835   4.747 -0.3879 -0.3169 -0.1333
16998TIP3    H172409   1.721   3.861   4.740 -0.5439  0.4192  2.9839
16998TIP3    H272410   1.861   3.918   4.744 -0.0678 -0.4602  0.7467
16999TIP3   OH272411   1.321   1.010   2.380 -0.0846 -0.0208  0.2582
16999TIP3    H172412   1.271   1.035   2.302  0.8235  0.1644 -0.2729
16999TIP3    H272413   1.254   0.995   2.447 -0.8226  0.9633 -0.2273
17000TIP3   OH272414   0.280   0.376   3.196 -0.1596 -0.1157  0.0126
17000TIP3    H172415   0.224   0.367   3.272 -0.8073 -0.0025 -0.4424
17000TIP3    H272416   0.249   0.455   3.152  0.7085  0.2573  0.0425
17001TIP3   OH272417   6.735   4.300   6.415 -0.3449 -0.0651 -0.2201
17001TIP3    H172418   6.765   4.377   6.463  1.2107 -0.6426 -0.1998
17001TIP3    H272419   6.739   4.326   6.323  0.2712 -0.1411 -0.2186
17002TIP3   OH272420   2.520   1.897  15.292  0.0170 -0.2367  0.7455
17002TIP3    H172421   2.489   1.987  15.293  1.0461  0.1406  0.5768
17002TIP3    H272422   2.507   1.867  15.202  2.6515  0.8821 -0.1235
17003TIP3   OH272423   4.375   5.814  12.361 -0.0672 -0.1881  0.0361
17003TIP3    H172424   4.413   5.875  12.297  0.4928 -0.1281  0.4164
17003TIP3    H272425   4.353   5.736  12.310 -3.0859  1.1748 -0.9540
17004TIP3   OH272426   3.476   5.134  15.431 -0.0915 -0.2138 -0.0038
17004TIP3    H172427   3.458   5.076  15.357 -0.0817  0.8828 -0.8815
17004TIP3    H272428   3.409   5.111  15.496  0.7523 -2.1569  0.2517
17005TIP3   OH272429   5.473   4.145   4.823 -0.3630 -0.3083  0.3673
17005TIP3    H172430   5.485   4.063   4.870 -1.3239 -1.1131 -0.7272
17005TIP3    H272431   5.482   4.121   4.731  1.2697  1.1842  0.0859
17006TIP3   OH272432   0.819   1.688  13.316  0.0657 -0.2546 -0.7408
17006TIP3    H172433   0.885   1.664  13.251  1.0487 -0.6237  0.3439
17006TIP3    H272434   0.850   1.647  13.397 -0.8984  0.5338  0.0556
17007TIP3   OH272435   4.777   3.966   6.040  0.1591 -0.1100  0.2951
17007TIP3    H172436   4.802   4.054   6.013 -3.1428  1.2695  1.3133
17007TIP3    H272437   4.714   3.937   5.974  0.5273 -1.3561  0.4610
17008TIP3   OH272438   2.880   3.668   5.522  0.5286  0.1126  0.4119
17008TIP3    H172439   2.817   3.738   5.505  0.2692  0.1952  1.6201
17008TIP3    H272440   2.945   3.708   5.579  0.7081 -0.4651  0.6181
17009TIP3   OH272441   5.813   0.784   0.383 -0.0643 -0.2577  0.2075
17009TIP3    H172442   5.904   0.775   0.352 -0.7583 -0.7254 -1.8512
17009TIP3    H272443   5.763   0.804   0.304 -1.8500 -0.5299  1.2230
17010TIP3   OH272444   0.883   4.833  15.547 -0.0958 -0.5647  0.2849
17010TIP3    H172445   0.927   4.807  15.466 -0.5993 -0.7135  0.0541
17010TIP3    H272446   0.921   4.776  15.615 -1.4061 -2.1832 -0.2597
17011TIP3   OH272447   0.551   2.578  13.614 -0.4930  0.1237 -0.4778
17011TIP3    H172448   0.574   2.550  13.703 -1.4767 -0.6359 -0.4499
17011TIP3    H272449   0.544   2.673  13.620  0.0344  0.1328  0.1141
17012TIP3   OH272450   1.524   3.512  17.010 -0.2098  0.0867 -0.1505
17012TIP3    H172451   1.476   3.515  17.092 -0.3040  4.6610 -0.1115
17012TIP3    H272452   1.616   3.499  17.036 -0.4563 -0.4982  0.4598
17013TIP3   OH272453   6.422   6.465   0.255  0.1071 -0.0742  0.1938
17013TIP3    H172454   6.502   6.467   0.308  0.2860  1.6230 -0.0768
17013TIP3    H272455   6.432   6.539   0.194 -2.4859  1.4005  1.3949
17014TIP3   OH272456   3.076   4.981  11.222 -0.3473 -0.1176  0.4733
17014TIP3    H172457   3.119   5.049  11.170  0.4710  0.1935  1.5408
17014TIP3    H272458   3.010   4.945  11.162 -0.6208  1.4112 -0.2132
17015TIP3   OH272459   6.560   3.622  13.493 -0.4927  0.8892 -0.4249
17015TIP3    H172460   6.489   3.610  13.556 -0.9145  1.0166 -0.8764
17015TIP3    H272461   6.608   3.539  13.495 -1.4015  0.3336 -1.0474
17016TIP3   OH272462   1.212   5.907   2.149  0.4608 -0.1354  0.1425
17016TIP3    H172463   1.150   5.946   2.087  2.8410 -0.3347 -2.5633
17016TIP3    H272464   1.169   5.915   2.234 -2.8366  0.5533 -1.4291
17017TIP3   OH272465   2.810   1.969   4.602 -0.3999 -0.2342 -0.5061
17017TIP3    H172466   2.750   2.002   4.669 -2.0608 -2.1444 -0.9341
17017TIP3    H272467   2.876   2.037   4.593 -2.9700  2.4548 -0.5854
17018TIP3   OH272468   1.727   5.443  10.867 -0.1340  0.1490 -0.0476
17018TIP3    H172469   1.761   5.392  10.794  0.8829 -0.2755  0.6851
17018TIP3    H272470   1.636   5.416  10.876 -0.5238  0.8515 -1.6795
17019TIP3   OH272471   4.540   6.341   3.732 -0.4456  0.7327  0.0482
17019TIP3    H172472   4.555   6.434   3.719 -1.5668  0.9062 -0.1041
17019TIP3    H272473   4.603   6.298   3.674  2.1757  1.2890  2.2581
17020TIP3   OH272474   1.265   4.670  10.738  0.0587  0.4255  0.2260
17020TIP3    H172475   1.323   4.723  10.684  1.0637  0.6446  1.4703
17020TIP3    H272476   1.276   4.581  10.705  1.3951  0.4091  0.6718
17021TIP3   OH272477   4.183   0.334  11.969  0.0846  0.2023  0.7973
17021TIP3    H172478   4.094   0.348  11.937 -0.1882  0.7800  1.7406
17021TIP3    H272479   4.236   0.398  11.921 -0.1489  0.3954  0.7942
17022TIP3   OH272480   2.118   4.331  11.713 -0.0783  0.0621  0.3397
17022TIP3    H172481   2.212   4.351  11.716 -0.0290 -0.2754  1.5673
17022TIP3    H272482   2.109   4.273  11.637  0.7182  0.0555  0.2389
17023TIP3   OH272483   6.536   2.311  12.514  0.2342  0.2843 -0.1536
17023TIP3    H172484   6.562   2.277  12.600 -0.2951 -2.7782 -1.0750
17023TIP3    H272485   6.449   2.273  12.499  0.1779  1.0283 -1.8903
17024TIP3   OH272486   0.951   2.104   1.260 -0.4647  0.7744 -0.8277
17024TIP3    H172487   0.887   2.037   1.286  0.5343 -0.3712 -1.2131
17024TIP3    H272488   0.929   2.180   1.314  0.3511 -0.8749  2.0602
17025TIP3   OH272489   3.266   5.635   5.327  0.0384 -0.0585  0.4066
17025TIP3    H172490   3.248   5.719   5.369  0.0475  0.1832 -0.0703
17025TIP3    H272491   3.228   5.570   5.385 -0.1854  0.2928  0.6520
17026TIP3   OH272492   4.546   5.703  13.259  0.3045  0.3880  0.0434
17026TIP3    H172493   4.531   5.645  13.334  0.0569 -0.4184 -0.6191
17026TIP3    H272494   4.606   5.770  13.293  1.5048 -0.8890  0.5174
17027TIP3   OH272495   4.459   4.389  14.783  0.0772 -0.0681  0.4309
17027TIP3    H172496   4.406   4.339  14.721  0.4754  0.2285 -0.1548
17027TIP3    H272497   4.410   4.384  14.865 -0.7104 -0.0531 -0.0237
17028TIP3   OH272498   0.313   3.680  13.860 -0.7028  0.1701  0.1921
17028TIP3    H172499   0.316   3.768  13.898 -1.7145  0.5632 -0.5863
17028TIP3    H272500   0.345   3.692  13.770  0.0521 -0.4342  0.3714
17029TIP3   OH272501   4.259   4.795  13.352  0.3717  0.1893  0.5021
17029TIP3    H172502   4.168   4.764  13.354  0.1697  0.7377 -0.0540
17029TIP3    H272503   4.261   4.864  13.418 -0.2792  1.9347 -1.2291
17030TIP3   OH272504   4.875   4.280   5.155 -0.0436 -0.1770  0.5725
17030TIP3    H172505   4.950   4.311   5.105 -0.1435 -0.1965  0.4083
17030TIP3    H272506   4.811   4.351   5.149 -0.1623 -0.2938  0.4347
17031TIP3   OH272507   5.463   4.378  15.710  0.3855 -0.2554  0.2830
17031TIP3    H172508   5.517   4.372  15.789 -0.1473  0.3352  0.7097
17031TIP3    H272509   5.395   4.312  15.723 -0.8850  1.1679  1.2947
17032TIP3   OH272510   6.088   6.182   1.121  0.1101  0.1026  0.8083
17032TIP3    H172511   6.106   6.141   1.205  0.4017 -0.3531  0.5268
17032TIP3    H272512   6.071   6.109   1.062  0.6159  0.3887  0.3060
17033TIP3   OH272513   3.665   1.928  10.609  0.5802  0.4526 -0.4262
17033TIP3    H172514   3.740   1.938  10.550  0.0950  1.3332 -0.9192
17033TIP3    H272515   3.593   1.971  10.562 -0.7225 -2.0273 -0.8520
17034TIP3   OH272516   4.632   4.779  17.016 -0.5337  0.3353 -0.1302
17034TIP3    H172517   4.698   4.731  17.066  0.7405  1.0918 -1.0206
17034TIP3    H272518   4.558   4.719  17.010 -0.0593 -0.4279  1.1548
17035TIP3   OH272519   3.797   0.043   4.283 -0.4403 -0.1372 -0.4955
17035TIP3    H172520   3.786   0.114   4.220  1.0048  1.0289  0.5057
17035TIP3    H272521   3.840   0.083   4.358  0.0614 -1.9890  0.2773
17036TIP3   OH272522   2.018   5.499  12.913  0.3192  0.2885  0.0099
17036TIP3    H172523   2.054   5.588  12.904  0.3095  0.1272 -2.2580
17036TIP3    H272524   1.938   5.501  12.861  0.5168 -1.1461 -0.3809
17037TIP3   OH272525   5.593   3.066   6.396  0.6089 -0.2338  0.7705
17037TIP3    H172526   5.540   3.141   6.419 -1.1575 -0.4428 -2.0841
17037TIP3    H272527   5.664   3.065   6.460 -0.3611  2.7039  2.0259
17038TIP3   OH272528   6.621   3.275   1.187 -0.7329 -0.3270 -0.3260
17038TIP3    H172529   6.633   3.207   1.253 -1.1684 -1.5293 -1.4451
17038TIP3    H272530   6.561   3.237   1.123  0.4854  0.3617 -1.9757
17039TIP3   OH272531   1.766   6.642  15.046 -0.0823 -0.3882 -0.1874
17039TIP3    H172532   1.860   6.636  15.065  0.0013 -2.1806 -1.0300
17039TIP3    H272533   1.760   6.633  14.951 -1.0882  0.2572 -0.1948
17040TIP3   OH272534   3.287   5.674   4.291  0.3788 -0.3669  0.0181
17040TIP3    H172535   3.323   5.743   4.235  0.1459 -1.0261 -0.9707
17040TIP3    H272536   3.361   5.617   4.309  0.3962 -0.2994  0.1606
17041TIP3   OH272537   4.191   5.951  11.620 -0.1957  0.0452  0.1854
17041TIP3    H172538   4.239   5.917  11.696 -0.4464 -1.8920 -0.4663
17041TIP3    H272539   4.141   5.876  11.588  0.5100  0.5731 -2.3967
17042TIP3   OH272540   3.994   0.933  15.294  0.2776 -0.2178  0.2298
17042TIP3    H172541   4.007   1.020  15.333  2.5709 -1.0007  1.4470
17042TIP3    H272542   3.978   0.950  15.201  0.0402  1.5287  0.5569
17043TIP3   OH272543   0.103   3.089  13.386 -0.3194 -0.6804 -0.2550
17043TIP3    H172544   0.127   3.056  13.473 -1.2156 -0.7843 -0.0366
17043TIP3    H272545   0.187   3.105  13.343  0.1395 -1.5458  0.2791
17044TIP3   OH272546   3.590   1.863   1.045  0.0246  0.2877 -0.1229
17044TIP3    H172547   3.557   1.811   1.118 -0.6411  0.3887 -0.3347
17044TIP3    H272548   3.679   1.885   1.069 -0.3418  0.7342  0.8903
17045TIP3   OH272549   2.216   3.149  10.558  0.0106  0.0503  0.0310
17045TIP3    H172550   2.131   3.106  10.559  1.1711 -2.4838  1.2329
17045TIP3    H272551   2.268   3.098  10.495  1.5194 -0.5995  1.6878
17046TIP3   OH272552   0.034   5.941   1.499  0.1453 -0.3540 -0.3621
17046TIP3    H172553   0.091   5.882   1.449  1.4451  0.4475  0.1195
17046TIP3    H272554   0.089   6.016   1.519 -0.3193 -0.6033  2.2326
17047TIP3   OH272555   0.403   5.082   5.704  0.1756 -0.4570 -0.0250
17047TIP3    H172556   0.364   5.014   5.759 -0.5707 -0.1337 -0.1364
17047TIP3    H272557   0.407   5.159   5.761 -2.0647  0.3267 -0.8476
17048TIP3   OH272558   4.510   4.193  13.329  0.4615 -0.8078 -0.4782
17048TIP3    H172559   4.540   4.221  13.416  0.0059 -1.2580 -0.1687
17048TIP3    H272560   4.577   4.225  13.269 -0.3343  1.5219 -0.2316
17049TIP3   OH272561   1.114   2.451  16.641 -0.3388  0.3890  0.0676
17049TIP3    H172562   1.122   2.403  16.559 -0.3785 -0.6956  0.6812
17049TIP3    H272563   1.076   2.535  16.617  0.8749  0.6125 -1.2019
17050TIP3   OH272564   0.406   0.000  15.760  0.2467 -0.2562 -0.3627
17050TIP3    H172565   0.491   0.001  15.717 -0.2469 -0.5114 -1.3767
17050TIP3    H272566   0.361  -0.076  15.723 -1.3158  1.2149 -1.6743
17051TIP3   OH272567   3.895   1.920  11.158 -0.1921 -0.4326 -0.1940
17051TIP3    H172568   3.989   1.937  11.164 -0.0761 -1.3926  1.5368
17051TIP3    H272569   3.888   1.843  11.102  0.5375 -3.0155  2.9066
17052TIP3   OH272570   6.314   0.285  16.632 -0.0380 -0.2323 -0.3356
17052TIP3    H172571   6.395   0.291  16.683 -0.9015  0.9397  0.9722
17052TIP3    H272572   6.282   0.197  16.647  1.0760 -0.7736 -1.0216
17053TIP3   OH272573   1.285   6.515  15.034 -0.2262 -0.0145 -0.2312
17053TIP3    H172574   1.365   6.538  15.079 -0.4319 -0.8035  0.5667
17053TIP3    H272575   1.257   6.432  15.074  0.5556 -1.7660 -3.0064
17054TIP3   OH272576   1.954   0.955  13.506  0.3629  0.0061 -0.0668
17054TIP3    H172577   2.005   0.874  13.502  2.5753  1.2310  1.1286
17054TIP3    H272578   1.900   0.954  13.427  1.0436 -2.1647 -0.5596
17055TIP3   OH272579   5.390   5.631  16.553 -0.0734  0.6117 -0.6203
17055TIP3    H172580   5.402   5.541  16.524 -0.2935 -0.1082  1.3647
17055TIP3    H272581   5.374   5.680  16.473  0.9972 -0.9337 -1.8515
17056TIP3   OH272582   4.870   3.470  15.390  0.2319 -0.1425  0.1839
17056TIP3    H172583   4.935   3.409  15.355  0.2970  0.0605 -0.0586
17056TIP3    H272584   4.922   3.536  15.436  0.3417  0.9139 -1.3685
17057TIP3   OH272585   1.706   2.780  15.211  0.3093  0.0945 -0.4272
17057TIP3    H172586   1.624   2.798  15.165 -0.0731  0.5370  0.4142
17057TIP3    H272587   1.772   2.828  15.160  0.1154 -0.5675 -1.3203
17058TIP3   OH272588   6.027   2.401  12.998  0.0440 -0.0102  0.1948
17058TIP3    H172589   5.951   2.382  13.053 -0.4007  0.3571 -0.2795
17058TIP3    H272590   6.001   2.478  12.946 -0.3525 -1.5270 -2.0089
17059TIP3   OH272591   4.667   4.973  16.339  0.0496 -0.3057  0.1816
17059TIP3    H172592   4.739   4.926  16.380  0.4973 -0.4803 -0.7676
17059TIP3    H272593   4.699   5.063  16.330 -1.0856  0.4164  2.6758
17060TIP3   OH272594   1.254   2.375   4.601 -0.2905  0.0506 -0.1327
17060TIP3    H172595   1.316   2.310   4.636 -1.1003  0.3246  1.9565
17060TIP3    H272596   1.216   2.332   4.525  0.9243 -0.9680 -0.2206
17061TIP3   OH272597   6.335   0.186  11.134  0.0628 -0.3071  0.5014
17061TIP3    H172598   6.246   0.166  11.162  0.1773 -1.3167  0.1946
17061TIP3    H272599   6.365   0.105  11.091  0.8721  0.2565 -0.0229
17062TIP3   OH272600   1.083   1.896   4.801  0.3519 -0.2037 -0.1053
17062TIP3    H172601   1.053   1.969   4.746  0.6853  0.8530  1.0596
17062TIP3    H272602   1.008   1.874   4.856 -0.3074 -1.9335 -1.6041
17063TIP3   OH272603   1.656   5.233  13.346  0.0459  0.5818 -0.1549
17063TIP3    H172604   1.571   5.218  13.302 -2.4909  1.7600  3.8305
17063TIP3    H272605   1.654   5.325  13.371  0.1577 -0.4197  4.2211
17064TIP3   OH272606   2.789   0.133   1.546  0.2880 -0.1898  0.0913
17064TIP3    H172607   2.871   0.178   1.567 -0.4708  0.7335  1.1661
17064TIP3    H272608   2.729   0.202   1.519 -0.2823 -0.8009 -0.2283
17065TIP3   OH272609   3.120   4.726   2.793  0.5059  0.1758 -0.4367
17065TIP3    H172610   3.187   4.717   2.724  0.2856  0.7072 -0.7280
17065TIP3    H272611   3.037   4.718   2.746  0.3554  0.4355 -0.2157
17066TIP3   OH272612   5.523   4.917   3.727  0.3685 -0.1962 -0.1301
17066TIP3    H172613   5.587   4.983   3.702  0.6315 -1.0616 -1.9087
17066TIP3    H272614   5.440   4.964   3.731  0.6362  0.3518 -0.8458
17067TIP3   OH272615   1.197   3.008  16.681  0.4805 -0.3335 -0.1891
17067TIP3    H172616   1.221   3.082  16.626  1.0045 -1.0714 -0.9794
17067TIP3    H272617   1.206   3.040  16.770 -4.1899  2.2056 -0.3116
17068TIP3   OH272618   2.996   1.851  15.841  0.0215 -0.4171 -0.1618
17068TIP3    H172619   3.024   1.920  15.901 -1.9244  0.1608  0.1514
17068TIP3    H272620   2.948   1.788  15.896 -2.1956  0.3558 -1.0788
17069TIP3   OH272621   5.000   2.936  11.381 -0.1352  0.2303 -0.2007
17069TIP3    H172622   5.081   2.928  11.331  0.1954  0.6985  0.2480
17069TIP3    H272623   4.951   3.006  11.336 -0.2603 -0.0032 -0.4288
17070TIP3   OH272624   2.803   6.535   0.930 -0.0237  0.2975 -0.6596
17070TIP3    H172625   2.845   6.619   0.950  0.2244  0.0637 -0.1897
17070TIP3    H272626   2.875   6.474   0.919 -0.2407 -0.2601  0.8238
17071TIP3   OH272627   4.372   0.238   2.137  0.2562 -0.1167 -0.1829
17071TIP3    H172628   4.343   0.155   2.099  0.0070 -0.0153 -0.2134
17071TIP3    H272629   4.430   0.212   2.209 -1.2916 -0.3723  1.0321
17072TIP3   OH272630   3.443   2.607   4.054 -0.4407 -0.1493 -0.2192
17072TIP3    H172631   3.502   2.682   4.053  1.7970 -1.7925 -1.9042
17072TIP3    H272632   3.359   2.642   4.022 -0.3146  2.1476  1.7316
17073TIP3   OH272633   2.021   4.333   3.920 -0.2199 -0.5409 -0.6021
17073TIP3    H172634   2.087   4.383   3.871 -0.0325 -0.0390  0.1322
17073TIP3    H272635   2.063   4.249   3.938  0.1789 -0.2710 -0.2522
17074TIP3   OH272636   4.866   5.357  12.085 -0.1927 -0.4078  0.3054
17074TIP3    H172637   4.918   5.279  12.101  0.0571 -0.5569 -1.1146
17074TIP3    H272638   4.902   5.394  12.005 -0.8103  0.7445  0.5335
17075TIP3   OH272639   3.412   3.599  10.541 -0.2814 -0.2282 -0.0976
17075TIP3    H172640   3.422   3.520  10.489 -1.5472 -0.3306 -0.2242
17075TIP3    H272641   3.370   3.569  10.622 -0.2976  0.2366  0.0685
17076TIP3   OH272642   6.510   5.485   5.432 -0.3537 -0.4795  0.1267
17076TIP3    H172643   6.547   5.473   5.519 -1.9770  1.4604  1.1467
17076TIP3    H272644   6.416   5.470   5.443 -0.9427  2.1581 -0.7094
17077TIP3   OH272645   6.545   4.537   4.312  0.0706 -0.4500  0.5856
17077TIP3    H172646   6.569   4.578   4.229  1.0741 -0.1017  1.0230
17077TIP3    H272647   6.510   4.452   4.288 -1.2785  0.3212 -0.2963
17078TIP3   OH272648   1.161   1.021   2.134  0.0439  0.6189  0.5876
17078TIP3    H172649   1.083   0.997   2.184  0.5777 -0.7376  0.8252
17078TIP3    H272650   1.142   0.990   2.045  0.5402 -0.2783  0.7833
17079TIP3   OH272651   1.828   3.171   2.300 -0.2661  0.1501 -0.0548
17079TIP3    H172652   1.805   3.166   2.393 -0.0816  0.0842 -0.0123
17079TIP3    H272653   1.894   3.240   2.295 -1.1869  1.0440 -0.3209
17080TIP3   OH272654   6.031   6.424  11.400  0.1608 -0.0683  0.0753
17080TIP3    H172655   5.942   6.431  11.435  0.0552  0.0019 -0.2051
17080TIP3    H272656   6.019   6.394  11.310  0.3049  1.7088 -0.5896
17081TIP3   OH272657   1.866   6.807  14.449 -0.6072  0.2382  0.4826
17081TIP3    H172658   1.795   6.786  14.389  0.1787 -0.8684 -0.0994
17081TIP3    H272659   1.823   6.833  14.530 -1.6633 -0.2211  0.0840
17082TIP3   OH272660   2.801   6.107   2.112 -0.6263 -0.2766  0.1224
17082TIP3    H172661   2.777   6.016   2.127 -0.2301 -0.4821 -0.4598
17082TIP3    H272662   2.793   6.119   2.017 -0.7200  0.3041  0.1996
17083TIP3   OH272663   1.978   3.128  14.542  0.7447  0.2348 -0.6946
17083TIP3    H172664   1.883   3.118  14.540  0.6929  0.5866 -0.1503
17083TIP3    H272665   2.003   3.133  14.449  0.0963  1.3386 -0.8321
17084TIP3   OH272666   2.310   4.859   1.203  0.0521 -0.0559 -0.0017
17084TIP3    H172667   2.243   4.800   1.236  1.6740 -1.2657  1.3039
17084TIP3    H272668   2.341   4.907   1.280  2.0594 -1.0268 -0.1116
17085TIP3   OH272669   4.144   3.198  11.260  0.0966 -0.4775 -0.4531
17085TIP3    H172670   4.106   3.209  11.173 -0.2053 -0.6001 -0.3382
17085TIP3    H272671   4.156   3.103  11.269 -1.1111 -0.5952  0.1524
17086TIP3   OH272672   3.420   4.091  15.334 -0.2069  0.1317 -0.6316
17086TIP3    H172673   3.355   4.149  15.372  0.1312  0.1082  0.0101
17086TIP3    H272674   3.501   4.113  15.380  0.0076 -0.5718 -0.6617
17087TIP3   OH272675   6.113   2.279   0.682 -0.1339 -0.8751 -0.0890
17087TIP3    H172676   6.089   2.242   0.598 -0.8431 -0.2406 -0.1796
17087TIP3    H272677   6.086   2.371   0.676  0.2306 -0.7101  0.6604
17088TIP3   OH272678   2.032   1.456  16.103  0.0872 -0.2619 -0.0742
17088TIP3    H172679   1.979   1.483  16.178 -0.4610  0.4911 -0.7145
17088TIP3    H272680   2.066   1.538  16.067 -0.6364 -0.4967 -1.3586
17089TIP3   OH272681   2.706   1.012  14.507  0.0303  0.0860  0.8257
17089TIP3    H172682   2.613   1.001  14.487  0.1665  2.0334 -1.4609
17089TIP3    H272683   2.708   1.038  14.599 -1.9158  1.9047  0.4358
17090TIP3   OH272684   6.020   5.407   6.160  0.3991 -0.5042  0.5246
17090TIP3    H172685   6.052   5.392   6.249  1.8421  0.5030  0.2113
17090TIP3    H272686   6.023   5.502   6.149  1.6615 -0.6778 -1.0635
17091TIP3   OH272687   6.058   3.357  13.264  0.4081  1.2972 -0.2069
17091TIP3    H172688   6.012   3.439  13.284  0.8203  1.5976 -0.4841
17091TIP3    H272689   6.061   3.354  13.169 -1.7939 -0.2707 -0.3150
17092TIP3   OH272690   0.365   5.790   4.323 -0.1956  0.0343  0.3325
17092TIP3    H172691   0.407   5.812   4.406 -1.1657  0.5900  0.6910
17092TIP3    H272692   0.406   5.848   4.259 -1.1824  1.3919  0.8812
17093TIP3   OH272693   1.344   2.743   5.241  0.3971 -0.4383  0.0164
17093TIP3    H172694   1.335   2.698   5.325  0.3056 -1.6543 -0.6333
17093TIP3    H272695   1.302   2.685   5.178  4.1536 -1.7027 -1.6047
17094TIP3   OH272696   1.312   0.986  14.784  0.1097  0.4242 -0.1047
17094TIP3    H172697   1.371   0.983  14.709  0.6790  2.2476  0.2214
17094TIP3    H272698   1.364   1.025  14.854 -0.7869 -0.0921  0.8834
17095TIP3   OH272699   0.230   6.796  13.967 -0.0879  0.4195  0.1620
17095TIP3    H172700   0.312   6.765  14.007 -0.3219  0.9015  1.0269
17095TIP3    H272701   0.162   6.768  14.028 -0.4694  0.9805 -0.0069
17096TIP3   OH272702   2.568   4.163   0.965  0.0305  0.4692 -0.2159
17096TIP3    H172703   2.646   4.167   1.019 -0.6877  1.0778  0.8049
17096TIP3    H272704   2.601   4.145   0.877  1.2554  0.0275  0.3143
17097TIP3   OH272705   6.495   6.171  10.378  0.5403  0.2111  0.1085
17097TIP3    H172706   6.558   6.242  10.390 -0.2245  0.9251 -0.0256
17097TIP3    H272707   6.534   6.117  10.309  1.5542 -0.0011  0.8350
17098TIP3   OH272708   1.876   0.795   2.138  0.6335 -0.2224 -0.1507
17098TIP3    H172709   1.964   0.804   2.173  0.3749 -1.4816  0.9125
17098TIP3    H272710   1.819   0.836   2.204  0.2850 -1.0334  0.0656
17099TIP3   OH272711   3.902   5.937   0.200 -0.2260  0.0075  0.6662
17099TIP3    H172712   3.961   5.959   0.129 -0.7404 -0.8034 -0.0445
17099TIP3    H272713   3.838   6.008   0.202  0.8918  1.0142  1.6065
17100TIP3   OH272714   3.102   0.630   1.395 -0.1359 -0.1959 -0.2549
17100TIP3    H172715   3.169   0.624   1.463 -0.2363  0.6985 -0.0629
17100TIP3    H272716   3.118   0.555   1.338 -0.7865 -1.6352  1.4070
17101TIP3   OH272717   3.069   5.698  10.501  0.0181  0.1510  0.7209
17101TIP3    H172718   3.147   5.745  10.531 -0.5076 -1.0824  4.6496
17101TIP3    H272719   3.097   5.608  10.491 -0.4834  0.0496  0.2037
17102TIP3   OH272720   2.516   0.343  16.362 -0.0958 -0.3826  0.2101
17102TIP3    H172721   2.506   0.391  16.444 -1.0490  0.5435 -0.4176
17102TIP3    H272722   2.454   0.270  16.369 -2.1406  1.1673 -0.6838
17103TIP3   OH272723   0.439   6.577   2.433 -1.0611  0.0452 -0.7235
17103TIP3    H172724   0.466   6.489   2.406 -2.6443 -0.9292  0.6844
17103TIP3    H272725   0.406   6.566   2.522  0.5246  2.4629  0.2654
17104TIP3   OH272726   1.101   4.798   3.611 -0.0429 -0.1856 -0.2244
17104TIP3    H172727   1.184   4.766   3.646 -0.7993  1.9884  4.2268
17104TIP3    H272728   1.126   4.862   3.544  1.9340  0.1608  0.7674
17105TIP3   OH272729   6.540   4.732   1.436 -0.2342  0.0072 -0.8030
17105TIP3    H172730   6.539   4.693   1.349  0.9789  0.1422 -0.9040
17105TIP3    H272731   6.562   4.824   1.421  3.2311 -0.5899 -0.2231
17106TIP3   OH272732   4.173   1.216  13.468  0.3022  0.1199  0.0948
17106TIP3    H172733   4.163   1.123  13.446 -0.3495  0.2582 -0.2066
17106TIP3    H272734   4.128   1.262  13.398  0.2099  0.6526  0.5021
17107TIP3   OH272735   4.705   1.549   4.773 -0.2649  0.1241  0.6250
17107TIP3    H172736   4.651   1.615   4.730 -1.5038  0.0383  1.9670
17107TIP3    H272737   4.717   1.481   4.708 -1.6833  0.2112  0.2477
17108TIP3   OH272738   4.679   3.303   1.660  0.3593 -0.2307 -0.1795
17108TIP3    H172739   4.769   3.294   1.628  0.1046 -0.6386 -0.8035
17108TIP3    H272740   4.626   3.257   1.595 -0.1889 -0.9702  0.7700
17109TIP3   OH272741   2.740   3.837  11.523 -0.5916  0.5941 -0.0463
17109TIP3    H172742   2.682   3.845  11.446 -1.2609  2.0256  0.5683
17109TIP3    H272743   2.771   3.926  11.538 -0.3448  0.3005  1.2554
17110TIP3   OH272744   6.420   4.078   3.747 -0.7882 -0.0521 -0.7360
17110TIP3    H172745   6.386   4.152   3.696 -0.7495 -0.0585 -0.7711
17110TIP3    H272746   6.357   4.067   3.818 -0.5488  0.3083 -0.4676
17111TIP3   OH272747   3.241   1.702   6.135  0.1032 -0.0273  0.3029
17111TIP3    H172748   3.216   1.678   6.224  2.2675 -1.3744  0.6268
17111TIP3    H272749   3.256   1.619   6.091 -0.2528  0.6345 -1.1541
17112TIP3   OH272750   6.082   5.494   4.331 -0.1624 -0.2819 -0.4104
17112TIP3    H172751   6.164   5.460   4.366  0.6531  1.4284 -0.5915
17112TIP3    H272752   6.101   5.584   4.307 -1.3472 -0.6221 -2.9799
17113TIP3   OH272753   4.322   0.133   4.507  0.2965 -0.0990 -0.1523
17113TIP3    H172754   4.324   0.111   4.600 -1.6862  0.9460  0.1928
17113TIP3    H272755   4.370   0.215   4.501 -0.7868  0.5884  0.2261
17114TIP3   OH272756   3.770   1.833  12.568 -0.3109 -0.2436 -0.5083
17114TIP3    H172757   3.791   1.740  12.560  2.4595  0.1643  0.7930
17114TIP3    H272758   3.793   1.871  12.483  0.2595 -0.4927 -0.4676
17115TIP3   OH272759   5.420   4.695   4.783  0.2674 -0.1940  0.1398
17115TIP3    H172760   5.483   4.753   4.825  0.8171  0.7831 -1.9281
17115TIP3    H272761   5.475   4.634   4.733 -0.3887 -0.2548 -0.5102
17116TIP3   OH272762   5.071   0.933   5.763 -0.4576  0.0597 -0.6491
17116TIP3    H172763   5.146   0.926   5.704  0.1681 -0.4184  0.1909
17116TIP3    H272764   5.069   0.850   5.810 -0.1936  0.8602  0.8630
17117TIP3   OH272765   2.297   0.696  14.870 -0.0103 -0.2753 -0.2188
17117TIP3    H172766   2.219   0.653  14.835 -1.2050  0.3998  1.4954
17117TIP3    H272767   2.303   0.667  14.961  2.5753 -1.4060 -0.6533
17118TIP3   OH272768   3.004   2.227   0.924 -1.0722 -0.0566 -0.4706
17118TIP3    H172769   3.029   2.168   0.994 -1.0932 -1.0543 -1.2733
17118TIP3    H272770   3.087   2.260   0.889 -1.0350  3.9151  2.7590
17119TIP3   OH272771   1.127   6.097  12.183 -0.0897 -0.3033 -0.1480
17119TIP3    H172772   1.166   6.055  12.106  0.1499 -1.4519  0.5723
17119TIP3    H272773   1.187   6.168  12.205  0.2412 -0.4513 -0.5641
17120TIP3   OH272774   0.908   6.725   4.973  0.2168 -0.2751  0.0129
17120TIP3    H172775   0.983   6.777   4.944  0.6262 -2.0820 -2.5720
17120TIP3    H272776   0.858   6.783   5.030  2.3773  1.7374 -0.0164
17121TIP3   OH272777   0.173   5.812   0.292  0.3726 -0.5853  0.4290
17121TIP3    H172778   0.143   5.883   0.236 -2.6484 -0.7322  1.6897
17121TIP3    H272779   0.179   5.850   0.379  2.8793 -0.9062  0.4712
17122TIP3   OH272780   4.467   5.543  13.486  0.0658  0.1295  0.1113
17122TIP3    H172781   4.457   5.449  13.470 -0.4175  0.0196  0.9709
17122TIP3    H272782   4.384   5.569  13.526  0.3847  0.8223  0.3366
17123TIP3   OH272783   0.420   1.636   3.865  0.3957  0.3697  0.1101
17123TIP3    H172784   0.508   1.645   3.829  0.5472  0.3010  0.4597
17123TIP3    H272785   0.362   1.661   3.793  0.5658 -2.6192 -1.1853
17124TIP3   OH272786   0.849   2.637  16.537 -0.0265 -0.4855  0.1342
17124TIP3    H172787   0.861   2.663  16.628  0.9668 -1.2141  0.2127
17124TIP3    H272788   0.759   2.604  16.533 -1.0417  2.0385  0.2292
17125TIP3   OH272789   1.386   6.018   3.805 -0.3159 -0.3910  0.5193
17125TIP3    H172790   1.295   5.999   3.780 -0.3551  1.5641 -1.0938
17125TIP3    H272791   1.430   6.038   3.722  0.7291  1.9639  1.5589
17126TIP3   OH272792   2.523   4.225  12.571  0.0913  0.1222  0.1153
17126TIP3    H172793   2.433   4.197  12.559 -0.4945  0.7805  2.5208
17126TIP3    H272794   2.564   4.154  12.619  0.5023  0.3719  0.1405
17127TIP3   OH272795   6.511   2.692  14.977 -0.0693 -0.1702 -0.0735
17127TIP3    H172796   6.581   2.642  14.936  1.6185 -0.5843  3.0106
17127TIP3    H272797   6.527   2.783  14.951  0.7169 -0.4474 -0.5920
17128TIP3   OH272798   5.529   5.273   5.711 -0.1115 -0.5291  0.1865
17128TIP3    H172799   5.584   5.351   5.720 -0.2012 -0.5706  1.2340
17128TIP3    H272800   5.532   5.252   5.618  1.1384 -0.1655  0.1330
17129TIP3   OH272801   1.428   3.092   2.455  0.9198 -0.0189  0.1057
17129TIP3    H172802   1.407   3.184   2.436 -0.8954 -0.3160  0.5163
17129TIP3    H272803   1.494   3.069   2.391 -0.0295  1.0203 -1.3050
17130TIP3   OH272804   4.521   5.449  15.848  0.1063 -0.5085 -0.0330
17130TIP3    H172805   4.492   5.423  15.761 -0.1499 -0.4975  0.0478
17130TIP3    H272806   4.547   5.368  15.891 -1.3391 -0.7534  0.4652
17131TIP3   OH272807   2.751   2.403  13.923 -0.1826  0.1672 -0.7155
17131TIP3    H172808   2.694   2.479  13.914 -1.6870 -0.6651  1.1471
17131TIP3    H272809   2.692   2.328  13.915  0.7615 -0.7485  0.5393
17132TIP3   OH272810   6.161   0.640   5.534  0.0995  0.2216  0.0814
17132TIP3    H172811   6.097   0.599   5.593  1.5651 -1.4598  0.5829
17132TIP3    H272812   6.193   0.569   5.479 -0.2567  1.5170 -1.8974
17133TIP3   OH272813   2.600   3.897   1.933 -0.3356 -0.2669 -0.3414
17133TIP3    H172814   2.556   3.982   1.933 -1.2725 -0.6971  1.5444
17133TIP3    H272815   2.687   3.914   1.968 -1.3391 -0.3562  2.4890
17134TIP3   OH272816   6.782   4.885  13.465  0.0750 -0.3455 -0.4285
17134TIP3    H172817   6.791   4.790  13.453  2.1855 -0.3062  0.4066
17134TIP3    H272818   6.870   4.915  13.488 -0.8893  1.5685  1.1187
17135TIP3   OH272819   0.903   1.478   3.316  0.0108 -0.2713 -0.0996
17135TIP3    H172820   0.981   1.422   3.309 -0.2747 -0.6920  0.0207
17135TIP3    H272821   0.934   1.557   3.360  0.4237 -0.3342 -0.2778
17136TIP3   OH272822   0.262   0.004  13.348  0.1736  0.5202  0.3106
17136TIP3    H172823   0.246  -0.089  13.335 -0.1736  0.4327  1.3191
17136TIP3    H272824   0.178   0.045  13.326  0.5258  0.6810 -0.8275
17137TIP3   OH272825   0.482   3.023  11.461  0.4248  0.3705  0.1415
17137TIP3    H172826   0.389   3.041  11.446  0.1515 -1.2325 -0.3055
17137TIP3    H272827   0.527   3.067  11.389 -0.1558 -0.3348 -0.6671
17138TIP3   OH272828   2.577   2.193  13.896 -0.2791  0.0799 -0.1285
17138TIP3    H172829   2.560   2.120  13.955 -0.9051 -0.3050 -0.7772
17138TIP3    H272830   2.493   2.212  13.855 -0.2433  1.4767  0.3629
17139TIP3   OH272831   5.037   1.349  12.994  0.4061 -0.3272  0.4242
17139TIP3    H172832   5.015   1.398  13.074  0.7860  2.3384 -0.9912
17139TIP3    H272833   4.960   1.357  12.938  0.8108 -0.6373 -0.1882
17140TIP3   OH272834   4.993   1.923  15.323 -0.6166 -0.0824 -0.3809
17140TIP3    H172835   4.959   2.006  15.290 -0.3616 -0.3888 -1.4839
17140TIP3    H272836   5.083   1.943  15.350 -0.2312 -0.1769 -1.5293
17141TIP3   OH272837   0.704   2.654   3.917 -0.3012  0.2413 -0.1037
17141TIP3    H172838   0.794   2.681   3.896  0.2449  0.3794  2.1345
17141TIP3    H272839   0.653   2.735   3.911 -0.0488  0.3902 -0.2840
17142TIP3   OH272840   2.624   6.046  13.948  0.1809  0.2630 -0.3265
17142TIP3    H172841   2.682   6.077  13.878  0.3160  0.9463  0.0731
17142TIP3    H272842   2.606   6.125  13.999  1.9128 -0.5882  1.7526
17143TIP3   OH272843   4.073   0.984   1.961 -0.7388 -0.1989  0.0423
17143TIP3    H172844   4.121   0.914   2.005  3.2436  1.0734 -1.8484
17143TIP3    H272845   4.088   1.061   2.016 -2.2088 -0.0884  0.3259
17144TIP3   OH272846   4.741   3.636  16.455  0.0212  0.3735  0.4318
17144TIP3    H172847   4.782   3.671  16.534 -0.8646  0.4544  0.8670
17144TIP3    H272848   4.710   3.549  16.481  0.1947  0.1823  0.0114
17145TIP3   OH272849   6.300   0.823   2.722 -0.5055 -0.3800  0.2469
17145TIP3    H172850   6.369   0.823   2.789 -1.0991 -0.5835  0.8730
17145TIP3    H272851   6.219   0.819   2.772 -1.0203  1.0662 -0.4317
17146TIP3   OH272852   1.497   5.770  12.895 -0.3850 -0.1943  0.3609
17146TIP3    H172853   1.521   5.818  12.816  0.0526  0.2520  0.7595
17146TIP3    H272854   1.469   5.837  12.957 -1.8262 -0.6292  0.2203
17147TIP3   OH272855   4.114   5.357   4.782  0.0337  0.2328  0.5205
17147TIP3    H172856   4.133   5.349   4.689 -1.6023  3.7359 -0.2826
17147TIP3    H272857   4.200   5.358   4.824  0.8308 -0.7626 -0.9854
17148TIP3   OH272858   4.241   1.096   4.245 -0.2440 -1.0018 -0.2769
17148TIP3    H172859   4.329   1.065   4.269 -1.0491 -3.3704 -0.0846
17148TIP3    H272860   4.220   1.049   4.164 -0.6818  0.8946 -1.3321
17149TIP3   OH272861   1.735   3.679  11.798 -0.1793  0.4500  0.0598
17149TIP3    H172862   1.641   3.676  11.779 -0.6709  0.1902  2.1981
17149TIP3    H272863   1.743   3.746  11.867  1.0910 -0.0477  0.4225
17150TIP3   OH272864   5.799   2.950  13.092 -0.0507 -0.2104  0.7378
17150TIP3    H172865   5.839   2.912  13.170  0.4381 -0.3510  0.4252
17150TIP3    H272866   5.867   3.007  13.056 -0.2662 -0.1571  0.4110
17151TIP3   OH272867   3.158   6.369   0.513  0.1452 -0.0456 -0.3610
17151TIP3    H172868   3.173   6.422   0.592  1.2574 -0.1005 -0.5125
17151TIP3    H272869   3.205   6.416   0.444  1.6342 -1.4867 -0.3929
17152TIP3   OH272870   5.844   5.291  11.275 -0.0644  0.6660  0.0287
17152TIP3    H172871   5.758   5.259  11.303 -0.5142  1.0430 -0.8815
17152TIP3    H272872   5.878   5.339  11.350 -1.2136  1.5975 -0.0196
17153TIP3   OH272873   3.524   0.786  11.266  0.2960  0.0780 -0.2151
17153TIP3    H172874   3.565   0.727  11.330  1.3373  0.4662 -0.5146
17153TIP3    H272875   3.523   0.737  11.184  1.5570  0.6096 -0.5696
17154TIP3   OH272876   4.245   6.680  13.528 -0.0157  0.3993 -0.2468
17154TIP3    H172877   4.261   6.771  13.552 -1.4904  0.9281 -1.1690
17154TIP3    H272878   4.325   6.653  13.481  0.8294  0.8809  0.8820
17155TIP3   OH272879   4.470   4.689  10.673  0.4349  0.2262 -0.1968
17155TIP3    H172880   4.534   4.651  10.734  0.1719  1.5044  0.8985
17155TIP3    H272881   4.505   4.775  10.651 -0.1379  0.3083 -0.8323
17156TIP3   OH272882   5.169   5.672  13.980 -0.0423  0.2295  0.5978
17156TIP3    H172883   5.227   5.744  13.957 -0.7801  0.5279 -0.4210
17156TIP3    H272884   5.164   5.619  13.901  1.9275 -2.0068  1.8711
17157TIP3   OH272885   1.380   4.303   0.239  0.7044 -0.6826  0.3695
17157TIP3    H172886   1.424   4.335   0.318 -0.0079  0.6006  0.2804
17157TIP3    H272887   1.438   4.329   0.167  0.4558 -0.1899  0.3452
17158TIP3   OH272888   6.659   5.903   0.399  0.2042  0.6469 -0.5672
17158TIP3    H172889   6.702   5.924   0.481 -1.1496  2.5386 -0.2726
17158TIP3    H272890   6.574   5.866   0.425  0.8932 -1.5224 -1.1440
17159TIP3   OH272891   2.050   3.212  12.793 -0.0707  0.4776 -0.4013
17159TIP3    H172892   2.053   3.239  12.885  1.1031  0.1296 -0.3140
17159TIP3    H272893   2.131   3.162  12.780 -1.7875 -2.4614 -0.7288
17160TIP3   OH272894   5.258   3.867  15.978 -0.0772  0.0954  0.2647
17160TIP3    H172895   5.265   3.776  15.949 -0.3840  0.3785 -0.7412
17160TIP3    H272896   5.338   3.882  16.030  0.5484 -0.4114 -0.5205
17161TIP3   OH272897   6.679   2.562   3.976  0.0951 -0.7602 -0.0785
17161TIP3    H172898   6.728   2.601   4.048  0.8234 -0.4501 -0.7330
17161TIP3    H272899   6.623   2.496   4.018 -1.2002  0.9856  1.0598
17162TIP3   OH272900   2.957   5.987  16.787 -0.1671 -0.5093 -0.2410
17162TIP3    H172901   2.861   5.987  16.781 -0.2705  0.2902  1.0338
17162TIP3    H272902   2.976   6.037  16.866  1.3031 -1.0032 -0.2497
17163TIP3   OH272903   1.331   4.479  13.797  0.2721  0.6585 -0.0309
17163TIP3    H172904   1.283   4.560  13.819 -1.7658  0.2220 -2.4015
17163TIP3    H272905   1.273   4.409  13.825  2.3400 -0.1506  2.6681
17164TIP3   OH272906   1.384   0.110   0.449  0.2306 -0.7304 -0.4675
17164TIP3    H172907   1.385   0.088   0.542 -0.0272 -0.0341 -0.2876
17164TIP3    H272908   1.460   0.167   0.436  0.3634 -0.9618 -0.7201
17165TIP3   OH272909   6.395   0.324   1.214 -0.3077 -0.4171 -0.2527
17165TIP3    H172910   6.416   0.391   1.149  2.6940 -1.0349 -0.0424
17165TIP3    H272911   6.415   0.241   1.170 -1.3069 -1.0393  0.4259
17166TIP3   OH272912   2.029   3.628  14.710 -0.3410  1.0581 -0.2464
17166TIP3    H172913   2.027   3.613  14.805 -1.6456  0.5536 -0.3358
17166TIP3    H272914   2.076   3.553  14.674 -3.7024 -1.1568 -0.3627
17167TIP3   OH272915   1.852   4.610   3.859 -0.0683  0.6602 -0.1488
17167TIP3    H172916   1.760   4.633   3.857 -0.3508 -0.2515  1.2881
17167TIP3    H272917   1.868   4.577   3.947  1.1461 -1.0973 -0.9478
17168TIP3   OH272918   4.738   6.233   2.968 -0.2634  0.0697 -0.2879
17168TIP3    H172919   4.707   6.153   3.010 -0.5291  1.3820  2.2241
17168TIP3    H272920   4.676   6.300   2.996 -0.7750  1.0164 -3.3217
17169TIP3   OH272921   4.781   1.795   0.225  0.0246 -0.1965  0.2517
17169TIP3    H172922   4.769   1.781   0.319  2.0019  1.4264  0.8046
17169TIP3    H272923   4.874   1.780   0.209  0.0581  1.1964 -1.1152
17170TIP3   OH272924   2.168   6.603   3.797  0.3612  0.0442 -0.9598
17170TIP3    H172925   2.114   6.642   3.865  0.1431 -0.1641 -1.0120
17170TIP3    H272926   2.164   6.509   3.814 -0.4625 -0.0872 -1.8164
17171TIP3   OH272927   4.050   1.653  15.710 -0.0944 -0.6007  0.3566
17171TIP3    H172928   4.129   1.652  15.765 -0.1823 -1.6397  0.4879
17171TIP3    H272929   3.986   1.702  15.760  0.6048  0.6744  0.0412
17172TIP3   OH272930   6.398   0.727   5.717 -0.1916  0.3603 -0.1740
17172TIP3    H172931   6.348   0.684   5.647  0.5546 -0.7347 -0.0659
17172TIP3    H272932   6.464   0.662   5.741 -0.8415  0.4414  2.0194
17173TIP3   OH272933   3.290   0.167   2.487 -0.0242  0.3994 -0.8316
17173TIP3    H172934   3.328   0.104   2.548 -0.6880  1.5699  0.8752
17173TIP3    H272935   3.308   0.131   2.400  0.2018 -1.7644  0.0615
17174TIP3   OH272936   0.203   0.147  11.697 -0.3318 -0.5175 -0.1186
17174TIP3    H172937   0.279   0.117  11.648  0.1816 -2.0444  1.5065
17174TIP3    H272938   0.135   0.082  11.677  0.2709 -1.9262  2.1028
17175TIP3   OH272939   3.798   6.126  16.985 -0.1998 -0.7521  0.4089
17175TIP3    H172940   3.805   6.150  17.077 -0.2044 -0.5458  0.3534
17175TIP3    H272941   3.713   6.082  16.978 -1.0814  0.9200  0.1198
17176TIP3   OH272942   4.667   3.795  12.134  0.0885  0.2480  0.6865
17176TIP3    H172943   4.712   3.879  12.146  1.1808  0.0833 -1.7301
17176TIP3    H272944   4.594   3.816  12.075  0.3005 -0.4707  0.1578
17177TIP3   OH272945   3.126   0.459  13.663  0.3891 -0.3077  0.5338
17177TIP3    H172946   3.132   0.444  13.568  0.7603 -0.9286  0.6473
17177TIP3    H272947   3.174   0.541  13.677 -1.0002  0.6287 -0.0037
17178TIP3   OH272948   1.535   0.476   5.265  0.1240  0.2549  0.5537
17178TIP3    H172949   1.578   0.400   5.226 -0.1889  0.7354 -0.7711
17178TIP3    H272950   1.529   0.455   5.359  1.5694 -0.6018  0.4800
17179TIP3   OH272951   6.154   4.186  11.114  0.9339 -0.1534 -0.9551
17179TIP3    H172952   6.119   4.275  11.127 -0.3954 -0.7908  0.0201
17179TIP3    H272953   6.225   4.198  11.052  2.4382  1.9803  0.9952
17180TIP3   OH272954   0.491   0.275   1.680 -0.2505  0.8823  0.6482
17180TIP3    H172955   0.504   0.265   1.586 -0.7303  0.8073  0.5896
17180TIP3    H272956   0.555   0.215   1.719 -0.9136 -0.0492  0.3441
17181TIP3   OH272957   1.118   1.633   0.998  0.2919  0.8506  0.1875
17181TIP3    H172958   1.122   1.696   0.927  0.7236 -0.4577 -0.9922
17181TIP3    H272959   1.209   1.621   1.025  0.1687  1.0435  0.7185
17182TIP3   OH272960   5.062   1.603  12.096 -0.7044  0.0946 -0.2576
17182TIP3    H172961   4.999   1.673  12.115  0.2429  0.8450  0.1658
17182TIP3    H272962   5.117   1.597  12.174  0.8937  0.6911 -1.2828
17183TIP3   OH272963   3.655   1.388   4.267 -0.3258 -0.0858  0.1768
17183TIP3    H172964   3.591   1.441   4.315 -0.5052 -1.1893  1.1771
17183TIP3    H272965   3.602   1.339   4.204 -0.5399 -1.2428  1.2224
17184TIP3   OH272966   5.105   6.607  14.478 -0.6425 -0.0642  0.3494
17184TIP3    H172967   5.090   6.572  14.390 -0.6415 -1.8105  0.9994
17184TIP3    H272968   5.151   6.690  14.464  1.5737 -1.4495 -1.2441
17185TIP3   OH272969   0.078   0.779  16.151 -0.3298  0.3506  0.1710
17185TIP3    H172970   0.138   0.740  16.214 -0.7709 -0.2851  0.2165
17185TIP3    H272971  -0.002   0.796  16.201 -0.2772  0.9448  0.0546
17186TIP3   OH272972   2.589   2.556  12.304 -0.6065 -0.6147 -0.4553
17186TIP3    H172973   2.610   2.513  12.221 -2.4661  1.1452 -1.9273
17186TIP3    H272974   2.529   2.496  12.348 -0.3870 -1.1141 -0.8299
17187TIP3   OH272975   4.767   1.554   3.821  0.3433  0.0653 -0.0777
17187TIP3    H172976   4.834   1.621   3.808  0.4796 -0.1962 -0.7317
17187TIP3    H272977   4.789   1.486   3.758 -0.8650  0.2257 -0.6952
17188TIP3   OH272978   2.343   0.801  14.346 -0.0752 -0.4019 -0.3276
17188TIP3    H172979   2.318   0.739  14.278 -0.3217  0.6435 -1.2215
17188TIP3    H272980   2.323   0.756  14.428 -3.6798 -0.2140 -0.9467
17189TIP3   OH272981   6.530   5.754   5.534 -0.1215  0.2268  0.4307
17189TIP3    H172982   6.616   5.747   5.573  0.4046  0.5251 -0.6338
17189TIP3    H272983   6.539   5.714   5.448 -0.9344  0.6093  0.1521
17190TIP3   OH272984   5.301   4.476   5.559 -0.0757  0.2610  0.1687
17190TIP3    H172985   5.378   4.421   5.560  1.2118  1.9656  1.1103
17190TIP3    H272986   5.229   4.419   5.586  0.9425 -1.2340 -0.2222
17191TIP3   OH272987   6.417   4.451   0.713 -0.2426 -0.1642  0.2888
17191TIP3    H172988   6.361   4.511   0.665  1.3639  0.6998 -0.5990
17191TIP3    H272989   6.414   4.481   0.803 -1.0343 -0.0104  0.2128
17192TIP3   OH272990   6.216   2.983  13.138  0.1539 -0.0285 -0.1001
17192TIP3    H172991   6.175   3.010  13.220 -0.4005 -0.2571 -0.3011
17192TIP3    H272992   6.307   3.012  13.147 -0.0358  0.4422  0.3609
17193TIP3   OH272993   3.184   5.998  16.118  0.7545 -0.4766 -0.4522
17193TIP3    H172994   3.129   5.920  16.115  2.1415 -1.6509  1.7062
17193TIP3    H272995   3.146   6.057  16.054 -1.5057 -2.1784 -0.7933
17194TIP3   OH272996   1.069   0.415  13.233  0.4101  0.9104 -0.1767
17194TIP3    H172997   1.109   0.425  13.319  0.1554 -1.2352  0.2668
17194TIP3    H272998   1.141   0.388  13.176  0.4954  1.9032 -0.5564
17195TIP3   OH272999   0.447   6.603   4.937  0.7881 -0.1811  0.3760
17195TIP3    H173000   0.403   6.680   4.974 -1.3851 -0.9231 -0.4836
17195TIP3    H273001   0.463   6.627   4.846  0.8048 -0.4565  0.3061
17196TIP3   OH273002   6.127   5.699   5.237 -0.4872  0.1105 -0.6620
17196TIP3    H173003   6.092   5.788   5.241 -1.0033 -0.1179  3.5163
17196TIP3    H273004   6.051   5.644   5.217 -1.4891  0.1863  2.4815
17197TIP3   OH273005   0.717   5.559  13.980 -0.1446 -0.1096  0.4458
17197TIP3    H173006   0.645   5.496  13.976  0.0572 -0.4452  1.6994
17197TIP3    H273007   0.779   5.528  13.914 -1.3006  0.4112 -0.9265
17198TIP3   OH273008   2.098   4.330  13.460  0.4416 -0.0518  0.1686
17198TIP3    H173009   2.150   4.401  13.421  0.4629 -0.2811 -0.2247
17198TIP3    H273010   2.155   4.294  13.528  0.7087 -0.1436 -0.0990
17199TIP3   OH273011   2.662   1.033  16.172  0.1913 -0.1700 -0.9682
17199TIP3    H173012   2.588   0.989  16.212  0.6336 -0.6565 -0.6770
17199TIP3    H273013   2.720   1.054  16.245  0.0858  0.7146 -1.1257
17200TIP3   OH273014   5.339   5.733  14.959 -0.1434  0.0488  0.5024
17200TIP3    H173015   5.255   5.708  14.920 -0.1791  1.0046 -0.0915
17200TIP3    H273016   5.338   5.829  14.957  1.4128  0.0934 -0.5386
17201TIP3   OH273017   4.445   4.287   2.202  0.1723  0.0097  0.1210
17201TIP3    H173018   4.434   4.308   2.109  0.6050  0.7815  0.2333
17201TIP3    H273019   4.530   4.324   2.225 -0.3903  0.7665  1.0666
17202TIP3   OH273020   3.787   1.994   2.539  0.1066  0.0518  0.2530
17202TIP3    H173021   3.869   2.037   2.515  1.0153 -0.9886  1.3470
17202TIP3    H273022   3.732   2.065   2.574  0.7213  0.6868 -0.0530
17203TIP3   OH273023   4.621   2.824  12.054  0.0113 -0.2420 -0.3640
17203TIP3    H173024   4.574   2.898  12.015 -0.9321 -1.1079 -0.9064
17203TIP3    H273025   4.669   2.862  12.128  0.1893  1.0497 -1.1138
17204TIP3   OH273026   5.768   0.072   2.262  0.7691  0.6301 -0.2536
17204TIP3    H173027   5.794   0.140   2.200  2.9847 -1.8825 -2.3528
17204TIP3    H273028   5.753  -0.005   2.208  3.2450 -1.8692  2.2656
17205TIP3   OH273029   1.550   3.503  12.877  0.6892 -0.1565 -0.0296
17205TIP3    H173030   1.637   3.517  12.916  0.2188  2.3985  0.3284
17205TIP3    H273031   1.563   3.518  12.784  0.7820 -0.6877 -0.1065
17206TIP3   OH273032   0.169   0.730  14.571  0.1834 -0.0624 -0.1979
17206TIP3    H173033   0.246   0.674  14.564  1.0326  0.9129  1.0629
17206TIP3    H273034   0.113   0.702  14.498  2.9574  1.1169 -3.0146
17207TIP3   OH273035   1.540   1.088  14.953  0.2584 -0.4992 -0.7848
17207TIP3    H173036   1.617   1.032  14.966  1.2854  1.3197  1.7808
17207TIP3    H273037   1.575   1.167  14.912 -0.4339 -0.0862 -0.5930
17208TIP3   OH273038   6.686   2.543  14.811 -0.5881 -0.2892 -0.5094
17208TIP3    H173039   6.741   2.537  14.733  3.0985 -0.0631  1.8100
17208TIP3    H273040   6.673   2.452  14.838  0.8027 -0.3137  0.1936
17209TIP3   OH273041   5.909   4.376   4.033  0.6244 -0.0246  0.1722
17209TIP3    H173042   5.912   4.324   3.952  1.9439 -0.4404  0.4587
17209TIP3    H273043   5.849   4.447   4.014 -1.1392 -1.5529 -0.2985
17210TIP3   OH273044   3.287   0.258  13.198  0.0915  0.2981  0.1124
17210TIP3    H173045   3.241   0.220  13.123  0.1882  0.2560  0.0740
17210TIP3    H273046   3.376   0.275  13.165  0.8886 -1.9295  0.8647
17211TIP3   OH273047   3.059   3.721   3.623  1.0221  0.4496 -0.3037
17211TIP3    H173048   3.141   3.723   3.672 -0.1883  1.2135  1.7997
17211TIP3    H273049   3.028   3.811   3.625  0.4466  0.3003 -1.6883
17212TIP3   OH273050   3.380   3.795   2.650  0.1953 -0.0620 -0.4383
17212TIP3    H173051   3.365   3.866   2.587 -0.2269  2.0581  1.9070
17212TIP3    H273052   3.476   3.791   2.658  0.2325  2.5193  1.6866
17213TIP3   OH273053   3.418   2.219   1.992  0.1058 -0.6103 -0.9151
17213TIP3    H173054   3.346   2.280   1.978  0.5551  0.0368 -0.4578
17213TIP3    H273055   3.464   2.216   1.908  1.6821  1.8148 -0.2348
17214TIP3   OH273056   6.424   1.981  12.952  0.7896 -0.5914 -0.4567
17214TIP3    H173057   6.455   1.904  12.903  0.0555  0.0537 -1.9966
17214TIP3    H273058   6.487   2.049  12.932  1.2062 -0.6609  0.5740
17215TIP3   OH273059   4.857   2.405  15.507 -0.0700 -0.3101  0.0637
17215TIP3    H173060   4.870   2.405  15.412 -0.4135  0.8374  0.0017
17215TIP3    H273061   4.787   2.341  15.522 -0.3476 -0.1377 -0.5001
17216TIP3   OH273062   3.068   4.372  14.451  0.3777  0.3503  0.0025
17216TIP3    H173063   2.974   4.393  14.446  0.2824  0.3397  1.3819
17216TIP3    H273064   3.098   4.378  14.361 -1.4013 -1.7119 -0.8403
17217TIP3   OH273065   0.242   4.022   1.293 -0.1814  0.0421 -0.0711
17217TIP3    H173066   0.332   3.990   1.289  1.5077  4.0755  1.0668
17217TIP3    H273067   0.196   3.958   1.347  1.4397 -3.0219 -2.0355
17218TIP3   OH273068   6.748   4.100  15.827 -0.2902 -0.7604 -0.0180
17218TIP3    H173069   6.747   4.018  15.778  0.6464 -1.6148  1.3131
17218TIP3    H273070   6.796   4.161  15.772 -2.3422 -0.5908 -1.7340
17219TIP3   OH273071   4.107   4.940   5.781 -0.1932  0.2810 -0.2074
17219TIP3    H173072   4.182   4.885   5.760  0.6479  0.5398  1.8868
17219TIP3    H273073   4.080   4.911   5.868 -0.4400  2.4150  0.4787
17220TIP3   OH273074   1.428   3.354  12.528 -0.8708  0.3719  0.7520
17220TIP3    H173075   1.415   3.335  12.435 -0.1171  0.2170  0.6732
17220TIP3    H273076   1.386   3.440  12.541 -2.1643 -0.2024  0.5834
17221TIP3   OH273077   6.065   1.145   3.194 -0.3725  0.3658 -0.1814
17221TIP3    H173078   6.069   1.054   3.221  2.9453  0.0186 -1.4306
17221TIP3    H273079   6.131   1.189   3.247 -1.3899  1.9152 -0.1363
17222TIP3   OH273080   3.662   4.554   3.630  0.2960 -0.0550  0.0586
17222TIP3    H173081   3.688   4.481   3.686  0.5680 -0.7709 -0.9818
17222TIP3    H273082   3.719   4.626   3.656  1.8626 -0.9854 -0.7155
17223TIP3   OH273083   4.980   0.081  10.599  0.7013 -0.0763 -0.6185
17223TIP3    H173084   4.954   0.010  10.657 -0.6771  0.9553  0.0651
17223TIP3    H273085   5.048   0.042  10.543  1.3421 -1.3849  0.9808
17224TIP3   OH273086   2.662   0.520  10.578 -0.0257  0.4950 -0.0089
17224TIP3    H173087   2.757   0.506  10.568  0.1216  1.2604  0.2133
17224TIP3    H273088   2.630   0.532  10.489  0.1240  0.4181 -0.0738
17225TIP3   OH273089   5.145   2.763  14.011  0.0429 -0.3727 -0.0958
17225TIP3    H173090   5.068   2.764  13.954 -1.4167 -2.0557  1.7174
17225TIP3    H273091   5.132   2.837  14.070  0.4422  0.0332 -0.5001
17226TIP3   OH273092   6.054   2.754   3.123 -0.0017  0.1098  0.4592
17226TIP3    H173093   6.126   2.697   3.097  0.8353  1.6403 -0.6938
17226TIP3    H273094   6.091   2.808   3.193 -0.3839  0.1413  0.6388
17227TIP3   OH273095   0.174   3.136  15.408 -0.0172 -0.1084 -0.1424
17227TIP3    H173096   0.138   3.112  15.493  0.3717 -1.9967 -0.4735
17227TIP3    H273097   0.108   3.105  15.345  0.5361 -0.3634 -0.6018
17228TIP3   OH273098   6.052   0.825  14.621  0.0699  0.1742  0.0579
17228TIP3    H173099   6.056   0.900  14.681 -0.4103  1.3202 -1.2908
17228TIP3    H273100   5.970   0.836  14.573 -0.7547 -2.0546  0.8256
17229TIP3   OH273101   1.655   3.545   5.638  0.0980  0.6018 -0.2065
17229TIP3    H173102   1.723   3.495   5.592 -0.0896  2.4105 -2.6255
17229TIP3    H273103   1.692   3.633   5.647 -1.5116  1.3532 -0.6215
17230TIP3   OH273104   1.062   6.661   1.940 -0.0169  0.3969  0.1965
17230TIP3    H173105   0.968   6.653   1.959 -0.4803  2.1286 -1.0615
17230TIP3    H273106   1.083   6.752   1.959  1.4137  0.0534  0.3869
17231TIP3   OH273107   6.469   1.084   4.765  0.6004  0.2046  0.0307
17231TIP3    H173108   6.535   1.015   4.773  1.9163  1.2878 -1.1023
17231TIP3    H273109   6.506   1.159   4.811 -0.6539  0.3189  0.9244
17232TIP3   OH273110   3.638   5.399  15.774  0.5491  0.7481 -0.9211
17232TIP3    H173111   3.660   5.306  15.766  2.6849  1.1641 -0.3090
17232TIP3    H273112   3.704   5.444  15.721  0.0989  1.9752 -0.4720
17233TIP3   OH273113   2.437   0.244   2.638 -0.2530 -0.3209 -1.0570
17233TIP3    H173114   2.518   0.284   2.670 -0.0960 -0.6600 -1.0279
17233TIP3    H273115   2.369   0.310   2.654 -0.2880 -0.7175  0.5531
17234TIP3   OH273116   5.343   2.487  16.863  0.2021  0.1370 -0.5599
17234TIP3    H173117   5.292   2.503  16.784  0.9675 -0.9187 -1.2995
17234TIP3    H273118   5.430   2.464  16.831  1.0058  1.3299  0.6573
17235TIP3   OH273119   0.653   5.151  11.234 -0.1290 -0.1964 -0.5760
17235TIP3    H173120   0.743   5.184  11.245  0.1570 -1.6444  3.0869
17235TIP3    H273121   0.602   5.229  11.211  1.8000  1.0336 -0.9390
17236TIP3   OH273122   1.404   2.739  15.540 -0.4171  0.1886 -0.1638
17236TIP3    H173123   1.310   2.736  15.560 -0.3228 -0.4483  0.2383
17236TIP3    H273124   1.436   2.816  15.588 -0.7993  0.6460 -0.6311
17237TIP3   OH273125   4.903   6.655  12.538  0.6446  0.1017  0.2237
17237TIP3    H173126   4.958   6.703  12.600 -0.1882  0.6427  0.5597
17237TIP3    H273127   4.861   6.588  12.592 -1.8627  1.9875  0.8170
17238TIP3   OH273128   4.604   5.145   4.013 -0.2597 -0.0330 -0.1037
17238TIP3    H173129   4.647   5.067   3.979  0.7351  0.8296 -0.8777
17238TIP3    H273130   4.675   5.207   4.029 -1.0602  0.8456  0.1483
17239TIP3   OH273131   5.166   2.555  12.415  0.0248  0.0252  0.6311
17239TIP3    H173132   5.247   2.537  12.462 -0.7141 -0.4245  1.7853
17239TIP3    H273133   5.104   2.580  12.484 -0.4698  1.6797 -0.3594
17240TIP3   OH273134   2.716   5.370   5.018 -0.2272 -0.1497  0.1729
17240TIP3    H173135   2.684   5.352   4.929 -2.3023 -1.0248  1.0172
17240TIP3    H273136   2.792   5.426   5.005 -0.6277 -0.0172 -2.1453
17241TIP3   OH273137   1.024   2.352  14.939 -0.3179  0.4172 -0.0012
17241TIP3    H173138   1.021   2.371  14.846 -0.2461  0.6365  0.0410
17241TIP3    H273139   1.079   2.421  14.976 -0.3287  0.3189  0.1992
17242TIP3   OH273140   5.396   3.159   0.717  0.0489  0.2869 -0.4030
17242TIP3    H173141   5.414   3.066   0.700  2.4954  0.7220 -0.5768
17242TIP3    H273142   5.302   3.168   0.705 -0.1884 -2.0914 -0.7895
17243TIP3   OH273143   4.964   3.165   3.532 -0.1490 -0.2748 -0.1510
17243TIP3    H173144   5.018   3.095   3.495  0.3283  0.0383 -0.0463
17243TIP3    H273145   4.922   3.125   3.609  0.2709 -0.3907  0.0200
17244TIP3   OH273146   0.220   5.528   6.398 -0.4549  0.1008 -0.2851
17244TIP3    H173147   0.259   5.446   6.428  1.5378  1.3996  0.9442
17244TIP3    H273148   0.155   5.550   6.466 -0.7787 -0.2966 -0.4632
17245TIP3   OH273149   2.847   6.240  15.299 -0.2774  0.1472  0.3391
17245TIP3    H173150   2.802   6.324  15.312 -1.8360 -0.5100 -0.4688
17245TIP3    H273151   2.776   6.178  15.282  0.9944 -0.8657 -1.5357
17246TIP3   OH273152   6.092   5.908   0.231 -0.3635  0.0505  0.2093
17246TIP3    H173153   6.049   5.857   0.162  0.1546 -1.4048  0.9299
17246TIP3    H273154   6.089   5.851   0.308 -0.2079  1.3216  1.1796
17247TIP3   OH273155   1.500   0.753   2.018 -0.8609  0.4705 -0.2004
17247TIP3    H173156   1.573   0.691   2.019 -1.3845 -0.1696 -0.4997
17247TIP3    H273157   1.542   0.839   2.023 -0.1915  0.0822  1.8806
17248TIP3   OH273158   1.511   3.973  16.378  0.3954 -0.2794  0.0504
17248TIP3    H173159   1.555   3.895  16.343  1.3991  0.2423  0.1041
17248TIP3    H273160   1.450   3.999  16.309  0.9178 -0.4200 -0.4712
17249TIP3   OH273161   5.004   4.941   4.789 -0.2273 -0.2658  0.4840
17249TIP3    H173162   5.046   4.854   4.791 -0.3784 -0.3245  1.8086
17249TIP3    H273163   5.076   5.001   4.766 -0.1126 -0.7119 -0.4061
17250TIP3   OH273164   3.656   5.495  13.627 -0.1433 -0.5278 -0.3298
17250TIP3    H173165   3.653   5.583  13.663  0.7072 -1.1498  1.3810
17250TIP3    H273166   3.564   5.472  13.611 -0.4536  0.2738  0.2447
17251TIP3   OH273167   0.065   0.839   2.847  0.2516  0.0644  0.2686
17251TIP3    H173168   0.088   0.792   2.928 -0.7088 -1.0674 -0.0853
17251TIP3    H273169   0.026   0.921   2.878  0.4013 -0.1106  0.9481
17252TIP3   OH273170   6.631   2.556   3.354  0.0507 -0.2948  0.3862
17252TIP3    H173171   6.641   2.641   3.311  0.7397  0.2831  1.6427
17252TIP3    H273172   6.616   2.577   3.446  2.3116 -1.5293  1.1086
17253TIP3   OH273173   0.222   5.294  15.313 -0.1116 -0.0995 -0.0737
17253TIP3    H173174   0.224   5.345  15.394 -0.0490 -1.8999  1.1074
17253TIP3    H273175   0.129   5.278  15.297 -0.0813 -3.0947  1.9388
17254TIP3   OH273176   2.626   0.550  11.598  1.2154 -0.4997 -0.4373
17254TIP3    H173177   2.567   0.623  11.619 -0.1436 -1.9973  1.2117
17254TIP3    H273178   2.585   0.506  11.524  0.1725 -1.5679  0.7371
17255TIP3   OH273179   1.556   6.015   3.572  0.2014  0.1489 -0.4630
17255TIP3    H173180   1.616   6.056   3.509 -0.4177  1.1248 -0.4426
17255TIP3    H273181   1.522   5.938   3.526  1.3567 -0.3620 -0.5185
17256TIP3   OH273182   4.202   3.732   3.303  0.8180 -0.7165  0.1385
17256TIP3    H173183   4.296   3.747   3.300  0.6844  0.1399 -0.7517
17256TIP3    H273184   4.192   3.638   3.289  1.5704 -0.9888  1.3430
17257TIP3   OH273185   1.442   6.102  16.056  0.4224 -0.2887  0.0902
17257TIP3    H173186   1.433   6.036  16.125 -0.1019 -0.3094  0.0021
17257TIP3    H273187   1.386   6.071  15.985 -0.1804  0.4805  0.2216
17258TIP3   OH273188   1.884   2.107  14.707 -0.2594  0.4115  0.0181
17258TIP3    H173189   1.827   2.178  14.735 -0.8399 -0.4402  1.0645
17258TIP3    H273190   1.873   2.039  14.773 -0.8955 -1.2886 -1.7338
17259TIP3   OH273191   1.208   3.058   4.045 -0.4777 -0.0179  0.9948
17259TIP3    H173192   1.274   3.123   4.021  0.3248 -0.4734  1.9132
17259TIP3    H273193   1.236   3.026   4.131 -0.3605 -2.2299  0.1774
17260TIP3   OH273194   1.743   1.930  10.938  0.4533  0.3626  0.6541
17260TIP3    H173195   1.661   1.972  10.910  0.5782  0.5291  0.5400
17260TIP3    H273196   1.715   1.865  11.003  0.2544  0.5690  0.7771
17261TIP3   OH273197   5.437   3.154  13.927  0.1447 -0.1610 -0.1080
17261TIP3    H173198   5.429   3.125  14.018  0.7921  0.3853  0.1372
17261TIP3    H273199   5.434   3.074  13.876  1.9099 -0.7090  0.5502
17262TIP3   OH273200   0.806   3.206  15.480  0.1346  0.4049  0.0634
17262TIP3    H173201   0.765   3.285  15.515  0.5227 -0.1987  1.9809
17262TIP3    H273202   0.733   3.146  15.467 -0.0751  0.8129 -0.7079
17263TIP3   OH273203   1.281   0.510  12.180 -0.0854  0.5034  0.8154
17263TIP3    H173204   1.248   0.458  12.252  0.1478  0.9287  1.2353
17263TIP3    H273205   1.371   0.480  12.168 -0.4539 -0.3259 -0.0209
17264TIP3   OH273206   4.454   4.447   3.203 -0.3254 -0.7668 -0.0306
17264TIP3    H173207   4.422   4.434   3.292 -1.6458 -3.1380 -0.7695
17264TIP3    H273208   4.476   4.358   3.172 -3.6369 -0.6596 -3.3794
17265TIP3   OH273209   6.123   1.238  14.365 -0.1831 -0.4848 -0.4358
17265TIP3    H173210   6.104   1.319  14.412  0.1708  0.0499 -1.1814
17265TIP3    H273211   6.039   1.193  14.357 -0.2081 -0.7079  0.9019
17266TIP3   OH273212   3.278   6.361  17.053  0.1639 -0.2496 -0.6175
17266TIP3    H173213   3.356   6.417  17.056  1.0858 -1.5292 -0.0248
17266TIP3    H273214   3.309   6.275  17.080 -1.5478 -0.6868  0.0930
17267TIP3   OH273215   2.747   3.957   1.181 -0.1787 -0.5062 -0.4575
17267TIP3    H173216   2.725   3.873   1.221  2.3265 -1.3379 -0.6224
17267TIP3    H273217   2.774   3.934   1.092 -1.6421  0.8018 -1.2899
17268TIP3   OH273218   1.348   2.535   0.551  0.1283  0.2078  0.2915
17268TIP3    H173219   1.303   2.562   0.631  0.5961  0.4604  0.4763
17268TIP3    H273220   1.293   2.466   0.514 -1.7038  2.1068 -0.7436
17269TIP3   OH273221   5.738   4.297   2.820  0.5561 -0.5214  0.5589
17269TIP3    H173222   5.649   4.308   2.853 -0.3802 -1.9268 -1.2861
17269TIP3    H273223   5.780   4.382   2.834 -1.8032  0.9337 -0.5695
17270TIP3   OH273224   6.274   6.410  12.143 -0.2720  0.1456 -0.0790
17270TIP3    H173225   6.182   6.425  12.161 -0.5762 -1.3400 -0.2872
17270TIP3    H273226   6.275   6.335  12.082  1.1287 -1.5070  1.8422
17271TIP3   OH273227   3.349   4.554   3.824 -0.5397  0.1433 -0.1734
17271TIP3    H173228   3.339   4.640   3.864  0.1350 -0.9726  2.5856
17271TIP3    H273229   3.271   4.505   3.851 -0.9836 -0.1192 -1.8213
17272TIP3   OH273230   2.419   2.135   4.191  0.6069 -0.0136 -0.0386
17272TIP3    H173231   2.511   2.143   4.165  1.0132  0.9956  1.6154
17272TIP3    H273232   2.412   2.184   4.273 -1.3580 -0.2875  0.0105
17273TIP3   OH273233   0.080   6.645   4.968  0.2965  0.1404 -0.4365
17273TIP3    H173234  -0.003   6.632   5.014  0.4471 -1.5976 -0.5790
17273TIP3    H273235   0.146   6.626   5.034  0.5377 -0.7522 -0.9268
17274TIP3   OH273236   4.163   1.545   5.157 -0.2657  0.3737 -0.0454
17274TIP3    H173237   4.121   1.631   5.166 -0.5523  0.2785 -0.4496
17274TIP3    H273238   4.197   1.544   5.068 -2.2365 -0.7952 -0.8485
17275TIP3   OH273239   1.619   4.323   6.346  0.7341 -0.4864 -0.3672
17275TIP3    H173240   1.641   4.286   6.432 -0.6179 -0.2755  0.1048
17275TIP3    H273241   1.702   4.354   6.311  1.0955  1.1975  1.7329
17276TIP3   OH273242   3.307   4.178  11.091  0.4078 -0.0582 -0.5810
17276TIP3    H173243   3.347   4.091  11.094 -1.6814 -1.0639  0.1025
17276TIP3    H273244   3.290   4.193  10.998 -2.1323 -1.8950 -0.5308
17277TIP3   OH273245   3.660   3.095   4.526  0.3457  0.8968  0.2230
17277TIP3    H173246   3.576   3.123   4.564  0.2835 -1.2659  1.8661
17277TIP3    H273247   3.638   3.068   4.437 -1.0445 -0.9959  1.0845
17278TIP3   OH273248   1.891   5.489   2.037 -0.3553 -0.0097  0.0907
17278TIP3    H173249   1.944   5.425   2.083  1.2850  2.3392  1.7105
17278TIP3    H273250   1.812   5.498   2.091 -0.9915 -1.2285 -0.6077
17279TIP3   OH273251   6.635   2.082  11.776 -0.0261 -0.0151 -0.0603
17279TIP3    H173252   6.716   2.126  11.801  0.5294 -0.1996 -1.4224
17279TIP3    H273253   6.567   2.123  11.829  0.1571  3.8127 -2.3895
17280TIP3   OH273254   5.586   5.019   5.854  0.0351 -0.6319  0.0700
17280TIP3    H173255   5.673   5.000   5.819  1.0072  2.1305  0.7666
17280TIP3    H273256   5.554   5.091   5.800 -0.6846  0.1377  1.4672
17281TIP3   OH273257   0.325   5.271   1.156 -0.2995  0.2931 -0.0614
17281TIP3    H173258   0.293   5.230   1.075 -0.1062  0.3907 -0.1869
17281TIP3    H273259   0.412   5.233   1.170 -0.9412 -0.9104  0.9489
17282TIP3   OH273260   0.805   4.635  13.231  0.0280  0.4528  0.5132
17282TIP3    H173261   0.859   4.597  13.300  1.7962  1.0203 -0.4879
17282TIP3    H273262   0.775   4.718  13.267  1.6335  1.1423  0.3485
17283TIP3   OH273263   1.099   5.998  14.780  0.2470  0.2747 -0.6471
17283TIP3    H173264   1.154   5.985  14.857  1.4408 -1.4402 -1.7155
17283TIP3    H273265   1.010   5.979  14.810  0.7096 -0.5052  0.2699
17284TIP3   OH273266   5.075   5.154  14.254 -0.1250 -0.3115  0.0375
17284TIP3    H173267   5.138   5.122  14.190 -2.1994 -0.9654 -1.7777
17284TIP3    H273268   5.097   5.108  14.335  2.9872  1.0426  0.1045
17285TIP3   OH273269   4.186   0.858   5.824  0.0088 -0.4484 -0.1944
17285TIP3    H173270   4.206   0.827   5.736 -1.7506  0.5236 -0.9814
17285TIP3    H273271   4.115   0.921   5.812 -2.0461 -2.1316  2.1524
17286TIP3   OH273272   0.481   1.104  10.654  0.6249  0.6456  0.1787
17286TIP3    H173273   0.405   1.158  10.635 -0.1916 -1.1259 -2.0448
17286TIP3    H273274   0.556   1.161  10.638 -0.2146  1.6530 -0.2275
17287TIP3   OH273275   2.822   5.341   2.964 -0.6353  0.0317 -0.1467
17287TIP3    H173276   2.916   5.333   2.975 -0.5252  0.7112 -0.5506
17287TIP3    H273277   2.809   5.426   2.923 -1.3146 -0.6526 -1.4124
17288TIP3   OH273278   1.075   3.820  12.150 -0.1331  0.0135 -0.3882
17288TIP3    H173279   1.055   3.913  12.148  1.1972  0.3811  1.3899
17288TIP3    H273280   0.990   3.777  12.155 -0.7455  1.1210 -0.8974
17289TIP3   OH273281   0.093   3.969  12.902  0.1187 -0.0695 -0.5988
17289TIP3    H173282   0.180   3.962  12.863 -0.5057  0.1633 -2.1328
17289TIP3    H273283   0.108   3.965  12.996  1.8035  0.1532 -0.8233
17290TIP3   OH273284   3.872   3.165  15.342 -0.2076 -0.0057  0.0331
17290TIP3    H173285   3.858   3.115  15.261 -1.5142 -1.1455  0.9127
17290TIP3    H273286   3.967   3.165  15.354  0.0472  0.5078 -1.6717
17291TIP3   OH273287   2.163   1.814   4.213 -0.3957 -0.0818  0.5880
17291TIP3    H173288   2.214   1.888   4.181 -0.6197 -0.7143 -1.3851
17291TIP3    H273289   2.224   1.764   4.267  0.6532 -0.0034 -0.4681
17292TIP3   OH273290   2.553   1.872  15.025 -0.3172 -0.0556 -0.1098
17292TIP3    H173291   2.585   1.811  14.959  0.4480  0.2388 -0.0245
17292TIP3    H273292   2.589   1.957  14.998 -0.3255  0.1332  0.4621
17293TIP3   OH273293   4.306   0.083   5.662  0.3817 -0.3960  0.1942
17293TIP3    H173294   4.331   0.174   5.648 -0.0600 -0.0763  1.3632
17293TIP3    H273295   4.220   0.089   5.705  0.5347 -1.3463  0.6451
17294TIP3   OH273296   6.009   3.250  13.707  0.0798  0.2838  0.9813
17294TIP3    H173297   6.007   3.155  13.698  1.0748  0.2238  1.2634
17294TIP3    H273298   5.961   3.282  13.630  0.3237 -0.4306  0.5141
17295TIP3   OH273299   5.886   4.953   1.431 -0.2871  0.1526  0.2086
17295TIP3    H173300   5.884   4.886   1.363  1.0005 -0.6880  0.9457
17295TIP3    H273301   5.874   5.036   1.385  2.1278 -0.2453 -1.2974
17296TIP3   OH273302   4.786   4.070  12.850  0.2144 -0.0880  0.2459
17296TIP3    H173303   4.753   3.981  12.843 -0.0510  0.1180 -1.3130
17296TIP3    H273304   4.862   4.063  12.908  0.7050 -1.4522 -0.5365
17297TIP3   OH273305   5.385   3.855   1.358  0.5626 -0.0255 -0.2770
17297TIP3    H173306   5.420   3.824   1.442 -0.1164 -1.7525 -0.5958
17297TIP3    H273307   5.303   3.898   1.381 -0.5466 -2.0749 -0.1725
17298TIP3   OH273308   0.372   3.169  12.334  0.3882 -0.1744  0.4877
17298TIP3    H173309   0.346   3.115  12.260  1.9624  0.4172 -0.5451
17298TIP3    H273310   0.346   3.258  12.309 -0.5455 -0.1829  1.3786
17299TIP3   OH273311   3.332   0.737   1.832 -0.0311  0.1911 -0.2295
17299TIP3    H173312   3.420   0.763   1.860 -0.5644 -0.9289  2.9029
17299TIP3    H273313   3.296   0.816   1.791  2.4757  0.5884 -1.9013
17300TIP3   OH273314   6.408   6.649   5.035 -0.9505 -0.2596  0.0002
17300TIP3    H173315   6.453   6.685   4.959  0.8320  0.3673  1.3019
17300TIP3    H273316   6.333   6.601   4.998  0.3069 -0.6538 -2.1789
17301TIP3   OH273317   1.281   0.685   1.872 -0.5372  0.2299  0.5451
17301TIP3    H173318   1.302   0.610   1.817 -0.5658 -0.3955  1.3666
17301TIP3    H273319   1.355   0.690   1.934 -1.0958  0.1595  1.2298
17302TIP3   OH273320   2.911   4.633  14.199  0.2028  0.7970  0.2186
17302TIP3    H173321   2.898   4.670  14.112  0.8997  0.3443 -0.0837
17302TIP3    H273322   2.977   4.689  14.239  0.4239  0.5564  0.1855
17303TIP3   OH273323   1.608   4.598  15.634 -0.1134 -0.4033  0.1584
17303TIP3    H173324   1.607   4.506  15.661 -0.5693 -1.2104 -2.3283
17303TIP3    H273325   1.516   4.623  15.631 -0.0874 -0.3824 -0.6879
17304TIP3   OH273326   5.186   0.986  12.513  0.3643  0.1993  0.2516
17304TIP3    H173327   5.107   1.023  12.475 -0.2005 -1.3003 -0.0968
17304TIP3    H273328   5.168   0.981  12.607 -1.0666 -2.5321 -0.0688
17305TIP3   OH273329   2.890   5.633  13.051  0.2215 -0.3102 -0.2385
17305TIP3    H173330   2.934   5.606  13.132  0.6955  0.8265 -0.0959
17305TIP3    H273331   2.797   5.636  13.073  0.2580 -0.8495  0.0070
17306TIP3   OH273332   2.892   5.947  13.050 -0.3905  0.3312 -0.4412
17306TIP3    H173333   2.916   5.854  13.045 -0.7693  0.1124  1.2918
17306TIP3    H273334   2.851   5.965  12.965 -0.8308 -1.2340 -0.6047
17307TIP3   OH273335   4.766   6.643  13.205 -0.3992 -0.1117  0.7832
17307TIP3    H173336   4.803   6.729  13.227  1.1985 -0.2086 -1.2030
17307TIP3    H273337   4.697   6.663  13.142  0.3454 -0.2864 -0.1064
17308TIP3   OH273338   6.653   5.273  12.927  0.2840  0.1020 -0.5123
17308TIP3    H173339   6.721   5.224  12.974  0.7858  0.1929 -1.1208
17308TIP3    H273340   6.605   5.320  12.995  1.1981  0.4808 -0.1175
17309TIP3   OH273341   2.007   3.062   0.132  0.2129  0.0455 -0.1735
17309TIP3    H173342   2.063   3.024   0.200 -2.7785  0.9447  3.0745
17309TIP3    H273343   2.007   2.996   0.062  0.8606 -2.5922  2.1184
17310TIP3   OH273344   5.055   5.640  10.581  0.3455 -0.0793  0.1506
17310TIP3    H173345   5.105   5.574  10.532 -2.3238  0.2896 -3.4781
17310TIP3    H273346   5.078   5.723  10.539 -1.8553  0.2856 -0.4605
17311TIP3   OH273347   0.238   1.689   1.647  0.4969  0.3933 -0.4287
17311TIP3    H173348   0.311   1.717   1.703  1.5843 -3.0446  0.1133
17311TIP3    H273349   0.183   1.767   1.639  1.8467  1.9090  2.9203
17312TIP3   OH273350   3.653   6.402   3.843 -0.1311  0.3735  0.9288
17312TIP3    H173351   3.696   6.318   3.823 -1.0549  0.2161 -0.5822
17312TIP3    H273352   3.723   6.457   3.878  0.7569 -0.6522  0.8259
17313TIP3   OH273353   3.653   3.800   1.695  0.4729  0.0634  0.4105
17313TIP3    H173354   3.747   3.816   1.692  0.7822 -1.4160  1.3632
17313TIP3    H273355   3.614   3.886   1.676  1.9987  0.9442  1.0314
17314TIP3   OH273356   3.274   1.597  13.867 -0.2920 -0.5082 -0.6942
17314TIP3    H173357   3.337   1.532  13.898 -0.4482 -1.0929 -1.5450
17314TIP3    H273358   3.324   1.653  13.808 -0.1748  0.1187 -0.0161
17315TIP3   OH273359   0.263   5.516   0.610 -0.1135 -0.1780  0.5857
17315TIP3    H173360   0.296   5.572   0.680 -1.8529 -0.6199  1.8161
17315TIP3    H273361   0.277   5.566   0.530  1.5410  0.5101  1.2523
17316TIP3   OH273362   3.786   3.993  16.408  0.6003 -0.4557 -0.2039
17316TIP3    H173363   3.792   4.057  16.479  2.6028 -1.5407  0.7012
17316TIP3    H273364   3.721   3.929  16.439  1.7555 -1.1383  0.8881
17317TIP3   OH273365   4.543   6.065   4.547  0.4944  0.1109  0.4004
17317TIP3    H173366   4.638   6.073   4.553  0.6376 -0.6267 -0.6462
17317TIP3    H273367   4.516   6.138   4.492  0.4666  0.2293  0.5693
17318TIP3   OH273368   5.532   4.329  12.555 -0.1091  0.2649  0.2424
17318TIP3    H173369   5.535   4.422  12.534  0.1351 -0.1123 -1.5098
17318TIP3    H273370   5.440   4.305  12.547  0.0004  0.0947 -0.5794
17319TIP3   OH273371   5.194   5.859   3.497 -0.1422 -0.0782 -0.1811
17319TIP3    H173372   5.208   5.943   3.540  1.8927 -1.1430  1.3789
17319TIP3    H273373   5.116   5.823   3.539 -0.5112  0.6143 -0.2482
17320TIP3   OH273374   4.931   5.393  15.038 -0.0325  0.0637  0.1677
17320TIP3    H173375   4.948   5.465  14.977  0.5296  0.0290  0.2858
17320TIP3    H273376   4.851   5.420  15.085  0.7546  1.0925  0.9547
17321TIP3   OH273377   6.245   0.656  14.999  0.8744 -0.3830 -0.2149
17321TIP3    H173378   6.174   0.593  14.985  0.2946  0.4917 -1.3633
17321TIP3    H273379   6.295   0.619  15.072 -0.5323 -1.2153  0.3824
17322TIP3   OH273380   1.991   3.504  15.616  0.3146  0.0144  0.1946
17322TIP3    H173381   2.057   3.573  15.619  1.0109 -0.6650  2.2143
17322TIP3    H273382   1.965   3.491  15.707 -0.1551 -2.0182 -0.1718
17323TIP3   OH273383   0.457   0.391   5.427 -0.1602 -0.3095 -0.1912
17323TIP3    H173384   0.372   0.354   5.452 -0.0866 -0.1517  0.3028
17323TIP3    H273385   0.452   0.482   5.455 -0.8202  0.4426 -2.5182
17324TIP3   OH273386   3.635   1.246   2.837 -0.4343  0.3074 -0.1828
17324TIP3    H173387   3.572   1.182   2.802 -0.1635 -0.5111  0.7815
17324TIP3    H273388   3.607   1.330   2.799 -1.0178 -0.3101 -1.1827
17325TIP3   OH273389   3.123   2.910   1.127  0.4329  0.2301  0.0451
17325TIP3    H173390   3.104   2.861   1.047  1.5785  0.6197 -0.4842
17325TIP3    H273391   3.044   2.898   1.181  0.2093 -1.2268 -0.5333
17326TIP3   OH273392   1.351   2.443  12.745  0.8746  0.4469 -0.1575
17326TIP3    H173393   1.362   2.355  12.709  1.5883  0.1903  0.6607
17326TIP3    H273394   1.306   2.430  12.829 -0.0832  0.9726 -0.5704
17327TIP3   OH273395   1.899   0.941  13.179 -0.1113 -0.3220 -0.2572
17327TIP3    H173396   1.967   1.008  13.171 -0.3043  0.2154  1.8498
17327TIP3    H273397   1.945   0.858  13.170  0.6738  0.0545  0.2164
17328TIP3   OH273398   4.065   5.459  15.150 -0.0868 -0.2682 -0.4208
17328TIP3    H173399   3.990   5.409  15.118 -0.2861  1.0521 -2.1698
17328TIP3    H273400   4.138   5.396  15.148 -0.5813 -0.8421 -1.3822
17329TIP3   OH273401   5.704   6.547  15.334  0.1111  0.2877 -0.5701
17329TIP3    H173402   5.655   6.606  15.392  1.2719 -0.5426  1.3826
17329TIP3    H273403   5.714   6.467  15.386  0.4749 -0.8182 -2.2923
17330TIP3   OH273404   2.123   5.266   0.438  0.6341  0.2228 -0.4124
17330TIP3    H173405   2.033   5.244   0.460  1.1977 -1.4105  0.5010
17330TIP3    H273406   2.129   5.360   0.449 -1.2697  0.5610 -1.7560
17331TIP3   OH273407   5.344   3.061  11.488  0.2939 -0.7714  0.1791
17331TIP3    H173408   5.302   3.117  11.553  0.1683  1.2788 -1.5805
17331TIP3    H273409   5.275   2.999  11.463 -1.0307  1.0432 -0.9386
17332TIP3   OH273410   6.785   1.596   3.322  0.4002  0.2532  0.1325
17332TIP3    H173411   6.853   1.529   3.329  1.3073  1.2319  1.2375
17332TIP3    H273412   6.828   1.677   3.349 -1.2484  0.8806  1.0698
17333TIP3   OH273413   6.264   1.435   0.491  0.1903  0.5133 -0.4100
17333TIP3    H173414   6.308   1.424   0.575  0.6860  0.8821 -0.6181
17333TIP3    H273415   6.255   1.346   0.457  1.5526  0.4886 -0.7552
17334TIP3   OH273416   3.012   6.769  12.408  0.1802  0.4799  0.0016
17334TIP3    H173417   2.921   6.738  12.410  0.2454  0.2359 -0.5518
17334TIP3    H273418   3.019   6.816  12.325  0.2371  1.5245  0.5791
17335TIP3   OH273419   2.377   1.167  12.137 -0.3484 -0.2069 -0.3734
17335TIP3    H173420   2.308   1.187  12.199  0.2889  1.6725 -0.2194
17335TIP3    H273421   2.454   1.148  12.191 -0.5652 -1.7953 -0.5571
17336TIP3   OH273422   6.229   0.308  11.770  0.0754 -0.3070 -0.0096
17336TIP3    H173423   6.217   0.363  11.847  1.6208 -0.6005  0.4814
17336TIP3    H273424   6.272   0.229  11.803 -0.7540 -1.1711 -0.9316
17337TIP3   OH273425   3.738   5.876   6.526 -0.1161 -0.2949  0.1248
17337TIP3    H173426   3.681   5.868   6.603  0.5958 -0.4605  0.6378
17337TIP3    H273427   3.784   5.793   6.521 -0.4792 -0.4502 -0.7492
17338TIP3   OH273428   0.540   5.403   5.008  0.1976  0.4895 -0.2052
17338TIP3    H173429   0.525   5.383   4.915  0.4725  1.0177 -0.3669
17338TIP3    H273430   0.635   5.402   5.017  0.1560 -0.0440  0.1825
17339TIP3   OH273431   2.943   4.212  13.225  0.3093 -0.4502  0.0585
17339TIP3    H173432   2.864   4.176  13.266 -0.3990  0.2565 -0.6292
17339TIP3    H273433   2.984   4.137  13.182 -0.0518 -0.8076  0.3249
17340TIP3   OH273434   5.414   5.506   4.119  0.3462 -0.2017 -0.0643
17340TIP3    H173435   5.399   5.458   4.038 -2.5506  1.3604 -0.5778
17340TIP3    H273436   5.453   5.589   4.091 -2.0789  0.9919 -0.1347
17341TIP3   OH273437   1.637   4.255  12.939  0.2333 -0.7736 -0.2128
17341TIP3    H173438   1.650   4.302  13.022 -3.4849  1.1195 -0.4920
17341TIP3    H273439   1.567   4.193  12.957  1.8148 -2.9648 -1.1429
17342TIP3   OH273440   0.082   2.205   1.062 -0.9516 -0.0962  0.1506
17342TIP3    H173441   0.055   2.242   1.146 -0.8159 -1.3133  0.7482
17342TIP3    H273442   0.074   2.111   1.073 -1.8449 -0.2714 -1.5158
17343TIP3   OH273443   0.387   2.685  12.883 -0.3460 -0.5180  0.2976
17343TIP3    H173444   0.394   2.620  12.953 -0.0731 -1.5552 -0.6485
17343TIP3    H273445   0.293   2.692  12.866 -0.4184 -0.1948  0.8235
17344TIP3   OH273446   2.693   1.288   6.123 -0.2014 -0.1384  0.2673
17344TIP3    H173447   2.622   1.300   6.187 -1.7521 -0.3522 -1.3300
17344TIP3    H273448   2.652   1.241   6.051  1.4722  0.1612 -0.9351
17345TIP3   OH273449   4.612   0.971   5.899 -0.2300 -0.1966 -0.1892
17345TIP3    H173450   4.581   0.974   5.808  0.4020 -0.5996 -0.4276
17345TIP3    H273451   4.597   1.059   5.932  1.7142  0.6938 -1.4508
17346TIP3   OH273452   2.891   6.801  11.521 -0.1384  0.5966  0.3613
17346TIP3    H173453   2.959   6.785  11.586 -1.3891  1.1559  1.8955
17346TIP3    H273454   2.895   6.895  11.503 -0.7348  0.7053  0.7566
17347TIP3   OH273455   5.430   0.003   3.806  0.2538  0.4240  0.5957
17347TIP3    H173456   5.423   0.052   3.724 -0.0690 -1.0672 -0.2998
17347TIP3    H273457   5.524  -0.008   3.820  0.3506  1.5796  1.0136
17348TIP3   OH273458   1.834   5.230  10.674 -0.1078  0.1738  0.8908
17348TIP3    H173459   1.897   5.295  10.644 -0.3047  0.1050  0.3057
17348TIP3    H273460   1.883   5.148  10.678 -0.4527 -0.1600 -0.8703
17349TIP3   OH273461   4.310   2.508   2.119  0.2569  0.3791 -0.3258
17349TIP3    H173462   4.307   2.603   2.109  1.1168  0.2360 -2.4994
17349TIP3    H273463   4.382   2.480   2.063  0.5171 -1.5203  0.8457
17350TIP3   OH273464   6.187   3.731   2.781 -0.1207  0.2248 -0.5160
17350TIP3    H173465   6.114   3.787   2.757  0.1008  0.6163 -0.2806
17350TIP3    H273466   6.176   3.652   2.727 -0.2762  0.6073 -1.0422
17351TIP3   OH273467   1.882   0.180   3.601 -0.4255 -0.5373  0.3664
17351TIP3    H173468   1.972   0.172   3.632  0.6248 -1.6131 -2.6297
17351TIP3    H273469   1.854   0.089   3.584 -1.2405 -0.0753 -0.8732
17352TIP3   OH273470   1.301   3.104  14.897 -0.0707 -0.1269 -0.8322
17352TIP3    H173471   1.215   3.095  14.856 -0.6632  1.3400 -0.0048
17352TIP3    H273472   1.284   3.154  14.977  1.2342 -1.6668  0.4855
17353TIP3   OH273473   6.481   5.291   3.043 -0.6535  0.0441 -0.2158
17353TIP3    H173474   6.460   5.311   2.952 -1.2556  1.5761  0.2221
17353TIP3    H273475   6.402   5.317   3.092 -1.4349 -3.2203  0.5143
17354TIP3   OH273476   6.468   5.687   3.379 -0.2387  0.4079  0.2175
17354TIP3    H173477   6.533   5.681   3.308 -0.3029  2.3293 -0.0526
17354TIP3    H273478   6.493   5.765   3.428 -0.3582 -0.7405  2.1946
17355TIP3   OH273479   0.240   5.819   1.348  0.2148  0.4848  0.0512
17355TIP3    H173480   0.279   5.907   1.350  0.5840  0.3408  2.3652
17355TIP3    H273481   0.309   5.761   1.379 -0.1050 -0.6284 -1.2208
17356TIP3   OH273482   4.800   2.946  13.338  0.6096 -0.4810  0.3518
17356TIP3    H173483   4.758   2.910  13.416 -1.0978 -0.7028 -0.6123
17356TIP3    H273484   4.736   2.932  13.268  1.8341  0.2639 -0.9721
17357TIP3   OH273485   4.565   6.526   2.651  0.2289 -0.9008  0.3514
17357TIP3    H173486   4.505   6.588   2.609  0.3132 -1.3249 -0.4191
17357TIP3    H273487   4.508   6.460   2.690  0.1892 -1.5282 -0.7362
17358TIP3   OH273488   5.098   4.615  14.578 -0.4481  0.2674  0.3153
17358TIP3    H173489   5.155   4.541  14.600  0.0735  0.7370  0.5578
17358TIP3    H273490   5.060   4.642  14.662  0.0077  0.8016  0.3540
17359TIP3   OH273491   3.400   3.916  12.365  0.0167 -0.0412 -0.7770
17359TIP3    H173492   3.407   4.003  12.326  0.4027  1.1380  1.7307
17359TIP3    H273493   3.329   3.874  12.317  0.7290  1.0976 -2.9737
17360TIP3   OH273494   3.813   6.216   3.708  0.5939 -0.0640 -0.0629
17360TIP3    H173495   3.748   6.147   3.714  0.3789  0.2264  1.3189
17360TIP3    H273496   3.887   6.176   3.661  0.1868 -0.9919  0.0769
17361TIP3   OH273497   0.797   3.263  16.897 -0.1145 -0.3515 -0.3593
17361TIP3    H173498   0.826   3.172  16.906  0.4251 -0.2145 -0.6811
17361TIP3    H273499   0.811   3.284  16.804  1.2660  0.5537  0.0212
17362TIP3   OH273500   5.747   3.229   4.838  0.3434 -0.3426  0.1353
17362TIP3    H173501   5.787   3.301   4.790  0.4547 -1.1962 -1.0839
17362TIP3    H273502   5.754   3.255   4.930  0.5211  1.1187 -0.2728
17363TIP3   OH273503   6.559   0.625  11.549 -0.6242 -0.3368 -0.1074
17363TIP3    H173504   6.529   0.540  11.580 -3.0502  1.0958  1.9111
17363TIP3    H273505   6.586   0.610  11.458 -0.9136 -3.2212  0.2073
17364TIP3   OH273506   0.030   2.029  13.071 -1.0117 -0.3703 -0.1503
17364TIP3    H173507   0.046   1.974  13.148 -0.6772  2.2055  1.7507
17364TIP3    H273508   0.020   1.967  12.999  0.8721 -2.8460  1.5402
17365TIP3   OH273509   6.609   6.262   4.896 -0.0320 -0.4130 -0.3125
17365TIP3    H173510   6.593   6.234   4.986 -1.4522  1.1105 -0.0401
17365TIP3    H273511   6.634   6.182   4.850 -0.0190 -1.3527  1.2595
17366TIP3   OH273512   2.659   5.311  15.881 -0.9598 -0.8643  0.0010
17366TIP3    H173513   2.588   5.288  15.941 -0.5237  1.8525  1.7124
17366TIP3    H273514   2.732   5.332  15.938  0.3930 -0.9424 -1.6419
17367TIP3   OH273515   0.893   5.766   3.677 -0.0921  0.2985  0.4645
17367TIP3    H173516   0.833   5.806   3.614 -0.7908  0.4786  1.2267
17367TIP3    H273517   0.931   5.692   3.630 -1.0822  0.0489  0.0303
17368TIP3   OH273518   5.268   3.208   3.583 -0.5715  0.2475  0.4155
17368TIP3    H173519   5.174   3.217   3.568 -0.4786 -2.9657 -4.6893
17368TIP3    H273520   5.306   3.285   3.542 -1.0060 -0.6280 -1.7988
17369TIP3   OH273521   0.855   5.144   0.894  0.5364 -0.4455  0.0151
17369TIP3    H173522   0.858   5.238   0.880  0.7056 -0.3545  0.6224
17369TIP3    H273523   0.764   5.125   0.918 -0.8003 -1.1499 -4.6701
17370TIP3   OH273524   2.962   1.332   6.146  0.2737 -0.1929  0.5546
17370TIP3    H173525   2.868   1.348   6.149  0.3881  2.1039 -2.6125
17370TIP3    H273526   2.972   1.251   6.097 -0.1102  0.8567 -1.3599
17371TIP3   OH273527   3.351   4.316  12.806 -0.1882 -0.4359 -0.6971
17371TIP3    H173528   3.427   4.293  12.858 -0.5761  0.2877  0.2163
17371TIP3    H273529   3.375   4.292  12.716  1.3706  0.3940 -0.5337
17372TIP3   OH273530   3.341   2.597  11.711  0.2771  0.2029  1.2480
17372TIP3    H173531   3.268   2.609  11.772 -0.1671 -0.1067  0.7829
17372TIP3    H273532   3.314   2.526  11.654  0.3269  1.0274  0.1590
17373TIP3   OH273533   6.153   0.998  12.383 -0.1845 -0.6651 -0.3251
17373TIP3    H173534   6.214   0.931  12.413 -0.3721 -0.5232  0.3903
17373TIP3    H273535   6.206   1.078  12.375 -0.4386 -0.3293  1.1459
17374TIP3   OH273536   2.406   0.681  13.364 -0.4494 -0.3240 -0.4318
17374TIP3    H173537   2.365   0.654  13.446 -0.2842 -1.0497 -0.5820
17374TIP3    H273538   2.481   0.623  13.354 -0.9304 -0.7899 -1.5017
17375TIP3   OH273539   1.738   1.063  11.023 -0.6864 -0.2816  0.4667
17375TIP3    H173540   1.733   1.026  10.935  2.4459  1.0678 -0.4136
17375TIP3    H273541   1.811   1.017  11.065  0.9811  2.2494  0.5774
17376TIP3   OH273542   0.039   3.890  12.603 -0.9699 -0.4837  0.2654
17376TIP3    H173543   0.049   3.962  12.541 -0.5128  0.3075  1.2465
17376TIP3    H273544   0.065   3.926  12.688 -1.1440 -1.6766  0.8539
17377TIP3   OH273545   5.376   3.678  16.645 -0.5743  0.1800 -0.4564
17377TIP3    H173546   5.409   3.624  16.573 -1.3639  0.6484 -1.1819
17377TIP3    H273547   5.379   3.767  16.611  1.6854  0.7902  1.0753
17378TIP3   OH273548   3.719   4.820   6.054  0.0615  0.1148 -0.2622
17378TIP3    H173549   3.694   4.729   6.035 -1.1035  0.6844 -1.6228
17378TIP3    H273550   3.773   4.814   6.132 -0.2088 -1.7312 -0.1757
17379TIP3   OH273551   3.037   4.324   5.946 -0.0069 -0.1027  0.0861
17379TIP3    H173552   3.030   4.320   5.850  0.7251 -0.1016  0.0245
17379TIP3    H273553   3.033   4.417   5.966  1.4615  0.0322 -0.1008
17380TIP3   OH273554   2.006   6.724  16.419  0.3854  0.6948  0.8081
17380TIP3    H173555   1.986   6.777  16.342 -0.6546  2.0786  1.9749
17380TIP3    H273556   2.046   6.785  16.481  0.0065 -0.0874  1.8469
17381TIP3   OH273557   0.347   1.884   0.669 -0.4164 -0.1495  0.2949
17381TIP3    H173558   0.321   1.956   0.612  1.4276 -0.5037 -1.0927
17381TIP3    H273559   0.382   1.926   0.747 -1.6789  0.3765  0.5979
17382TIP3   OH273560   0.520   2.202  15.019  0.1495 -0.6616 -0.1006
17382TIP3    H173561   0.587   2.253  14.974 -0.7806 -0.3005 -1.1452
17382TIP3    H273562   0.476   2.266  15.076  0.0180 -0.6505 -0.2129
17383TIP3   OH273563   6.762   3.743   6.123  0.0773  0.0961 -0.7424
17383TIP3    H173564   6.725   3.715   6.207  0.1567  1.7572 -0.1209
17383TIP3    H273565   6.843   3.692   6.116 -0.0619 -0.2668  0.0615
17384TIP3   OH273566   5.913   4.079  12.293  0.0500 -0.3740 -0.5526
17384TIP3    H173567   5.822   4.087  12.321  0.3154  0.0123  0.2258
17384TIP3    H273568   5.909   4.078  12.197 -0.6947  0.7903 -0.5541
17385TIP3   OH273569   4.678   1.749  15.197 -0.6049  0.5959 -1.0852
17385TIP3    H173570   4.637   1.662  15.199 -0.4466  0.5327  0.5396
17385TIP3    H273571   4.706   1.764  15.287 -0.3731  2.2233 -1.4066
17386TIP3   OH273572   6.302   3.677   6.353 -0.4334 -0.5351  0.2924
17386TIP3    H173573   6.221   3.637   6.383  0.1443  0.0507  2.8167
17386TIP3    H273574   6.340   3.717   6.431  1.2445  1.0383 -1.2310
17387TIP3   OH273575   3.424   2.998  11.601  0.4799 -0.2749 -0.1687
17387TIP3    H173576   3.516   2.978  11.619  0.4493 -2.1906 -1.7377
17387TIP3    H273577   3.386   3.013  11.687  2.3423  1.1503  0.4859
17388TIP3   OH273578   0.242   4.907   2.824  0.6646 -0.4075  0.0391
17388TIP3    H173579   0.206   4.990   2.856 -0.4721 -1.3605  1.3265
17388TIP3    H273580   0.336   4.913   2.845  0.1624 -0.5269  2.6772
17389TIP3   OH273581   5.473   6.712   2.183  0.2304 -0.5957 -0.2022
17389TIP3    H173582   5.468   6.795   2.137 -1.8426 -0.3180  0.4360
17389TIP3    H273583   5.464   6.735   2.275  1.2798 -1.3997  0.1140
17390TIP3   OH273584   6.581   1.635   6.103 -0.1965  0.4568 -0.1258
17390TIP3    H173585   6.657   1.603   6.054 -0.3134 -0.4955  0.3065
17390TIP3    H273586   6.549   1.559   6.151 -0.7271  1.1309  0.6063
17391TIP3   OH273587   5.903   4.024   4.905  0.1303 -0.0738 -0.3138
17391TIP3    H173588   5.986   4.071   4.898 -0.4818  0.9980 -0.6173
17391TIP3    H273589   5.838   4.092   4.923 -0.5573 -1.0059  0.8934
17392TIP3   OH273590   4.943   2.622  14.793  0.7670  0.1073 -0.6928
17392TIP3    H173591   4.995   2.670  14.856  2.4665  0.2085 -2.0764
17392TIP3    H273592   4.976   2.532  14.798  1.1791  0.1884 -1.6391
17393TIP3   OH273593   5.454   3.588   1.285  0.1130 -0.3804 -0.0023
17393TIP3    H173594   5.501   3.594   1.203 -0.5603 -0.0003 -0.3726
17393TIP3    H273595   5.432   3.678   1.307 -0.0568 -0.5143  0.3878
17394TIP3   OH273596   2.532   5.265   1.211 -0.1448  0.5459 -1.1142
17394TIP3    H173597   2.618   5.247   1.173  0.8534  0.8117  0.9167
17394TIP3    H273598   2.518   5.194   1.273 -0.2254  1.8616  0.4239
17395TIP3   OH273599   4.102   0.732   4.675  0.5222 -0.2803 -0.2071
17395TIP3    H173600   4.113   0.827   4.682 -1.4944 -0.1077  1.7851
17395TIP3    H273601   4.180   0.702   4.628  0.8394  2.4223 -1.6039
17396TIP3   OH273602   0.226   2.661  16.550 -0.2785 -0.1466  0.1957
17396TIP3    H173603   0.307   2.689  16.592  0.0633 -0.3505 -0.3085
17396TIP3    H273604   0.226   2.566  16.558 -0.5973 -0.1273  0.4246
17397TIP3   OH273605   2.384   0.694   1.165  0.3315  0.6268  0.4115
17397TIP3    H173606   2.327   0.750   1.112  2.3559 -0.0223 -2.6974
17397TIP3    H273607   2.473   0.717   1.137  1.3442 -2.6932  0.4832
17398TIP3   OH273608   0.181   1.474  14.958 -0.1139 -0.6245  0.1682
17398TIP3    H173609   0.271   1.462  14.986 -0.1841 -0.7766  0.3344
17398TIP3    H273610   0.129   1.454  15.037 -0.2666  0.0308  0.2390
17399TIP3   OH273611   3.416   2.903  14.422  0.2173 -0.4229 -0.0116
17399TIP3    H173612   3.336   2.858  14.450  0.0328 -1.2170 -1.6753
17399TIP3    H273613   3.428   2.974  14.485 -1.4353 -0.6968  0.6428
17400TIP3   OH273614   2.596   5.505  13.699 -0.7105  0.3701  0.4528
17400TIP3    H173615   2.678   5.456  13.694 -0.6786  0.4980 -2.3090
17400TIP3    H273616   2.622   5.593  13.726 -0.2997 -0.1887  1.9634
17401TIP3   OH273617   0.360   0.351  16.600  0.0677 -0.0363 -0.1009
17401TIP3    H173618   0.388   0.340  16.509  3.5068 -1.6842  0.9917
17401TIP3    H273619   0.393   0.437  16.626 -1.9405  0.9636 -0.6293
17402TIP3   OH273620   1.369   4.657  15.982 -0.1389 -0.0747 -0.5046
17402TIP3    H173621   1.350   4.750  15.997 -0.2960 -0.1308 -0.3468
17402TIP3    H273622   1.312   4.611  16.045  1.1106 -0.2256  0.5513
17403TIP3   OH273623   1.242   6.738   4.200  0.2572  0.3706  0.2023
17403TIP3    H173624   1.258   6.651   4.163 -0.1574  0.9957 -1.5375
17403TIP3    H273625   1.205   6.788   4.127  0.5906  2.0388  1.1456
17404TIP3   OH273626   6.256   6.343  15.067 -0.3873 -0.5350  0.3096
17404TIP3    H173627   6.275   6.313  14.979  0.4844 -0.1626  0.3575
17404TIP3    H273628   6.336   6.323  15.117 -0.7256 -0.3963  0.9224
17405TIP3   OH273629   4.570   6.009   3.064 -0.0465 -0.5451 -0.2468
17405TIP3    H173630   4.543   6.025   3.154 -0.3330  0.0943 -0.4416
17405TIP3    H273631   4.565   5.914   3.053 -0.5674 -0.5720  0.2336
17406TIP3   OH273632   1.010   6.804  12.340 -0.4089 -1.1136  0.2897
17406TIP3    H173633   1.098   6.786  12.373 -0.0929 -0.1992 -0.0151
17406TIP3    H273634   0.956   6.813  12.419  0.3221  0.9818  0.6119
17407TIP3   OH273635   4.273   1.314  16.539  0.2433  0.5427  0.7176
17407TIP3    H173636   4.201   1.370  16.566 -0.6152  0.4405 -1.1774
17407TIP3    H273637   4.349   1.371  16.537  0.1076  0.8044  2.0963
17408TIP3   OH273638   2.386   5.746   1.281  0.4380  0.1931 -0.5375
17408TIP3    H173639   2.448   5.714   1.347  0.2305  1.6715  0.4317
17408TIP3    H273640   2.327   5.804   1.330 -2.0144 -1.4852 -1.3231
17409TIP3   OH273641   5.961   3.265   3.065 -0.7567  0.3625  0.2490
17409TIP3    H173642   5.978   3.176   3.034 -0.7369  1.1598 -2.2405
17409TIP3    H273643   5.866   3.269   3.077 -0.6108 -0.4180  1.9553
17410TIP3   OH273644   3.607   1.511   2.745  0.0978 -0.1611  0.0620
17410TIP3    H173645   3.635   1.592   2.703 -1.2479  0.2174 -0.1566
17410TIP3    H273646   3.625   1.524   2.838  0.0439  0.3302  0.0056
17411TIP3   OH273647   5.134   0.729   2.481 -0.2050 -0.0512 -0.0199
17411TIP3    H173648   5.045   0.708   2.511  0.1971 -1.0832  0.5176
17411TIP3    H273649   5.141   0.686   2.396  0.1164 -0.8632  0.4066
17412TIP3   OH273650   5.343   1.534   3.018 -0.1064  0.3813  0.2041
17412TIP3    H173651   5.370   1.475   2.948 -0.9064 -1.7547  1.5975
17412TIP3    H273652   5.419   1.538   3.077 -0.2061  0.3912  0.3329
17413TIP3   OH273653   2.611   4.431  16.863  0.8824 -0.3560 -0.4366
17413TIP3    H173654   2.652   4.417  16.778  2.1699 -2.0014  0.3996
17413TIP3    H273655   2.636   4.520  16.888  0.1203  0.3053 -1.9453
17414TIP3   OH273656   2.176   2.017  10.912 -0.3744  0.0657 -0.0502
17414TIP3    H173657   2.148   1.972  10.992  1.3237  1.7266  1.5792
17414TIP3    H273658   2.101   2.069  10.885 -1.0913 -0.8021  0.2369
17415TIP3   OH273659   4.159   4.001   5.123 -0.2600 -0.1226  0.3770
17415TIP3    H173660   4.093   4.012   5.192 -0.4141  0.6194  0.1228
17415TIP3    H273661   4.195   4.089   5.109 -2.0119  0.3262 -2.2114
17416TIP3   OH273662   0.437   0.366  16.349  0.2736 -0.2728 -0.4768
17416TIP3    H173663   0.406   0.358  16.259 -0.3282  0.2608 -0.3256
17416TIP3    H273664   0.483   0.450  16.351 -0.7820  0.3189  0.0001
17417TIP3   OH273665   3.682   5.471  14.405  0.1642  0.1831 -0.3716
17417TIP3    H173666   3.712   5.508  14.322 -0.0598  0.0224 -0.5224
17417TIP3    H273667   3.596   5.510  14.420 -0.5079 -1.0072 -1.0112
17418TIP3   OH273668   3.598   4.293   0.785  0.6020  0.1115  0.5281
17418TIP3    H173669   3.546   4.326   0.713 -0.6562 -1.4658  0.6561
17418TIP3    H273670   3.681   4.267   0.745  0.1218 -0.2306 -0.2617
17419TIP3   OH273671   1.923   2.161  10.851  0.1659 -0.0118  0.0511
17419TIP3    H173672   1.868   2.105  10.905 -1.5391  0.4946 -1.0780
17419TIP3    H273673   1.893   2.250  10.870 -0.3475  0.1909 -1.5402
17420TIP3   OH273674   5.802   2.021  15.972  0.0069 -0.2123  0.1267
17420TIP3    H173675   5.713   1.985  15.970 -0.4796  0.3824  3.7880
17420TIP3    H273676   5.799   2.095  15.910 -0.8128 -2.4088 -2.6572
17421TIP3   OH273677   6.583   6.801  11.000  0.4856  0.1361 -0.0304
17421TIP3    H173678   6.519   6.860  10.959  1.1367  0.8066 -0.0929
17421TIP3    H273679   6.667   6.828  10.964  1.0544  0.6184  1.6181
17422TIP3   OH273680   4.826   3.191  11.696 -0.2903  0.2841 -0.4713
17422TIP3    H173681   4.873   3.153  11.770  0.2332 -0.1357 -1.0013
17422TIP3    H273682   4.762   3.250  11.735  0.6343  0.8138  0.2728
17423TIP3   OH273683   4.300   2.109  16.517  0.9301  0.0512  0.1062
17423TIP3    H173684   4.360   2.037  16.537  0.8526  0.3290  1.4469
17423TIP3    H273685   4.222   2.066  16.483  0.3077 -0.6553  2.2920
17424TIP3   OH273686   6.434   0.771  16.810 -0.1058  0.0281 -0.1451
17424TIP3    H173687   6.516   0.777  16.859 -0.4048 -1.2268  0.5345
17424TIP3    H273688   6.366   0.757  16.876 -0.7269 -0.0852 -0.7841
17425TIP3   OH273689   5.227   1.169  16.401 -0.0100  0.1611  0.0381
17425TIP3    H173690   5.301   1.189  16.458  1.9663 -1.2152 -1.8749
17425TIP3    H273691   5.231   1.074  16.388  0.2160  0.4732 -3.0000
17426TIP3   OH273692   0.563   2.379  14.443  0.0222 -0.2812  0.4466
17426TIP3    H173693   0.563   2.328  14.525 -1.7720  0.0348  0.7020
17426TIP3    H273694   0.544   2.315  14.375 -0.7708 -0.2195  0.5902
17427TIP3   OH273695   4.898   6.164  16.496 -0.2279  0.2406  0.4193
17427TIP3    H173696   4.938   6.104  16.559  0.0818 -1.0059 -0.9268
17427TIP3    H273697   4.806   6.139  16.493  0.1503 -1.0879 -1.1076
17428TIP3   OH273698   4.494   1.979  10.389 -0.1769 -0.0846 -0.4331
17428TIP3    H173699   4.535   1.978  10.476 -0.8125 -0.5536 -0.1359
17428TIP3    H273700   4.482   2.072  10.369 -1.7109  0.0133  0.7898
17429TIP3   OH273701   4.777   3.686  11.788 -0.1647 -0.2988 -0.2551
17429TIP3    H173702   4.798   3.632  11.711 -2.1731 -0.6586 -0.6091
17429TIP3    H273703   4.773   3.623  11.860 -1.3790 -0.4799 -0.4600
17430TIP3   OH273704   4.522   4.247   5.877 -0.5849 -0.5294 -1.0457
17430TIP3    H173705   4.553   4.227   5.965 -1.0661 -1.3469 -1.0555
17430TIP3    H273706   4.581   4.199   5.819 -0.8786 -0.7944 -1.1268
17431TIP3   OH273707   4.237   5.263   1.309  0.6417 -0.0620 -0.1851
17431TIP3    H173708   4.299   5.208   1.357  1.2574  1.1692  0.4933
17431TIP3    H273709   4.258   5.352   1.337 -0.7968  0.4709 -0.7044
17432TIP3   OH273710   2.361   3.868   6.230  0.3118 -0.2734  0.3081
17432TIP3    H173711   2.381   3.776   6.247  0.7848 -0.4611 -1.0952
17432TIP3    H273712   2.267   3.875   6.241 -0.3676 -1.8466 -3.1723
17433TIP3   OH273713   5.333   6.676   1.249  0.9884  0.0735  0.2911
17433TIP3    H173714   5.301   6.725   1.173  1.0532  0.4041  0.4742
17433TIP3    H273715   5.266   6.690   1.316  1.4859  0.7278  0.6610
17434TIP3   OH273716   6.261   1.339  13.788  0.4830  0.3662  0.1130
17434TIP3    H173717   6.338   1.375  13.743  1.3486  0.2862  1.4784
17434TIP3    H273718   6.229   1.270  13.730  0.2847  1.6470 -1.3711
17435TIP3   OH273719   2.101   5.892  14.091  0.5975 -0.2195 -0.1198
17435TIP3    H173720   2.082   5.954  14.021 -0.7207  0.1131  0.4951
17435TIP3    H273721   2.188   5.916  14.122  1.3316 -0.5677 -1.8135
17436TIP3   OH273722   3.273   0.807  15.077 -0.2087  0.1301  1.0982
17436TIP3    H173723   3.323   0.793  14.997  0.3386  1.3033  1.2161
17436TIP3    H273724   3.182   0.810  15.048  0.0964  2.8204  0.1133
17437TIP3   OH273725   3.398   1.477  12.238  0.0358 -0.4644  0.0272
17437TIP3    H173726   3.414   1.387  12.207  0.7531  0.2779 -1.8974
17437TIP3    H273727   3.354   1.465  12.322  0.6126 -2.6259  0.1046
17438TIP3   OH273728   2.887   2.424  16.315 -0.2799 -0.0334 -0.3155
17438TIP3    H173729   2.831   2.466  16.381 -0.5248 -2.1082  0.8934
17438TIP3    H273730   2.827   2.399  16.245  0.1703  3.4724 -2.2199
17439TIP3   OH273731   3.626   3.660  11.970 -0.8284  0.0636 -0.3502
17439TIP3    H173732   3.641   3.636  12.061  1.8997  1.3257 -0.3570
17439TIP3    H273733   3.649   3.582  11.920 -0.6510 -0.0948 -0.0188
17440TIP3   OH273734   3.085   1.225   1.209 -0.2369 -0.2650  0.3275
17440TIP3    H173735   3.027   1.150   1.217 -0.2122 -0.3615 -0.2913
17440TIP3    H273736   3.074   1.253   1.118  1.4037 -0.8889 -0.1044
17441TIP3   OH273737   2.059   2.495   2.292 -0.1391 -0.2280  0.0289
17441TIP3    H173738   1.980   2.503   2.239 -0.2192 -0.2739  0.1393
17441TIP3    H273739   2.033   2.437   2.364  0.3005 -1.1458 -0.5332
17442TIP3   OH273740   5.653   5.451  13.436  0.2667 -0.2321  0.1951
17442TIP3    H173741   5.661   5.371  13.383  2.0591 -0.2879  0.4747
17442TIP3    H273742   5.650   5.522  13.373 -0.7705 -0.4704 -0.0413
17443TIP3   OH273743   3.957   2.202   2.187  0.7373  0.1992 -0.0459
17443TIP3    H173744   4.038   2.181   2.140  1.2160  0.1271  0.7890
17443TIP3    H273745   3.957   2.297   2.193  0.7965  0.1956  0.0136
17444TIP3   OH273746   2.553   5.607   3.614 -0.1021  0.1591  0.0899
17444TIP3    H173747   2.462   5.606   3.588  0.5360 -1.7130 -2.4323
17444TIP3    H273748   2.558   5.545   3.687 -0.6358 -0.8448 -0.7073
17445TIP3   OH273749   4.678   0.806   4.259  0.2258  0.3010  0.9083
17445TIP3    H173750   4.758   0.817   4.310  1.2445 -2.7443  0.1733
17445TIP3    H273751   4.700   0.842   4.173  0.2260  0.8960  1.1497
17446TIP3   OH273752   3.002   0.872  14.233  0.6340  0.0463  0.4807
17446TIP3    H173753   2.908   0.860  14.245  0.2023  2.4752  0.1584
17446TIP3    H273754   3.019   0.844  14.143 -0.3161  1.8868 -0.3228
17447TIP3   OH273755   1.224   5.232   3.551 -0.1929 -0.5427 -0.3736
17447TIP3    H173756   1.295   5.283   3.591 -0.7415 -1.2439  1.5955
17447TIP3    H273757   1.270   5.160   3.506  0.4064 -0.6670  0.3982
17448TIP3   OH273758   6.131   4.841   0.836 -0.5189  0.1038 -0.5057
17448TIP3    H173759   6.117   4.918   0.780  0.6815 -0.2226 -1.2931
17448TIP3    H273760   6.092   4.769   0.787 -1.8436  0.2051  0.3355
17449TIP3   OH273761   5.623   5.784  13.301  0.0946  0.6309  0.2680
17449TIP3    H173762   5.710   5.757  13.271  0.7392  1.3030  1.4774
17449TIP3    H273763   5.568   5.777  13.223  0.7369 -1.8130 -0.0488
17450TIP3   OH273764   2.703   3.746   4.425  0.1565 -0.3436  0.5464
17450TIP3    H173765   2.715   3.653   4.448  1.3721 -0.7555 -1.5717
17450TIP3    H273766   2.693   3.746   4.330  4.0720  1.9753 -0.0638
17451TIP3   OH273767   2.297   2.222   0.519 -0.2059  0.0711  0.2828
17451TIP3    H173768   2.288   2.299   0.464  1.0542  0.1180  0.1158
17451TIP3    H273769   2.230   2.232   0.586  0.9670  2.1841  1.2502
17452TIP3   OH273770   5.578   5.588   2.520 -0.5494 -0.2271 -0.3450
17452TIP3    H173771   5.631   5.585   2.600 -1.1990 -0.3749  0.0893
17452TIP3    H273772   5.635   5.627   2.454 -0.3304  0.8460  0.4495
17453TIP3   OH273773   0.094   4.103  14.338 -0.0709 -0.4861 -0.3507
17453TIP3    H173774   0.015   4.154  14.326  1.3842  1.5788 -1.8393
17453TIP3    H273775   0.121   4.121  14.428 -0.8221 -0.5643 -0.0995
17454TIP3   OH273776   2.033   0.258   0.465 -0.6720 -0.4379  0.4383
17454TIP3    H173777   2.041   0.302   0.550 -0.4703  4.3097 -1.6936
17454TIP3    H273778   2.120   0.266   0.426 -1.1612 -1.0708 -0.8279
17455TIP3   OH273779   1.604   3.566   1.315  0.5837  0.3815 -0.2319
17455TIP3    H173780   1.553   3.601   1.242 -0.5805  0.5824  0.6542
17455TIP3    H273781   1.584   3.473   1.316  0.9299  0.3045 -0.4255
17456TIP3   OH273782   5.826   3.762  17.054 -0.1848  0.5127 -0.1088
17456TIP3    H173783   5.832   3.670  17.028  0.5287  0.5880 -0.2561
17456TIP3    H273784   5.854   3.810  16.976 -0.4568  0.8485 -0.0004
17457TIP3   OH273785   4.191   1.779  15.451 -0.5308 -0.6382  0.0358
17457TIP3    H173786   4.124   1.711  15.443 -0.1705 -1.0149  0.1857
17457TIP3    H273787   4.269   1.732  15.479 -0.4937 -0.0422  0.9638
17458TIP3   OH273788   1.626   3.664  14.081  0.1550  0.2005 -0.6407
17458TIP3    H173789   1.563   3.612  14.031 -1.0265  1.8677 -0.9413
17458TIP3    H273790   1.644   3.610  14.159  0.1577 -1.3273 -1.6504
17459TIP3   OH273791   2.336   2.372  14.833 -0.2359 -0.1646  0.4773
17459TIP3    H173792   2.271   2.411  14.774  0.1410 -0.8751 -0.4416
17459TIP3    H273793   2.322   2.416  14.917 -2.5174 -0.9349  0.5749
17460TIP3   OH273794   0.183   5.444   5.347 -0.1886  0.4565  0.0616
17460TIP3    H173795   0.131   5.422   5.270  0.0177 -0.4870  0.1806
17460TIP3    H273796   0.274   5.433   5.320 -0.1273 -0.6573  0.6364
17461TIP3   OH273797   6.078   6.329   3.899  0.2853  0.0286  0.2664
17461TIP3    H173798   6.047   6.293   3.815 -0.5696 -0.3452  0.7269
17461TIP3    H273799   6.149   6.270   3.925 -0.4830 -0.7972  0.5543
17462TIP3   OH273800   6.068   3.817   5.109 -0.6688  0.4599  0.1096
17462TIP3    H173801   6.038   3.832   5.019 -0.0011  0.9391 -0.0361
17462TIP3    H273802   6.053   3.900   5.153 -1.5329  0.0537  0.6054
17463TIP3   OH273803   0.442   1.817  16.195  0.0291 -0.5043  0.2072
17463TIP3    H173804   0.439   1.908  16.224  0.0764 -0.6173  0.5737
17463TIP3    H273805   0.438   1.822  16.099 -0.9122 -0.1669  0.2562
17464TIP3   OH273806   1.243   4.204   1.386 -0.7913 -0.0174  0.4952
17464TIP3    H173807   1.224   4.298   1.388 -0.5360  0.1443 -2.1401
17464TIP3    H273808   1.313   4.193   1.451 -0.9167  1.5635  0.9536
17465TIP3   OH273809   1.007   3.638  11.148 -0.0976  0.6642 -0.1951
17465TIP3    H173810   1.055   3.722  11.147  0.7733  0.1791 -0.7982
17465TIP3    H273811   1.059   3.583  11.207  0.5613 -0.1205 -1.4666
17466TIP3   OH273812   2.781   0.049   0.721 -0.2007 -0.0719  0.1767
17466TIP3    H173813   2.811   0.135   0.752  0.7725 -0.3783  0.1347
17466TIP3    H273814   2.860  -0.005   0.722 -0.7055 -0.8332 -0.2631
17467TIP3   OH273815   3.197   1.073   4.215  0.2981 -0.4226 -0.5655
17467TIP3    H173816   3.133   1.136   4.249  0.1662 -1.6706  1.6971
17467TIP3    H273817   3.195   1.085   4.120  0.2551  2.9137 -0.2550
17468TIP3   OH273818   3.997   6.156   1.450  0.6389  0.5156  0.2381
17468TIP3    H173819   3.942   6.210   1.393  0.4392  0.3149  0.2389
17468TIP3    H273820   3.988   6.196   1.537  0.4434  0.4500  0.2501
17469TIP3   OH273821   5.046   3.948   2.001 -0.4336 -0.2274  0.0040
17469TIP3    H173822   5.105   4.008   2.047 -1.0912 -0.2702  0.9360
17469TIP3    H273823   4.959   3.989   2.008 -0.8325 -1.0973  0.3433
17470TIP3   OH273824   0.089   3.498   0.881  0.3427  0.0213  0.1100
17470TIP3    H173825   0.095   3.495   0.976 -0.3133  0.6417  0.1820
17470TIP3    H273826   0.010   3.449   0.860 -1.1307  2.2538  0.1165
17471TIP3   OH273827   4.875   6.487  13.423 -0.2469 -0.5344  0.2216
17471TIP3    H173828   4.827   6.533  13.353 -0.3604  0.9411  1.2247
17471TIP3    H273829   4.929   6.423  13.377 -0.5134  0.2220 -1.2049
17472TIP3   OH273830   1.401   4.511   4.704  0.0419  0.1850  0.3063
17472TIP3    H173831   1.445   4.465   4.633 -0.4652 -0.1245  0.1885
17472TIP3    H273832   1.392   4.445   4.773 -1.7713 -0.2653 -0.3112
17473TIP3   OH273833   1.084   0.106   5.403 -0.1972 -0.9209  0.5399
17473TIP3    H173834   1.021   0.084   5.471  0.0518  0.5895  1.2985
17473TIP3    H273835   1.092   0.027   5.351 -0.9757 -1.8647  1.8120
17474TIP3   OH273836   2.630   5.506   5.254 -0.0662 -0.3057 -0.0713
17474TIP3    H173837   2.676   5.453   5.320 -1.4360 -1.1848  0.1996
17474TIP3    H273838   2.665   5.475   5.170  1.4778  0.6237  0.1759
17475TIP3   OH273839   5.503   0.501  16.821 -0.6391  0.0830  0.3840
17475TIP3    H173840   5.470   0.591  16.814 -0.1862  0.3268  1.2748
17475TIP3    H273841   5.509   0.485  16.915 -1.4240 -1.1574  0.2383
17476TIP3   OH273842   6.296   3.075   2.350 -0.0760 -0.4240 -0.0290
17476TIP3    H173843   6.344   3.152   2.382  0.9632 -1.6015  1.3832
17476TIP3    H273844   6.332   3.059   2.263 -0.1276  0.5364 -0.2338
17477TIP3   OH273845   1.570   1.111   5.271 -0.1214 -0.0983  0.3082
17477TIP3    H173846   1.509   1.129   5.343  0.2842 -1.0826  0.9352
17477TIP3    H273847   1.566   1.016   5.261  0.3328 -0.0318 -0.5257
17478TIP3   OH273848   6.809   0.624  14.395  0.0423  0.4810 -0.0931
17478TIP3    H173849   6.828   0.551  14.335  0.1947 -0.9456  1.6150
17478TIP3    H273850   6.769   0.690  14.339  2.3907  0.2399 -2.2655
17479TIP3   OH273851   6.802   0.109   0.210 -0.0355  0.3289  0.2448
17479TIP3    H173852   6.713   0.075   0.216  0.0832  0.0712  0.6192
17479TIP3    H273853   6.858   0.033   0.226  0.3238 -0.0432 -2.3602
17480TIP3   OH273854   0.378   2.695   2.786 -0.4593 -0.0794 -0.0749
17480TIP3    H173855   0.442   2.738   2.843  0.9926 -0.3299 -1.4581
17480TIP3    H273856   0.352   2.763   2.724 -2.5092  0.3706  1.2019
17481TIP3   OH273857   4.311   4.469  12.435 -0.6571 -0.0112 -0.0098
17481TIP3    H173858   4.354   4.473  12.350  1.1540  1.1146  0.8936
17481TIP3    H273859   4.237   4.528  12.428 -0.2987  0.3680 -0.6789
17482TIP3   OH273860   5.216   0.535   4.111 -0.3810 -0.1565 -0.5961
17482TIP3    H173861   5.127   0.501   4.106 -0.9490  1.1859 -0.0595
17482TIP3    H273862   5.210   0.609   4.171  0.4356  2.0041 -2.9974
17483TIP3   OH273863   1.314   6.291  12.245  0.5570  0.4540 -0.4588
17483TIP3    H173864   1.395   6.324  12.206  0.9756  0.2429  0.2027
17483TIP3    H273865   1.343   6.242  12.323 -0.1408 -0.3641 -0.6914
17484TIP3   OH273866   3.121   5.904   3.507 -0.4676  0.3342  0.6670
17484TIP3    H173867   3.186   5.885   3.439 -1.0378  1.0683 -0.1086
17484TIP3    H273868   3.141   5.993   3.536 -1.5473  0.8750 -0.1245
17485TIP3   OH273869   6.340   0.137  12.537  0.6752 -0.0576 -0.6442
17485TIP3    H173870   6.285   0.108  12.464 -0.0559  0.4810 -0.3218
17485TIP3    H273871   6.283   0.194  12.589  0.9633 -0.9573  0.7189
17486TIP3   OH273872   4.567   4.298  16.723 -0.1205 -0.0648 -1.0066
17486TIP3    H173873   4.596   4.226  16.779  0.1244 -0.5875 -1.7871
17486TIP3    H273874   4.631   4.300  16.651  0.1749  1.2665 -0.7306
17487TIP3   OH273875   2.992   0.374  15.398  0.6860 -0.0330  0.2834
17487TIP3    H173876   3.004   0.457  15.445  0.1181  0.1505  0.1124
17487TIP3    H273877   3.080   0.337  15.392  0.8383  0.1838  1.0400
17488TIP3   OH273878   5.613   2.783   4.014  0.3933  0.0011 -0.2471
17488TIP3    H173879   5.669   2.776   3.937  1.0819  0.9577  0.1562
17488TIP3    H273880   5.661   2.738   4.083  0.4661  0.4447 -0.0063
17489TIP3   OH273881   3.533   3.246  12.944  0.4203  0.2538  0.2651
17489TIP3    H173882   3.508   3.209  12.859  0.2676  1.6796 -0.3512
17489TIP3    H273883   3.629   3.248  12.942  0.4161  0.3066  0.1145
17490TIP3   OH273884   1.886   0.922   1.677 -0.7162  0.1507 -0.6587
17490TIP3    H173885   1.904   0.855   1.743  0.6813 -0.7351 -1.8639
17490TIP3    H273886   1.797   0.904   1.648 -1.2265  0.3516  0.7232
17491TIP3   OH273887   5.207   5.036  16.746  0.4592 -0.3169 -0.4918
17491TIP3    H173888   5.230   5.050  16.654  1.3254 -0.0689 -0.2418
17491TIP3    H273889   5.146   5.106  16.767  2.9223  1.8023  0.0776
17492TIP3   OH273890   3.975   0.773  13.475  0.4342 -0.0619  0.1557
17492TIP3    H173891   4.043   0.839  13.487  0.2290 -0.3059  4.0316
17492TIP3    H273892   4.023   0.691  13.461  0.8351  0.2047 -0.0427
17493TIP3   OH273893   3.300   3.939   1.420 -0.0170  0.2085 -0.1449
17493TIP3    H173894   3.212   3.903   1.407  0.1735 -0.4885  0.4692
17493TIP3    H273895   3.323   3.975   1.334 -1.3846  1.5061 -0.0107
17494TIP3   OH273896   6.076   4.278  15.928  0.0648 -0.2873 -0.1370
17494TIP3    H173897   6.154   4.314  15.884  0.7136  1.1110  2.0133
17494TIP3    H273898   6.005   4.294  15.866  0.9139  1.7303 -0.6837
17495TIP3   OH273899   0.932   4.045   1.513 -0.1344 -0.8763  0.3145
17495TIP3    H173900   0.867   3.976   1.501 -1.7678  0.7924 -1.2173
17495TIP3    H273901   0.999   4.027   1.447 -0.9683 -0.5882 -0.6373
17496TIP3   OH273902   2.606   2.752   2.910  0.4721 -0.3964 -0.4012
17496TIP3    H173903   2.640   2.775   2.997  3.3392 -2.2788 -0.8819
17496TIP3    H273904   2.606   2.834   2.861 -0.7728  0.6164  1.2041
17497TIP3   OH273905   3.979   5.771   2.074 -0.9127 -0.1468  0.4530
17497TIP3    H173906   4.068   5.744   2.055 -1.1157 -0.0264 -0.7239
17497TIP3    H273907   3.983   5.867   2.074 -0.7361 -0.1183  2.0019
17498TIP3   OH273908   4.473   5.453  15.083 -0.0241  0.5022 -0.2058
17498TIP3    H173909   4.398   5.393  15.091 -1.0251  1.8965  2.0379
17498TIP3    H273910   4.433   5.540  15.074  1.3810  0.9871 -2.6844
17499TIP3   OH273911   5.801   4.471   1.062  0.2910  0.8435  0.3892
17499TIP3    H173912   5.744   4.546   1.048  1.2071  1.3851 -0.5937
17499TIP3    H273913   5.867   4.478   0.993  0.5784 -0.6913  0.4838
17500TIP3   OH273914   3.903   5.760   4.079  0.2018 -0.7455  0.0806
17500TIP3    H173915   3.971   5.707   4.036  0.2969 -0.4021 -0.1974
17500TIP3    H273916   3.949   5.838   4.110 -0.1543 -0.2805 -0.5410
17501TIP3   OH273917   1.088   4.088  16.672  0.2697 -0.2956 -0.0963
17501TIP3    H173918   1.127   4.169  16.707  0.5471  0.2065 -1.4972
17501TIP3    H273919   1.163   4.033  16.650  0.1047 -0.5424 -0.0431
17502TIP3   OH273920   5.759   2.331  15.161 -0.7207 -0.1507 -0.5733
17502TIP3    H173921   5.830   2.282  15.203 -0.3061 -0.4979 -1.6314
17502TIP3    H273922   5.803   2.404  15.118 -1.3312  1.1653  0.9480
17503TIP3   OH273923   5.085   5.745  11.882  0.2292 -0.3907  0.1827
17503TIP3    H173924   5.159   5.799  11.855 -0.0562  0.6783  1.3876
17503TIP3    H273925   5.046   5.714  11.801  1.1440  0.2193 -0.5056
17504TIP3   OH273926   2.986   6.712   4.725  0.4127  0.8916 -0.4684
17504TIP3    H173927   2.908   6.746   4.770 -0.0943 -1.2219  0.3642
17504TIP3    H273928   2.953   6.643   4.668  1.5096  1.0071 -1.2662
17505TIP3   OH273929   1.454   3.839  11.486 -0.0807  0.1652 -0.0819
17505TIP3    H173930   1.461   3.902  11.414  0.1190  0.4489  0.1805
17505TIP3    H273931   1.360   3.831  11.501 -0.1251  0.0857 -0.3905
17506TIP3   OH273932   6.232   6.487   4.271  0.0106 -0.2850 -0.9211
17506TIP3    H173933   6.219   6.392   4.271  1.4236 -0.4919 -0.7293
17506TIP3    H273934   6.206   6.515   4.359 -0.6979 -0.4410 -1.0740
17507TIP3   OH273935   5.453   2.033  10.705 -0.0003 -0.2714  0.1378
17507TIP3    H173936   5.374   1.980  10.703 -0.8019  0.8715  0.4856
17507TIP3    H273937   5.485   2.031  10.614 -0.8105 -0.1958 -0.1624
17508TIP3   OH273938   4.356   1.481   4.358 -0.0782 -0.2949  0.4111
17508TIP3    H173939   4.374   1.574   4.347 -1.6481  0.4003  3.0085
17508TIP3    H273940   4.438   1.438   4.334  0.6669  1.7092 -0.9027
17509TIP3   OH273941   4.134   5.815  16.997  0.1147  0.1631 -0.3046
17509TIP3    H173942   4.069   5.884  16.980 -1.8017 -1.2739  0.7425
17509TIP3    H273943   4.125   5.756  16.922  0.2259 -0.0390 -0.1582
17510TIP3   OH273944   4.600   0.662   1.649  0.2472 -0.2241  0.4823
17510TIP3    H173945   4.538   0.610   1.700 -0.7562  0.7319  0.2722
17510TIP3    H273946   4.614   0.612   1.569 -1.5285  0.2814 -0.1915
17511TIP3   OH273947   1.411   2.225  15.295 -0.0901 -0.1168  0.1948
17511TIP3    H173948   1.476   2.294  15.308 -0.8761  0.5552  0.6489
17511TIP3    H273949   1.402   2.184  15.380 -1.9275  1.3242  0.7815
17512TIP3   OH273950   6.583   5.186  16.254 -0.2981  0.2482 -0.4112
17512TIP3    H173951   6.567   5.215  16.344  0.3503  2.2647 -0.9020
17512TIP3    H273952   6.602   5.266  16.206  2.8457 -1.0728 -1.6226
17513TIP3   OH273953   2.682   5.368  11.687  0.1401 -0.3048  0.0241
17513TIP3    H173954   2.725   5.282  11.685 -0.1155 -0.5523  2.4799
17513TIP3    H273955   2.730   5.418  11.753 -1.5274  0.3842  0.7813
17514TIP3   OH273956   5.517   5.918  12.069 -0.2376  0.4299  0.0285
17514TIP3    H173957   5.505   6.008  12.098  1.8126  0.6941  0.2238
17514TIP3    H273958   5.566   5.925  11.987 -1.0061 -0.4778 -0.5206
17515TIP3   OH273959   5.463   4.703  12.974 -0.2355  0.3561  0.4991
17515TIP3    H173960   5.425   4.789  12.957 -2.4548 -0.5209  0.6588
17515TIP3    H273961   5.388   4.646  12.992  1.1880 -1.5003  0.9927
17516TIP3   OH273962   4.780   4.355   3.059  0.0502 -0.5644 -0.7600
17516TIP3    H173963   4.715   4.286   3.073  0.1410 -0.6537 -0.7814
17516TIP3    H273964   4.741   4.433   3.100 -0.0321 -0.6384 -0.6970
17517TIP3   OH273965   2.779   4.316  12.343  0.5439 -0.4949  0.6555
17517TIP3    H173966   2.796   4.385  12.280 -1.9268  0.7594  1.2136
17517TIP3    H273967   2.721   4.255  12.297 -0.1371 -0.3075  1.2393
17518TIP3   OH273968   1.171   2.527   2.823  0.0389 -0.4791  0.5126
17518TIP3    H173969   1.258   2.515   2.786 -0.5227 -0.7471 -0.8091
17518TIP3    H273970   1.171   2.617   2.857  0.8858 -0.5469  0.6902
17519TIP3   OH273971   0.162   4.889  14.332  0.2002  0.2341 -0.4403
17519TIP3    H173972   0.110   4.954  14.379  3.0259  1.5151  1.1188
17519TIP3    H273973   0.170   4.923  14.244 -1.0762  0.2750 -0.5657
17520TIP3   OH273974   0.678   1.464   2.055 -0.5513  0.3259 -0.2550
17520TIP3    H173975   0.679   1.470   2.150 -2.0868  1.0973 -0.2520
17520TIP3    H273976   0.594   1.424   2.034  1.2370 -3.3589 -1.2092
17521TIP3   OH273977   5.750   3.044   1.691  0.0291  0.1324 -0.2416
17521TIP3    H173978   5.655   3.047   1.702  0.1459  1.9461  0.7417
17521TIP3    H273979   5.785   3.070   1.776  1.4266 -0.9937 -0.4398
17522TIP3   OH273980   4.059   6.283   3.877 -0.2114  0.2457 -0.2619
17522TIP3    H173981   3.989   6.258   3.937  0.2603 -0.0778  0.1664
17522TIP3    H273982   4.096   6.200   3.847  0.5455  0.4014  0.1939
17523TIP3   OH273983   0.521   0.696   2.048 -0.3923  0.3095 -0.0007
17523TIP3    H173984   0.551   0.722   2.135  1.8248  1.0340 -0.9083
17523TIP3    H273985   0.451   0.633   2.065  0.5831 -0.2719  2.3312
17524TIP3   OH273986   4.379   1.665   1.439  0.3139 -0.0891  0.0824
17524TIP3    H173987   4.347   1.643   1.526  1.7855 -2.0355  0.2006
17524TIP3    H273988   4.450   1.728   1.455  0.7033 -0.5810  0.3265
17525TIP3   OH273989   2.535   4.645  13.362 -0.3476  0.0535 -0.5780
17525TIP3    H173990   2.546   4.564  13.314  0.8716 -0.7579  0.9532
17525TIP3    H273991   2.446   4.674  13.343 -0.7503 -1.5690 -1.2592
17526TIP3   OH273992   3.314   0.425   1.297 -0.4540 -0.4542 -1.1007
17526TIP3    H173993   3.358   0.348   1.260  1.5984  0.8008 -1.4598
17526TIP3    H273994   3.276   0.394   1.379 -1.3682 -2.2851 -2.1629
17527TIP3   OH273995   2.732   2.172   3.388  0.6811 -0.4868  0.0723
17527TIP3    H173996   2.643   2.203   3.403 -0.2985 -3.2639  0.5514
17527TIP3    H273997   2.722   2.088   3.344  3.1009 -0.6179 -0.3899
17528TIP3   OH273998   0.416   0.169   6.647  0.0630 -0.5059  0.0326
17528TIP3    H173999   0.329   0.209   6.635  0.5473  0.9280  1.0599
17528TIP3    H274000   0.437   0.132   6.561 -0.3001  1.7494 -1.1088
17529TIP3   OH274001   6.681   6.646  16.167 -0.7190 -0.3456 -0.0680
17529TIP3    H174002   6.676   6.672  16.259  0.5305  1.7020 -0.5197
17529TIP3    H274003   6.645   6.557  16.166 -1.9268  0.0152  2.1856
17530TIP3   OH274004   2.909   0.555   4.764 -0.3717  0.1783  0.5340
17530TIP3    H174005   2.860   0.478   4.736  0.7100 -0.0086 -0.9440
17530TIP3    H274006   2.918   0.608   4.685 -0.9428  1.7648  1.4905
17531TIP3   OH274007   5.054   4.143  16.372  0.3618 -0.6904  0.1173
17531TIP3    H174008   4.987   4.075  16.370  0.0663 -0.4350 -2.1351
17531TIP3    H274009   5.069   4.163  16.279  2.5323  0.2622  0.6170
17532TIP3   OH274010   2.634   0.018   2.405 -0.6589  0.1822  0.6103
17532TIP3    H174011   2.695   0.087   2.429 -0.2735 -0.0974  0.4378
17532TIP3    H274012   2.643   0.009   2.310 -1.3223  0.4773  0.5158
17533TIP3   OH274013   5.374   5.242   4.463 -0.4559 -0.2282 -0.2973
17533TIP3    H174014   5.390   5.185   4.388 -0.8538  0.2902 -0.7765
17533TIP3    H274015   5.281   5.262   4.460 -0.8716 -1.5853  1.3328
17534TIP3   OH274016   6.140   4.971  14.903 -0.0098 -0.2049  0.0244
17534TIP3    H174017   6.149   4.876  14.902  1.5997 -0.0963  0.7145
17534TIP3    H274018   6.047   4.986  14.915 -0.5587 -1.6642 -1.9059
17535TIP3   OH274019   5.854   4.751   2.604  0.0852 -0.0237 -0.1369
17535TIP3    H174020   5.949   4.745   2.600  0.0295 -1.2184 -0.1870
17535TIP3    H274021   5.835   4.771   2.696  0.3683 -0.4966  0.0320
17536TIP3   OH274022   6.048   1.050  14.772  0.7479 -0.0244  0.0946
17536TIP3    H174023   6.113   1.110  14.808  2.0878 -0.6951 -1.0803
17536TIP3    H274024   6.038   0.982  14.839  0.3356  0.7138  0.7944
17537TIP3   OH274025   2.062   2.916  14.734 -0.0827  0.1748  0.3456
17537TIP3    H174026   2.019   2.967  14.666  1.1768  0.8855  0.0449
17537TIP3    H274027   2.120   2.978  14.778  1.1078 -0.8468  0.3084
17538TIP3   OH274028   6.461   4.700   2.383  0.2099 -0.0878  0.2285
17538TIP3    H174029   6.430   4.691   2.292  2.6446  0.2178 -0.7227
17538TIP3    H274030   6.428   4.622   2.427  0.0305 -0.9170 -1.2784
17539TIP3   OH274031   2.924   5.163   0.678 -0.2151  0.2401 -0.3770
17539TIP3    H174032   2.860   5.093   0.678  1.3194 -1.2580 -1.4650
17539TIP3    H274033   3.007   5.120   0.697  0.6041  1.9832  0.2496
17540TIP3   OH274034   3.798   3.429  15.425 -0.8059 -0.2914  0.3713
17540TIP3    H174035   3.737   3.424  15.499  1.5843 -0.7916  2.4711
17540TIP3    H274036   3.801   3.339  15.392 -2.1494  0.0025 -0.6577
17541TIP3   OH274037   3.697   5.516   1.147  0.2985  0.6294  0.2026
17541TIP3    H174038   3.781   5.558   1.129 -0.6468  2.7710  0.4156
17541TIP3    H274039   3.708   5.426   1.118  2.4675  1.0137 -0.3258
17542TIP3   OH274040   3.777   4.550  13.293  0.4674  0.5501 -0.0058
17542TIP3    H174041   3.698   4.602  13.307 -0.1922 -0.4510  0.1005
17542TIP3    H274042   3.783   4.495  13.371  1.3383  0.6949  0.0370
17543TIP3   OH274043   2.934   5.799  16.568  0.0015  0.5861  0.8551
17543TIP3    H174044   2.951   5.737  16.497 -2.0068  1.6507 -0.6870
17543TIP3    H274045   2.927   5.884  16.524  1.2071  1.7014  2.7066
17544TIP3   OH274046   5.507   3.677  12.593 -0.5551 -0.5391  0.1470
17544TIP3    H174047   5.509   3.742  12.663 -0.0685 -0.1859 -0.1923
17544TIP3    H274048   5.487   3.727  12.514 -4.1262 -1.2699  0.4033
17545TIP3   OH274049   6.688   6.553  12.145 -0.0898 -0.0212  0.4023
17545TIP3    H174050   6.655   6.464  12.132 -0.3690  0.2228 -0.6158
17545TIP3    H274051   6.630   6.591  12.211 -0.0715 -0.5342  0.7207
17546TIP3   OH274052   1.647   1.112   4.171 -0.6720  0.1601 -0.2473
17546TIP3    H174053   1.564   1.067   4.152  0.6798 -3.3589  1.2305
17546TIP3    H274054   1.715   1.049   4.148  1.6790  2.7588 -1.0149
17547TIP3   OH274055   0.913   0.379  13.636  0.3393 -0.0207  0.1712
17547TIP3    H174056   0.932   0.399  13.544  0.5990 -0.4488  0.1311
17547TIP3    H274057   0.879   0.289  13.634 -1.1821  0.5172  0.3035
17548TIP3   OH274058   4.625   5.847   5.925  0.4809  0.0058 -0.2861
17548TIP3    H174059   4.678   5.804   5.859  0.9185 -0.3189  0.2663
17548TIP3    H274060   4.663   5.935   5.934 -1.0041  0.9003 -2.1031
17549TIP3   OH274061   0.458   6.153  16.579 -0.1095  0.0529  0.5507
17549TIP3    H174062   0.462   6.058  16.585  2.1036  0.0101 -0.5077
17549TIP3    H274063   0.368   6.175  16.604 -0.7440 -2.3033  0.5972
17550TIP3   OH274064   2.919   5.818  12.409  0.0591  0.6082  0.5344
17550TIP3    H174065   2.882   5.864  12.485 -3.2047  0.8373 -1.0345
17550TIP3    H274066   2.850   5.758  12.381  3.0847 -3.3366  0.7442
17551TIP3   OH274067   2.415   4.569   5.783 -0.1061 -0.6277  0.2221
17551TIP3    H174068   2.350   4.635   5.757  0.9111  1.6595  2.9193
17551TIP3    H274069   2.466   4.553   5.704 -1.0797  1.0137 -0.7985
17552TIP3   OH274070   0.297   1.085  13.281 -0.3818  0.1772 -0.2011
17552TIP3    H174071   0.341   1.156  13.234  1.0695 -0.5787 -0.0364
17552TIP3    H274072   0.227   1.058  13.222 -0.0195  0.7558 -0.9205
17553TIP3   OH274073   4.177   5.261   3.324  0.2044 -0.6795 -0.2996
17553TIP3    H174074   4.265   5.247   3.290  1.2308  2.4653  0.6737
17553TIP3    H274075   4.154   5.350   3.295 -0.3715  0.7587  3.7913
17554TIP3   OH274076   3.452   0.326  12.997  0.0468 -0.1572 -0.0696
17554TIP3    H174077   3.466   0.330  12.902 -0.5260 -2.3396 -0.3009
17554TIP3    H274078   3.524   0.377  13.034 -0.0108  1.1772 -1.6664
17555TIP3   OH274079   6.803   1.720   4.524  0.2037 -0.1719  1.1013
17555TIP3    H174080   6.802   1.811   4.497  0.0076 -0.2371  0.8903
17555TIP3    H274081   6.874   1.715   4.588  0.3203  0.0935  0.9938
17556TIP3   OH274082   6.287   0.523  11.155  0.0466  0.1576  1.3257
17556TIP3    H174083   6.355   0.547  11.218  2.1713 -0.2895 -0.6664
17556TIP3    H274084   6.279   0.599  11.097  0.8331 -0.7751 -0.0525
17557TIP3   OH274085   1.750   3.471  16.291  0.3762 -0.6045  0.1313
17557TIP3    H174086   1.674   3.417  16.313 -0.0936 -0.1701 -0.3765
17557TIP3    H274087   1.730   3.557  16.328  0.5679 -0.4604 -0.0940
17558TIP3   OH274088   1.111   5.795   0.909 -0.1293 -0.2429  0.5538
17558TIP3    H174089   1.020   5.791   0.940  0.1011 -0.6627  1.2009
17558TIP3    H274090   1.111   5.862   0.841 -1.0398 -0.6193  0.1714
17559TIP3   OH274091   0.477   2.451   6.298 -0.5123  0.3708 -0.1249
17559TIP3    H174092   0.438   2.430   6.383 -0.6821 -0.8060 -0.4712
17559TIP3    H274093   0.402   2.474   6.243 -0.3116  2.2445  0.3085
17560TIP3   OH274094   5.819   1.722  14.619 -0.1524  0.1482  0.0106
17560TIP3    H174095   5.771   1.751  14.697 -0.0732  0.1021  0.0762
17560TIP3    H274096   5.892   1.783  14.610 -2.2164  2.5520 -2.1833
17561TIP3   OH274097   0.661   2.039  16.040  0.4438  0.6307  0.1297
17561TIP3    H174098   0.698   2.027  16.127 -3.8673  0.4969  2.2127
17561TIP3    H274099   0.651   1.951  16.005 -0.5772  0.4308  0.8805
17562TIP3   OH274100   2.170   4.280  11.224  0.3656  0.3656  0.6834
17562TIP3    H174101   2.167   4.340  11.149  2.1390 -1.2624 -0.7934
17562TIP3    H274102   2.193   4.195  11.186  3.4233 -0.1217  3.2425
17563TIP3   OH274103   1.492   0.897  14.555  0.3239 -0.9965  0.1646
17563TIP3    H174104   1.525   0.812  14.529  0.5169 -1.1387  0.8436
17563TIP3    H274105   1.565   0.957  14.541 -0.4858 -0.5022 -2.4423
17564TIP3   OH274106   4.047   3.860   5.914 -0.1578  0.5063 -0.4305
17564TIP3    H174107   4.037   3.791   5.849 -1.7118 -0.4591  0.7570
17564TIP3    H274108   4.128   3.905   5.890  1.8295 -2.7319 -0.3224
17565TIP3   OH274109   6.672   1.532  12.631 -0.3788 -0.3666 -0.7300
17565TIP3    H174110   6.706   1.497  12.549  4.7061  0.2801  0.7722
17565TIP3    H274111   6.704   1.471  12.698  0.4595  1.9537  1.1461
17566TIP3   OH274112   2.231   3.337   2.805  0.1351 -0.1425 -0.1066
17566TIP3    H174113   2.319   3.300   2.810  0.3464  0.3203 -0.3368
17566TIP3    H274114   2.214   3.370   2.893  0.9256  1.4007 -0.4961
17567TIP3   OH274115   4.487   2.110   1.499 -0.2008 -0.1554 -0.2439
17567TIP3    H174116   4.553   2.048   1.468 -0.3177  0.5856 -2.0798
17567TIP3    H274117   4.403   2.068   1.479 -0.2780  0.4352 -1.2120
17568TIP3   OH274118   3.640   3.547  14.546 -0.3205  0.3040  0.5082
17568TIP3    H174119   3.604   3.596  14.620 -0.2085  0.2545  0.5977
17568TIP3    H274120   3.604   3.459  14.557 -1.0131  0.5172 -0.0011
17569TIP3   OH274121   1.671   0.114  15.029  0.1712 -0.4607 -0.1653
17569TIP3    H174122   1.643   0.148  15.113  1.1995  1.5473 -0.5562
17569TIP3    H274123   1.712   0.030  15.049  1.8369  0.6790  1.6234
17570TIP3   OH274124   2.619   5.729   1.155  0.4375  0.0796  0.1155
17570TIP3    H174125   2.659   5.796   1.099 -0.8849  2.9945  2.3686
17570TIP3    H274126   2.529   5.760   1.168 -1.3961 -3.9742 -1.3174
17571TIP3   OH274127   2.747   0.507  15.687 -0.0267 -0.6833 -0.5052
17571TIP3    H174128   2.778   0.592  15.718 -1.1481 -0.1824 -0.7150
17571TIP3    H274129   2.735   0.519  15.592 -1.0369 -0.7881 -0.4053
17572TIP3   OH274130   3.437   0.475   0.392  0.2471  0.1415  0.4926
17572TIP3    H174131   3.483   0.553   0.359  0.1813 -0.3988 -0.9325
17572TIP3    H274132   3.447   0.410   0.323  0.0058 -1.0240  1.5188
17573TIP3   OH274133   3.300   5.189   4.510 -0.1192 -0.0212  0.2966
17573TIP3    H174134   3.261   5.126   4.570 -0.9521 -0.0519 -0.2566
17573TIP3    H274135   3.334   5.135   4.438 -1.7219  0.1933 -0.6725
17574TIP3   OH274136   1.900   2.971   4.801 -0.1237  0.1229 -0.0838
17574TIP3    H174137   1.815   2.952   4.840 -0.1871 -0.8748 -0.6673
17574TIP3    H274138   1.963   2.924   4.856 -0.2307 -1.4575 -1.2203
17575TIP3   OH274139   1.934   6.798   0.492  0.3148 -0.2685 -0.1190
17575TIP3    H174140   1.977   6.783   0.407  1.1799 -0.5665  0.3648
17575TIP3    H274141   1.970   6.881   0.522 -0.5588  0.2178 -0.3756
17576TIP3   OH274142   4.809   3.197  13.457  0.0622 -0.8832 -0.3445
17576TIP3    H174143   4.805   3.109  13.420 -0.3454 -0.8380 -0.4057
17576TIP3    H274144   4.729   3.205  13.509 -0.0524 -0.4369 -0.5851
17577TIP3   OH274145   4.268   5.648  11.958  0.0167 -0.1653 -0.3117
17577TIP3    H174146   4.355   5.627  11.990 -0.0206  0.9547  0.5807
17577TIP3    H274147   4.279   5.658  11.863  0.7883 -0.3296 -0.2463
17578TIP3   OH274148   5.040   5.500   0.911  0.2348 -0.2943  0.3113
17578TIP3    H174149   5.021   5.585   0.950 -1.7412 -1.1047  1.2755
17578TIP3    H274150   5.078   5.449   0.982 -0.2821 -0.7530  0.2710
17579TIP3   OH274151   1.941   2.798   1.811 -0.2953  0.0684 -0.8698
17579TIP3    H174152   2.006   2.866   1.828  2.5032 -2.3805 -0.9032
17579TIP3    H274153   1.897   2.784   1.895  0.1209  0.8867 -0.5062
17580TIP3   OH274154   0.938   3.985   1.943  0.8223 -0.6010  0.3939
17580TIP3    H174155   0.972   3.923   2.008 -2.0874  0.1728  2.9350
17580TIP3    H274156   0.983   4.067   1.962  1.4421 -0.8601  0.0528
17581TIP3   OH274157   2.325   5.626  10.876  0.0496 -0.1705  0.1439
17581TIP3    H174158   2.410   5.604  10.837  0.2423 -0.2029  0.5730
17581TIP3    H274159   2.280   5.542  10.883 -0.0129 -0.1564 -0.0652
17582TIP3   OH274160   0.369   6.659  11.600  0.1624 -0.0871 -0.3133
17582TIP3    H174161   0.439   6.653  11.664 -0.3851  1.4810  0.4836
17582TIP3    H274162   0.295   6.615  11.641  0.0157  0.3022 -0.1542
17583TIP3   OH274163   2.594   4.956  12.642 -0.2187 -0.3456 -0.4579
17583TIP3    H174164   2.660   4.914  12.698  0.6958 -0.2515 -1.4369
17583TIP3    H274165   2.644   5.015  12.586 -0.9444 -1.2982 -2.1860
17584TIP3   OH274166   4.042   0.561   2.269  0.0215  0.1297  0.2716
17584TIP3    H174167   3.954   0.594   2.254 -0.5102 -1.5263 -0.3945
17584TIP3    H274168   4.041   0.529   2.360  0.3504  1.2616  0.7002
17585TIP3   OH274169   2.371   0.151  17.062  0.6669 -0.1157 -0.8003
17585TIP3    H174170   2.289   0.102  17.052  0.2460  0.9073 -2.9103
17585TIP3    H274171   2.429   0.117  16.994  1.6600 -0.1267  0.0200
17586TIP3   OH274172   2.740   2.748   5.238 -0.1782  0.0228 -0.7875
17586TIP3    H174173   2.764   2.659   5.264 -0.1938  0.5019  1.0646
17586TIP3    H274174   2.809   2.776   5.179  1.2177 -0.3602  0.5789
17587TIP3   OH274175   4.739   4.081  12.029  0.2201  0.2209 -0.1759
17587TIP3    H174176   4.649   4.098  12.001  0.1751 -0.2287 -0.3087
17587TIP3    H274177   4.791   4.087  11.949  0.1972 -0.3011 -0.2321
17588TIP3   OH274178   1.547   6.000   4.058 -0.4644  0.0368 -0.8204
17588TIP3    H174179   1.506   5.996   3.971 -2.3610  0.1174  0.0173
17588TIP3    H274180   1.637   5.974   4.043 -1.1041 -1.3662 -2.5984
17589TIP3   OH274181   0.045   6.471   6.068  0.1921 -0.7976  0.2462
17589TIP3    H174182   0.134   6.505   6.060  0.5897 -1.9921 -0.6257
17589TIP3    H274183  -0.003   6.511   5.995 -0.5956  1.5327  1.9306
17590TIP3   OH274184   0.586   6.522  10.859 -0.1537 -0.1534 -0.1310
17590TIP3    H174185   0.538   6.444  10.888  0.0492 -0.7221 -1.2843
17590TIP3    H274186   0.526   6.565  10.798 -0.9014  1.4690  1.6174
17591TIP3   OH274187   5.819   4.137  12.639  0.3927 -0.2031 -0.4221
17591TIP3    H174188   5.796   4.229  12.653  0.2379 -0.5103  1.7764
17591TIP3    H274189   5.914   4.134  12.650  0.4460 -0.2425 -0.8968
17592TIP3   OH274190   5.286   5.401   3.213 -0.3667 -0.3275  0.2435
17592TIP3    H174191   5.203   5.444   3.234 -0.5260 -0.0091 -0.9928
17592TIP3    H274192   5.348   5.474   3.206 -0.5898 -0.2712 -1.6399
17593TIP3   OH274193   2.601   3.624   2.128 -0.3285  0.8904  0.3018
17593TIP3    H174194   2.591   3.554   2.193  0.6740 -0.0050 -0.4627
17593TIP3    H274195   2.541   3.693   2.157  0.6017  0.8281  2.5860
17594TIP3   OH274196   5.433   6.562   0.722 -0.2206 -0.2046 -0.2991
17594TIP3    H174197   5.407   6.624   0.790  0.0522 -1.0789  0.6376
17594TIP3    H274198   5.351   6.525   0.690 -0.3363 -0.0074 -0.2336
17595TIP3   OH274199   3.507   1.193  15.842 -0.2856 -0.1424  0.3219
17595TIP3    H174200   3.461   1.215  15.923  2.0274  0.6033  1.5222
17595TIP3    H274201   3.477   1.105  15.820 -0.6951 -0.5172  2.2244
17596TIP3   OH274202   0.788   4.580   4.280  0.4942  0.2813 -0.2852
17596TIP3    H174203   0.720   4.542   4.224 -1.2584  0.0462  1.8701
17596TIP3    H274204   0.752   4.575   4.368  1.0785  4.8165  0.4536
17597TIP3   OH274205   4.595   5.049  17.034  0.0798  0.2970  0.3451
17597TIP3    H174206   4.591   5.028  17.128  1.1339  0.4864  0.4395
17597TIP3    H274207   4.607   4.965  16.991 -0.2011  0.2309  0.3967
17598TIP3   OH274208   6.519   4.355   4.793 -0.3704  0.4928  0.1647
17598TIP3    H174209   6.578   4.423   4.825  0.3793 -0.1473  0.1614
17598TIP3    H274210   6.497   4.304   4.871 -1.3701  1.0511  0.2677
17599TIP3   OH274211   1.477   5.466  12.291 -0.3986 -0.9297 -0.2672
17599TIP3    H174212   1.385   5.470  12.317 -0.2843 -1.4497  0.2456
17599TIP3    H274213   1.518   5.408  12.356  0.6537  0.6993  0.5792
17600TIP3   OH274214   0.502   6.334   2.321 -0.0941 -0.2155  0.4445
17600TIP3    H174215   0.563   6.267   2.352  1.3065 -0.0985 -1.8619
17600TIP3    H274216   0.422   6.285   2.300  0.6143 -1.0548 -0.3922
17601TIP3   OH274217   0.587   6.411   3.109  0.3089  0.1472  0.4280
17601TIP3    H174218   0.603   6.321   3.079  1.2088  0.0663  1.1023
17601TIP3    H274219   0.632   6.416   3.193 -1.0608  0.7641  1.1442
17602TIP3   OH274220   6.488   4.006   2.395  0.3328  0.3977 -0.0044
17602TIP3    H174221   6.534   4.038   2.473  0.4855  0.7153 -0.2214
17602TIP3    H274222   6.412   4.064   2.387  0.7308  0.8617 -0.5265
17603TIP3   OH274223   0.203   3.449   0.521  0.0808 -1.2291  0.2195
17603TIP3    H174224   0.130   3.438   0.581 -0.5284 -1.0686 -0.4761
17603TIP3    H274225   0.163   3.481   0.440  1.0994  0.4832  0.3375
17604TIP3   OH274226   2.397   4.686   3.535  0.5844 -0.1762  0.2336
17604TIP3    H174227   2.310   4.654   3.510  0.7357 -0.0794 -0.4450
17604TIP3    H274228   2.444   4.607   3.561 -0.3230 -0.0000  2.5983
17605TIP3   OH274229   2.923   3.799  15.041 -0.4140 -0.6720  0.0204
17605TIP3    H174230   2.897   3.880  14.998  2.7294  3.0131  4.1100
17605TIP3    H274231   2.999   3.769  14.992  0.2006  0.6433  0.1252
17606TIP3   OH274232   1.641   2.751  10.805  0.1220  0.0824 -0.0712
17606TIP3    H174233   1.698   2.731  10.731  1.1945 -0.7602  0.9512
17606TIP3    H274234   1.611   2.841  10.788  0.5199 -0.0119 -1.3926
17607TIP3   OH274235   1.006   4.100   6.109 -0.2432  0.0372 -0.4771
17607TIP3    H174236   0.999   4.072   6.200 -0.7960 -0.0693 -0.5483
17607TIP3    H274237   0.940   4.169   6.099 -2.5922 -2.1817 -1.6096
17608TIP3   OH274238   6.079   6.310   4.707 -0.2965  0.2119 -0.1837
17608TIP3    H174239   6.090   6.372   4.635 -0.7763 -1.5147 -1.8326
17608TIP3    H274240   6.169   6.284   4.730 -0.0952  1.5022  0.5431
17609TIP3   OH274241   0.800   3.780   4.311 -0.3634 -0.8994  0.4607
17609TIP3    H174242   0.862   3.718   4.350 -0.3407 -0.7322  0.6883
17609TIP3    H274243   0.815   3.862   4.356 -0.5687 -0.7887  0.3323
17610TIP3   OH274244   4.103   1.642  13.056 -0.0187 -0.5035  0.3975
17610TIP3    H174245   4.103   1.549  13.032 -1.0638 -0.0248 -1.7013
17610TIP3    H274246   4.188   1.675  13.026 -0.7954 -0.2019 -1.6472
17611TIP3   OH274247   0.308   6.508  13.342 -0.0672 -0.2689 -0.2275
17611TIP3    H174248   0.231   6.479  13.294  0.7797 -0.2528 -1.6670
17611TIP3    H274249   0.328   6.436  13.401  0.9545 -1.9705 -2.4826
17612TIP3   OH274250   1.712   4.641   1.933 -0.1364  0.5284  0.4463
17612TIP3    H174251   1.684   4.553   1.910 -0.7178  0.9399 -0.4927
17612TIP3    H274252   1.688   4.695   1.857 -2.6430  2.0811  2.1648
17613TIP3   OH274253   4.887   4.433  12.203 -0.7150 -0.5588 -0.0749
17613TIP3    H174254   4.944   4.378  12.150 -0.2631  0.8534 -1.1311
17613TIP3    H274255   4.947   4.496  12.245 -1.3732  0.2688 -0.3466
17614TIP3   OH274256   2.004   4.013  13.237  0.4967  0.4412 -0.7568
17614TIP3    H174257   2.029   3.963  13.315  0.3797  0.5813 -0.6305
17614TIP3    H274258   1.959   3.949  13.182  1.2400  0.1579 -1.0401
17615TIP3   OH274259   0.218   0.406   0.934 -0.3545  0.4007 -0.7117
17615TIP3    H174260   0.178   0.365   0.858 -0.4890 -0.5033 -0.1648
17615TIP3    H274261   0.295   0.352   0.953 -0.8351  0.0427  0.3463
17616TIP3   OH274262   3.557   0.841   2.003 -0.1563 -0.1274  0.0316
17616TIP3    H174263   3.650   0.819   2.016  0.1286  0.8283 -0.2930
17616TIP3    H274264   3.510   0.778   2.057  0.4869 -2.7597 -2.2269
17617TIP3   OH274265   4.767   5.077   2.718  0.2689  0.2843 -0.6214
17617TIP3    H174266   4.856   5.041   2.713  0.2460  0.0689  0.3496
17617TIP3    H274267   4.776   5.167   2.686  0.9994  0.5272  0.2363
17618TIP3   OH274268   5.673   2.843  12.863  0.0106 -0.2533  0.4785
17618TIP3    H174269   5.600   2.903  12.875  1.1376  1.4054 -0.5533
17618TIP3    H274270   5.742   2.877  12.919  1.6828  1.3092 -2.3021
17619TIP3   OH274271   2.168   5.277  11.507 -0.1001  0.5896  0.3401
17619TIP3    H174272   2.155   5.358  11.458 -3.0132  0.6788  1.0701
17619TIP3    H274273   2.188   5.305  11.596  0.1682  0.4924  0.3106
17620TIP3   OH274274   2.147   1.915  14.529  0.1565  0.3756  0.1010
17620TIP3    H174275   2.102   1.996  14.556 -0.2293 -0.3157  1.6505
17620TIP3    H274276   2.211   1.899  14.598  0.5636 -0.3898 -0.4408
17621TIP3   OH274277   1.139   2.252   0.349 -0.1283  0.2572  0.1131
17621TIP3    H174278   1.169   2.181   0.291  0.3199  0.4058  0.1608
17621TIP3    H274279   1.200   2.250   0.423  0.2464  1.0655 -0.1612
17622TIP3   OH274280   1.562   0.371   0.759  0.0926 -0.2576 -0.3282
17622TIP3    H174281   1.596   0.352   0.672 -0.8556 -1.6289 -0.4350
17622TIP3    H274282   1.592   0.460   0.778 -0.4938  0.4498 -2.4558
17623TIP3   OH274283   5.146   5.520   4.206  0.2778 -0.1379  0.1034
17623TIP3    H174284   5.210   5.502   4.137  0.0324  1.1595 -0.4927
17623TIP3    H274285   5.081   5.450   4.196  0.6144 -0.3709 -0.5318
17624TIP3   OH274286   5.067   3.238  13.808 -0.4174  0.5032 -0.0965
17624TIP3    H174287   5.143   3.296  13.812 -0.1841  0.2034 -0.1102
17624TIP3    H274288   5.079   3.189  13.726 -0.7203  0.5823 -0.1905
17625TIP3   OH274289   3.848   4.075  14.120 -0.6559  0.2052  0.4851
17625TIP3    H174290   3.884   3.988  14.132 -1.8490 -0.4319 -0.3559
17625TIP3    H274291   3.883   4.105  14.036 -1.1055  0.0809  0.2491
17626TIP3   OH274292   6.753   5.227   1.120  0.7827  0.2009 -0.7785
17626TIP3    H174293   6.717   5.234   1.032  0.9981  0.1633 -0.8696
17626TIP3    H274294   6.772   5.317   1.146 -0.1558  0.3042 -0.4017
17627TIP3   OH274295   4.233   6.231  14.965  0.3055 -0.3071 -0.0389
17627TIP3    H174296   4.236   6.169  14.891 -0.7983 -0.6433  0.1761
17627TIP3    H274297   4.283   6.188  15.034  2.7918  0.7445 -1.0815
17628TIP3   OH274298   0.509   4.241   5.121  0.1831 -0.3100 -0.1960
17628TIP3    H174299   0.579   4.282   5.173 -1.4265  2.3205  0.1078
17628TIP3    H274300   0.552   4.212   5.041  1.8764 -0.1077  0.5970
17629TIP3   OH274301   1.901   4.417   3.382 -0.4507  0.2827 -0.6535
17629TIP3    H174302   1.897   4.341   3.323 -1.7609 -0.7445  0.6960
17629TIP3    H274303   1.891   4.493   3.324 -3.7758 -0.7515 -1.6073
17630TIP3   OH274304   1.074   3.892   3.391  0.0163 -0.1818 -0.2390
17630TIP3    H174305   1.050   3.984   3.383  1.2625  0.0210 -2.5160
17630TIP3    H274306   1.078   3.860   3.301  2.0825 -1.7646  0.3223
17631TIP3   OH274307   2.802   4.590  15.754 -0.3168  0.1349  0.2482
17631TIP3    H174308   2.869   4.639  15.801 -0.0721 -0.8460  0.9493
17631TIP3    H274309   2.845   4.562  15.673 -0.2533  0.5037  0.1529
17632TIP3   OH274310   2.974   1.970   3.596 -0.1162 -0.0878  0.0497
17632TIP3    H174311   2.942   1.892   3.551  1.0358 -0.1020 -0.7847
17632TIP3    H274312   2.919   2.041   3.564  0.0378 -0.2606 -0.6043
17633TIP3   OH274313   6.246   2.603  12.123  0.5533  0.6414  0.1683
17633TIP3    H174314   6.276   2.544  12.054  1.4720  0.6398  0.5625
17633TIP3    H274315   6.298   2.579  12.200  0.6218  1.6614  0.4549
17634TIP3   OH274316   0.539   3.618  11.890  0.0166 -0.0085  0.1601
17634TIP3    H174317   0.570   3.544  11.837  0.3578 -0.3028  0.7512
17634TIP3    H274318   0.452   3.637  11.856  0.0296 -0.5192 -0.1736
17635TIP3   OH274319   1.677   1.165  12.218  0.0354  0.4304  0.1525
17635TIP3    H174320   1.590   1.168  12.178  0.3958 -1.1083 -0.8233
17635TIP3    H274321   1.734   1.207  12.153  0.3689 -0.6586 -0.2844
17636TIP3   OH274322   2.048   6.351   2.021 -0.3189  0.2638  0.7386
17636TIP3    H174323   2.097   6.277   1.987 -1.5658 -1.0827  1.7437
17636TIP3    H274324   2.115   6.413   2.052  0.7681  0.2834 -1.4683
17637TIP3   OH274325   3.786   3.322  13.937  0.0913  0.0919  0.2370
17637TIP3    H174326   3.866   3.306  13.987 -0.3855 -0.0472  0.9600
17637TIP3    H274327   3.757   3.408  13.967  1.1144  1.1335 -1.5809
17638TIP3   OH274328   0.237   3.209   1.733 -0.0540  0.5080 -0.0073
17638TIP3    H174329   0.189   3.130   1.758 -0.5859  1.1693  1.1626
17638TIP3    H274330   0.212   3.274   1.799 -0.3083  1.9180 -1.4387
17639TIP3   OH274331   3.350   6.464   2.197 -0.0821  0.4742 -0.2816
17639TIP3    H174332   3.265   6.485   2.157 -0.7892  0.6802  1.2810
17639TIP3    H274333   3.346   6.501   2.285  1.0208 -0.9071  0.3913
17640TIP3   OH274334   2.744   3.119   6.026 -0.5363 -0.1278 -0.4626
17640TIP3    H174335   2.678   3.084   6.086  1.3308  0.6204  2.1436
17640TIP3    H274336   2.758   3.209   6.054  0.5511  0.2052 -1.9359
17641TIP3   OH274337   5.893   3.878   5.572 -0.3310  0.0289  0.0510
17641TIP3    H174338   5.879   3.825   5.493  0.5949 -1.7236  1.0132
17641TIP3    H274339   5.825   3.849   5.632  0.2277 -0.1253  0.6154
17642TIP3   OH274340   0.039   2.484   2.076 -0.1477  0.1740  0.2929
17642TIP3    H174341   0.012   2.401   2.114  1.4903 -0.8120 -0.5916
17642TIP3    H274342   0.033   2.471   1.981  0.4489  0.9409  0.1374
17643TIP3   OH274343   6.595   1.260  14.691 -0.3608  0.0751 -0.0276
17643TIP3    H174344   6.676   1.214  14.668  0.3964  1.9969 -1.4669
17643TIP3    H274345   6.614   1.305  14.773  0.0351  0.5414 -0.3765
17644TIP3   OH274346   2.611   1.910   0.307 -0.4458  0.1676  0.2594
17644TIP3    H174347   2.647   1.822   0.298  0.3138  0.5609 -0.8021
17644TIP3    H274348   2.687   1.965   0.327 -0.9029  0.6069  0.8432
17645TIP3   OH274349   1.373   6.667   3.555 -0.1148  0.0529 -0.0279
17645TIP3    H174350   1.387   6.656   3.461  1.2824 -1.0653  0.2910
17645TIP3    H274351   1.370   6.762   3.567  4.5601  0.4965 -0.6237
17646TIP3   OH274352   0.006   4.678  14.258 -0.0913 -0.0353  0.4268
17646TIP3    H174353   0.065   4.744  14.296  0.6328  0.5550 -1.6096
17646TIP3    H274354  -0.080   4.698  14.295 -0.1352  2.8574 -1.0003
17647TIP3   OH274355   5.224   3.026  14.609  0.0173 -0.4346 -0.3726
17647TIP3    H174356   5.262   3.051  14.692 -0.9388  4.0831 -1.0486
17647TIP3    H274357   5.297   2.992  14.558  0.8096 -2.2827  1.8261
17648TIP3   OH274358   6.464   5.956  11.705  0.3762 -0.4962  0.0239
17648TIP3    H174359   6.453   5.909  11.623  0.4470  0.2343 -0.4084
17648TIP3    H274360   6.388   6.014  11.711  1.1491  0.5693 -0.2872
17649TIP3   OH274361   6.745   0.969  16.394 -0.3190  0.8489  0.3543
17649TIP3    H174362   6.827   1.005  16.359 -0.5681  0.0984 -1.0810
17649TIP3    H274363   6.678   1.031  16.364 -0.2728  1.6148  1.7659
17650TIP3   OH274364   1.864   5.653   3.191 -0.0948  0.6038 -0.3818
17650TIP3    H174365   1.888   5.591   3.259  0.5039 -0.6489 -1.6696
17650TIP3    H274366   1.787   5.699   3.225  0.6745  0.6112  1.4373
17651TIP3   OH274367   5.834   1.446  14.266 -0.3961  0.0859 -0.0045
17651TIP3    H174368   5.901   1.448  14.334 -1.2032 -0.2328  0.8155
17651TIP3    H274369   5.760   1.401  14.306 -0.5753 -0.9298 -1.3816
17652TIP3   OH274370   5.770   5.035   3.615 -0.3011  0.4268  0.2670
17652TIP3    H174371   5.741   5.117   3.575  0.5052 -0.0909 -1.4539
17652TIP3    H274372   5.865   5.042   3.618 -0.2614 -0.1834  0.7417
17653TIP3   OH274373   0.530   4.251   0.481 -0.3927  0.0725  0.1695
17653TIP3    H174374   0.492   4.208   0.404  2.5982 -1.7352 -0.4611
17653TIP3    H274375   0.481   4.214   0.555 -1.2527 -0.5470 -0.6761
17654TIP3   OH274376   6.376   3.806   0.841  1.0277  0.2705 -0.0415
17654TIP3    H174377   6.373   3.792   0.936  0.8886  0.6896  0.0206
17654TIP3    H274378   6.374   3.718   0.803  1.8789  0.0598  0.3626
17655TIP3   OH274379   2.781   2.016   2.207  0.5569 -0.4389  0.3521
17655TIP3    H174380   2.695   1.979   2.190  0.0640  0.5035  0.7675
17655TIP3    H274381   2.815   1.962   2.279 -0.8039  0.8254  2.0291
17656TIP3   OH274382   3.568   0.130  14.245  0.0130  1.1170  0.5130
17656TIP3    H174383   3.582   0.046  14.288 -1.1907  1.4498  1.6129
17656TIP3    H274384   3.489   0.118  14.194  1.7828  0.5092 -2.3077
17657TIP3   OH274385   6.205   1.863  12.733 -0.2807  0.1664  0.1334
17657TIP3    H174386   6.269   1.819  12.788 -1.2980  1.5632  2.5947
17657TIP3    H274387   6.140   1.796  12.712  0.2528 -0.4508  0.4290
17658TIP3   OH274388   1.552   5.476   4.275  0.1897  0.1279  0.2597
17658TIP3    H174389   1.500   5.436   4.345 -0.5804 -2.3277 -1.5563
17658TIP3    H274390   1.513   5.562   4.263 -0.7467 -0.0522  1.7261
17659TIP3   OH274391   2.524   4.506  14.174  0.4012  0.2854 -0.1930
17659TIP3    H174392   2.523   4.577  14.110  1.1338 -0.2550 -0.8354
17659TIP3    H274393   2.439   4.509  14.216 -0.0404  0.7564 -1.0951
17660TIP3   OH274394   0.016   3.011  13.096  0.2522  0.2015 -0.0530
17660TIP3    H174395   0.048   3.028  13.184 -0.5664 -1.4908  0.6129
17660TIP3    H274396   0.030   3.093  13.049 -0.9467  1.7746  2.1399
17661TIP3   OH274397   4.635   5.176  16.613 -0.4373 -0.3046 -0.2947
17661TIP3    H174398   4.572   5.107  16.590 -1.3040  0.4571 -0.2411
17661TIP3    H274399   4.588   5.258  16.600  0.4236  0.2764  0.1160
17662TIP3   OH274400   4.828   3.790   3.613  0.1112  0.5016 -0.0764
17662TIP3    H174401   4.916   3.753   3.608  0.6429  0.9859  3.2174
17662TIP3    H274402   4.841   3.884   3.611 -0.3177  0.5784  0.3942
17663TIP3   OH274403   4.703   5.640   4.904  0.5218  0.2100  0.2253
17663TIP3    H174404   4.690   5.698   4.980 -0.9941 -0.2294  0.3399
17663TIP3    H274405   4.758   5.690   4.844 -0.3836  1.6082  0.5133
17664TIP3   OH274406   1.638   2.339   5.804  0.4888  0.3239  0.0789
17664TIP3    H174407   1.554   2.303   5.831 -0.8198  2.9622 -0.1240
17664TIP3    H274408   1.665   2.286   5.729 -1.3222 -0.1659 -0.2611
17665TIP3   OH274409   0.853   1.997   3.087  0.0751  0.3545 -0.3467
17665TIP3    H174410   0.828   2.024   2.999 -0.2783  0.1408 -0.3164
17665TIP3    H274411   0.908   1.920   3.074 -1.5065 -0.8307 -0.3298
17666TIP3   OH274412   5.114   3.157   2.517  0.5062 -0.1732  0.2167
17666TIP3    H174413   5.129   3.155   2.422 -1.4498 -1.4090 -0.1388
17666TIP3    H274414   5.066   3.239   2.531 -2.3264 -1.5503 -0.5305
17667TIP3   OH274415   5.690   3.222  12.939  0.2273 -0.3751 -0.4581
17667TIP3    H174416   5.610   3.174  12.962 -0.1495  0.4331 -0.0256
17667TIP3    H274417   5.733   3.239  13.023 -0.6880  1.7888 -0.3391
17668TIP3   OH274418   6.028   1.939  11.989  0.1782 -0.5136 -0.3100
17668TIP3    H174419   6.037   1.953  12.083 -1.4571  1.7891 -0.4258
17668TIP3    H274420   6.118   1.944  11.955  0.5866  0.6774  0.8875
17669TIP3   OH274421   0.457   4.130   2.511  0.1015 -0.1924 -0.1615
17669TIP3    H174422   0.488   4.177   2.588  0.3977  1.5452 -1.2980
17669TIP3    H274423   0.537   4.106   2.463 -0.1315  1.4705 -1.4640
17670TIP3   OH274424   0.820   5.894  13.472 -0.1064 -0.5520  0.4774
17670TIP3    H174425   0.759   5.952  13.427  1.3554  0.2623 -0.5326
17670TIP3    H274426   0.771   5.861  13.547 -1.7363  0.1498 -0.2403
17671TIP3   OH274427   5.789   3.393   0.212 -0.3564  0.5904  0.3566
17671TIP3    H174428   5.843   3.427   0.283 -1.0071  2.1664  0.1569
17671TIP3    H274429   5.784   3.465   0.149  1.4700 -1.2569 -2.0973
17672TIP3   OH274430   4.386   0.974  14.420  0.6309 -0.1249 -0.4437
17672TIP3    H174431   4.456   1.024  14.379  0.3772  1.0450  0.4796
17672TIP3    H274432   4.372   1.018  14.504 -0.4003 -1.0613 -0.1070
17673TIP3   OH274433   5.865   3.137   0.810  0.4734 -0.3479  0.0745
17673TIP3    H174434   5.865   3.228   0.779 -0.3754 -0.7651 -1.2510
17673TIP3    H274435   5.862   3.144   0.905 -2.1351  1.0592 -0.0001
17674TIP3   OH274436   6.811   0.305  12.897  0.0248  0.7541  0.0178
17674TIP3    H174437   6.817   0.332  12.805 -0.9498 -1.6198 -0.8354
17674TIP3    H274438   6.865   0.226  12.902 -0.2275  0.6522  1.4114
17675TIP3   OH274439   2.294   0.959  14.837 -0.6356 -0.2861 -0.5820
17675TIP3    H174440   2.302   0.865  14.854 -2.3793 -0.2101  1.0111
17675TIP3    H274441   2.218   0.967  14.780 -0.9426  0.1792 -0.1204
17676TIP3   OH274442   4.781   5.079   1.606 -0.2186  0.0234  0.3083
17676TIP3    H174443   4.784   4.985   1.588  1.5318 -0.4135  2.3846
17676TIP3    H274444   4.764   5.085   1.700  1.3447  1.6849  0.5535
17677TIP3   OH274445   5.263   5.833  15.562  0.1387  0.2931 -0.0730
17677TIP3    H174446   5.312   5.849  15.482 -1.9858  1.6185 -1.1871
17677TIP3    H274447   5.294   5.900  15.623  0.5714  0.3535 -0.3560
17678TIP3   OH274448   2.647   2.129  16.915 -0.1158  0.8543 -0.3072
17678TIP3    H174449   2.585   2.110  16.985 -0.6338  0.0924 -0.9501
17678TIP3    H274450   2.639   2.224  16.901  0.1276  1.0426  0.7663
17679TIP3   OH274451   6.816   1.866  13.826  0.7608 -0.5220 -0.6843
17679TIP3    H174452   6.809   1.858  13.731  0.4046  0.8756 -0.7965
17679TIP3    H274453   6.752   1.934  13.850  2.4722  0.8594  0.2427
17680TIP3   OH274454   6.118   6.521  11.887  0.0618 -0.0927 -0.0303
17680TIP3    H174455   6.165   6.596  11.924 -0.2871 -0.2789  0.8278
17680TIP3    H274456   6.186   6.468  11.846  0.4779  0.0968  0.4064
17681TIP3   OH274457   1.311   3.669   3.698 -0.0989 -0.5505  0.0919
17681TIP3    H174458   1.338   3.600   3.759  0.3747 -0.5737 -0.1392
17681TIP3    H274459   1.244   3.718   3.746  0.6949 -0.1855  0.8786
17682TIP3   OH274460   5.583   0.685   0.763 -0.2104  0.1858  0.0981
17682TIP3    H174461   5.589   0.678   0.668 -1.0898  0.5806  0.0024
17682TIP3    H274462   5.584   0.595   0.795  1.2116  0.0771 -0.1960
17683TIP3   OH274463   0.619   3.214  12.493  0.5457 -0.4355  0.2189
17683TIP3    H174464   0.643   3.299  12.458 -0.9571 -0.2488 -0.4455
17683TIP3    H274465   0.560   3.176  12.426 -0.6380 -0.9985  1.5248
17684TIP3   OH274466   2.186   0.574  16.880  0.7214  0.5926  0.1154
17684TIP3    H174467   2.109   0.528  16.846  0.4513  1.1074  0.0141
17684TIP3    H274468   2.223   0.515  16.945  1.3192 -0.4791 -1.1504
17685TIP3   OH274469   6.236   0.911  16.059  0.1910 -0.0738  0.5162
17685TIP3    H174470   6.265   0.890  16.148 -0.3529  3.1803  1.5989
17685TIP3    H274471   6.228   0.826  16.016 -1.0408 -1.9404  4.0359
17686TIP3   OH274472   5.219   3.204   4.405 -0.0028  0.5322  0.1597
17686TIP3    H174473   5.276   3.212   4.482  1.6110  1.1827 -1.0349
17686TIP3    H274474   5.186   3.293   4.391 -0.8988  0.2661  0.5192
17687TIP3   OH274475   4.671   1.838   2.656  0.0965  0.2677  1.1341
17687TIP3    H174476   4.715   1.760   2.622 -1.9541 -0.3164 -0.4267
17687TIP3    H274477   4.606   1.804   2.717  0.6173  0.9744  2.1162
17688TIP3   OH274478   1.701   5.504   3.659  0.2313  0.0911 -0.0435
17688TIP3    H174479   1.796   5.492   3.657  0.1829 -0.4571 -2.2998
17688TIP3    H274480   1.686   5.565   3.731  2.4910  1.6943 -0.7869
17689TIP3   OH274481   3.490   2.358  10.102 -0.7613 -0.5500  0.4192
17689TIP3    H174482   3.584   2.356  10.085 -0.3958 -0.5831  2.2053
17689TIP3    H274483   3.451   2.312  10.028  0.7475 -1.8923  0.4066
17690TIP3   OH274484   6.737   1.263  13.230  0.2393  0.1474 -0.0044
17690TIP3    H174485   6.686   1.184  13.216  0.0114  0.1891  0.6041
17690TIP3    H274486   6.720   1.317  13.152 -3.3297  1.6391  1.6092
17691TIP3   OH274487   6.263   1.111   0.871 -0.0474 -0.3329 -0.3940
17691TIP3    H174488   6.173   1.132   0.843 -1.0625 -0.6046  2.3593
17691TIP3    H274489   6.261   1.017   0.887  1.0352 -0.5087 -1.1874
17692TIP3   OH274490   2.143   5.700  11.587 -0.3269  0.0408 -0.0723
17692TIP3    H174491   2.237   5.716  11.578 -0.3279  0.1963  0.1923
17692TIP3    H274492   2.134   5.650  11.668 -0.6998  2.3305  1.4247
17693TIP3   OH274493   5.312   4.744   6.396 -0.1888  0.1134  0.3521
17693TIP3    H174494   5.229   4.704   6.370 -0.4926  0.6650  0.4358
17693TIP3    H274495   5.378   4.678   6.379 -0.5297  0.0249 -0.6630
17694TIP3   OH274496   0.138   3.039   3.465  0.2142  0.2026 -0.0585
17694TIP3    H174497   0.204   3.094   3.423 -0.1308  0.2320 -0.5753
17694TIP3    H274498   0.057   3.058   3.417  0.7110 -3.3108 -2.6730
17695TIP3   OH274499   0.151   2.135   3.285  0.4405 -0.5018 -0.1428
17695TIP3    H174500   0.192   2.221   3.283 -1.8063  0.6379 -0.7562
17695TIP3    H274501   0.222   2.075   3.307  2.2993  1.3546 -0.7574
17696TIP3   OH274502   6.373   5.344  15.067  0.3669  0.1081  0.7744
17696TIP3    H174503   6.412   5.399  15.135  0.5250  0.8686  0.0810
17696TIP3    H274504   6.281   5.371  15.064  0.7826  1.4859 -0.6479
17697TIP3   OH274505   2.364   4.797  16.901 -0.0671  0.0811  0.2542
17697TIP3    H174506   2.398   4.797  16.990  0.1204 -1.1501  0.2003
17697TIP3    H274507   2.285   4.851  16.905 -0.0126  0.1036  1.1470
17698TIP3   OH274508   2.492   4.987   0.802 -0.0163  0.6791  0.0712
17698TIP3    H174509   2.450   4.902   0.813  2.0173 -0.3244  0.4601
17698TIP3    H274510   2.423   5.050   0.824 -1.5742 -0.8293 -0.2268
17699TIP3   OH274511   2.253   2.724  11.037  0.0298 -0.0568  0.0331
17699TIP3    H174512   2.181   2.675  10.996  0.7349 -0.5929 -0.5962
17699TIP3    H274513   2.275   2.674  11.115  0.4212 -0.4865 -0.3466
17700TIP3   OH274514   0.957   1.716  15.012 -0.1313 -0.5472  0.3877
17700TIP3    H174515   0.986   1.628  14.987 -0.6075 -0.7270  0.4626
17700TIP3    H274516   0.885   1.736  14.953  1.0186  0.4732 -0.7347
17701TIP3   OH274517   3.239   4.631  11.690 -0.1836 -0.6047 -0.1083
17701TIP3    H174518   3.333   4.634  11.670  0.0439 -0.7135  0.8851
17701TIP3    H274519   3.197   4.673  11.615  0.8116  1.4012  0.3903
17702TIP3   OH274520   6.230   0.843  11.943  0.1288  0.3387  0.1079
17702TIP3    H174521   6.194   0.776  11.884 -0.0810  1.1178 -0.6555
17702TIP3    H274522   6.156   0.865  12.000 -0.1972  0.8662 -0.5015
17703TIP3   OH274523   0.252   5.097   0.964  0.1315  0.2659  0.1412
17703TIP3    H174524   0.200   5.021   0.937  2.2330 -0.4579 -2.2221
17703TIP3    H274525   0.237   5.161   0.894 -0.1799  1.3665  1.1886
17704TIP3   OH274526   5.786   4.359  13.524 -0.1875  0.0417 -0.5452
17704TIP3    H174527   5.825   4.424  13.467 -0.6196  1.0806  0.3054
17704TIP3    H274528   5.725   4.311  13.468 -0.3496  0.8086 -1.0336
17705TIP3   OH274529   5.731   3.144   3.859 -0.0168  0.4271  0.3057
17705TIP3    H174530   5.712   3.113   3.947 -0.9260  1.6081  0.5439
17705TIP3    H274531   5.655   3.119   3.807  0.3009  0.1710 -0.0514
17706TIP3   OH274532   4.546   4.700   6.737 -0.0262 -0.0406  0.0674
17706TIP3    H174533   4.518   4.791   6.752  0.5818  0.0153  0.8695
17706TIP3    H274534   4.474   4.662   6.685  0.6238  1.4529 -2.0704
17707TIP3   OH274535   0.307   4.768  15.072 -0.0269 -0.1608  0.2746
17707TIP3    H174536   0.349   4.684  15.088 -0.0983 -0.4879 -1.0957
17707TIP3    H274537   0.287   4.767  14.978 -0.0318  1.3814  0.2334
17708TIP3   OH274538   1.084   2.225   4.914 -0.0269 -0.3102  0.3243
17708TIP3    H174539   1.037   2.300   4.949  0.1627  0.4451 -0.9830
17708TIP3    H274540   1.176   2.244   4.932  0.1635  0.5956 -1.4718
17709TIP3   OH274541   2.907   2.747   2.770  0.4036 -0.1530  0.4978
17709TIP3    H174542   2.846   2.812   2.803 -0.0957 -0.0935 -0.4908
17709TIP3    H274543   2.853   2.689   2.715  0.8556 -1.3185  1.2365
17710TIP3   OH274544   3.726   5.416  16.116 -0.7658  0.3006 -0.0551
17710TIP3    H174545   3.711   5.509  16.130 -2.2989 -0.1204  1.3365
17710TIP3    H274546   3.820   5.409  16.096 -0.5933  2.0912  0.0159
17711TIP3   OH274547   3.939   6.510   1.221 -0.0064  0.6490  0.1775
17711TIP3    H174548   3.969   6.556   1.143 -0.3834  1.7566  0.6655
17711TIP3    H274549   3.844   6.507   1.212  0.0869 -1.3759 -0.5634
17712TIP3   OH274550   4.490   3.624  16.847 -0.0054  0.1709 -0.1831
17712TIP3    H174551   4.559   3.582  16.898  0.5462  0.1199 -0.9419
17712TIP3    H274552   4.412   3.620  16.902  0.0258 -1.8276 -0.2280
17713TIP3   OH274553   4.869   1.217   5.892  0.2945  0.0149 -0.5206
17713TIP3    H174554   4.955   1.181   5.917  0.9952  1.9799  0.0839
17713TIP3    H274555   4.811   1.192   5.963  0.9550  0.6752  0.2804
17714TIP3   OH274556   6.159   5.114   1.065 -0.1340  0.1455  0.4933
17714TIP3    H174557   6.182   5.153   1.149  0.5095  0.0198  0.3779
17714TIP3    H274558   6.139   5.023   1.085  0.0231  0.1149  0.5082
17715TIP3   OH274559   4.577   6.630   1.352  0.5064  0.0065  0.6972
17715TIP3    H174560   4.643   6.689   1.317 -0.5071  0.7575 -0.0252
17715TIP3    H274561   4.533   6.680   1.421 -0.4763  0.1838 -0.0359
17716TIP3   OH274562   0.347   4.021  10.915  0.0340 -0.0247  0.0326
17716TIP3    H174563   0.326   4.030  10.822 -0.5066 -1.3869 -0.0005
17716TIP3    H274564   0.372   4.109  10.943 -1.5061  0.7826 -0.9968
17717TIP3   OH274565   5.218   2.750   1.797  0.3497 -0.7765  0.0407
17717TIP3    H174566   5.212   2.665   1.752 -3.4472  0.5356 -2.4268
17717TIP3    H274567   5.269   2.804   1.737 -1.2265 -0.1248 -0.7539
17718TIP3   OH274568   6.180   1.765  13.118 -0.3750  0.8929 -0.5486
17718TIP3    H174569   6.211   1.762  13.209 -0.8886  2.2306 -0.3164
17718TIP3    H274570   6.154   1.856  13.104 -2.4347  0.2322 -1.3331
17719TIP3   OH274571   1.469   0.589  15.660 -0.1778 -0.0459  0.2326
17719TIP3    H174572   1.510   0.549  15.583  1.1764  1.0837  0.3270
17719TIP3    H274573   1.406   0.651  15.625 -1.4135 -1.3307  0.0828
17720TIP3   OH274574   0.189   2.459   5.898  0.6003 -0.2843  0.0813
17720TIP3    H174575   0.270   2.415   5.872  1.9299  1.7513  0.5102
17720TIP3    H274576   0.182   2.533   5.838 -1.1027 -0.5570 -0.0959
17721TIP3   OH274577   6.402   4.463   2.521  0.3574 -0.1159 -0.1885
17721TIP3    H174578   6.382   4.389   2.462 -0.4700  0.3834 -0.5499
17721TIP3    H274579   6.376   4.432   2.608 -0.0265 -0.2344 -0.3446
17722TIP3   OH274580   4.227   3.268   2.411 -0.4333 -0.1563  0.3695
17722TIP3    H174581   4.200   3.356   2.384  1.5115  0.2046 -0.5991
17722TIP3    H274582   4.323   3.272   2.413 -0.3402 -1.8924  1.6303
17723TIP3   OH274583   0.721   6.636  13.654 -0.3124 -0.1174  0.0977
17723TIP3    H174584   0.698   6.708  13.712 -2.2042 -1.8923  1.7155
17723TIP3    H274585   0.690   6.663  13.568  0.6774  1.6997  0.2602
17724TIP3   OH274586   4.467   2.918  16.010 -0.1446 -0.4090  0.5913
17724TIP3    H174587   4.552   2.918  15.966 -1.3614  0.7218 -1.9522
17724TIP3    H274588   4.410   2.867  15.952 -1.4723 -0.2345  1.6870
17725TIP3   OH274589   2.064   3.258   2.068  0.6183  0.1492 -0.2671
17725TIP3    H174590   2.129   3.189   2.053  1.3754  0.9433 -0.7417
17725TIP3    H274591   2.071   3.277   2.162  0.1564 -0.6575 -0.0659
17726TIP3   OH274592   3.986   3.895   2.843  0.5437  0.4648 -0.1915
17726TIP3    H174593   3.943   3.975   2.814  1.3773  0.3648 -1.8395
17726TIP3    H274594   4.006   3.910   2.935 -2.8396  0.5626  0.6661
17727TIP3   OH274595   5.936   5.776  14.731 -0.3785  0.1449 -0.7587
17727TIP3    H174596   5.950   5.862  14.691 -0.5591  0.4100 -0.2544
17727TIP3    H274597   6.018   5.758  14.777 -0.9011  0.7693  0.4645
17728TIP3   OH274598   1.176   2.200   5.642  0.1129  0.2257  0.3524
17728TIP3    H174599   1.183   2.245   5.726  0.6497 -1.5095  1.2859
17728TIP3    H274600   1.266   2.176   5.621 -0.1131 -0.0251 -0.3415
17729TIP3   OH274601   4.036   0.178   4.397  0.1096 -0.4059  0.5438
17729TIP3    H174602   4.001   0.245   4.457  1.0555  1.0745 -0.4840
17729TIP3    H274603   4.109   0.139   4.445 -2.0726 -2.7070  2.2406
17730TIP3   OH274604   6.191   2.804   5.084 -0.7686  0.1041  0.4229
17730TIP3    H174605   6.206   2.769   5.172  0.5262  0.7676  0.4899
17730TIP3    H274606   6.187   2.899   5.097  0.7623  0.3007 -0.3909
17731TIP3   OH274607   0.886   2.100  14.274 -0.3701 -0.0258 -0.6818
17731TIP3    H174608   0.935   2.177  14.302 -0.3077  0.5109 -2.1794
17731TIP3    H274609   0.832   2.077  14.350 -1.8946  2.7011 -0.8045
17732TIP3   OH274610   2.225   3.336   0.807  0.0232 -0.1434  0.6346
17732TIP3    H174611   2.210   3.363   0.898 -0.7896  0.8985  0.2110
17732TIP3    H274612   2.176   3.254   0.798 -0.7087  0.2550  0.8799
17733TIP3   OH274613   3.807   5.162  12.690 -0.1236  0.2379 -0.4385
17733TIP3    H174614   3.848   5.158  12.603  0.8705 -0.1825  0.0215
17733TIP3    H274615   3.879   5.186  12.748 -1.0353  1.6999  0.1227
17734TIP3   OH274616   1.264   1.194   6.235 -0.1480  0.3863 -0.2664
17734TIP3    H174617   1.321   1.250   6.287 -1.9321  1.4502  0.6327
17734TIP3    H274618   1.316   1.116   6.218  1.6329  1.3864  0.3146
17735TIP3   OH274619   0.075   3.520  13.931  0.0162 -0.1131  0.5275
17735TIP3    H174620   0.034   3.502  13.847 -0.6073  1.5851  0.4441
17735TIP3    H274621   0.152   3.573  13.910 -0.5075  0.8831  1.0623
17736TIP3   OH274622   1.083   6.549   3.340  0.1617  0.0831 -0.0848
17736TIP3    H174623   1.129   6.525   3.421  1.2000  1.9363 -0.0654
17736TIP3    H274624   1.069   6.466   3.295  0.7596 -0.8552  1.3803
17737TIP3   OH274625   6.284   0.044  16.744  0.2377  0.4406  0.4326
17737TIP3    H174626   6.257   0.063  16.833  0.9634 -0.2428  0.8073
17737TIP3    H274627   6.251  -0.045  16.727  0.5695  0.3587  0.2110
17738TIP3   OH274628   1.160   3.207   5.320  0.0313 -0.1608  0.2325
17738TIP3    H174629   1.228   3.143   5.301  0.4250 -0.1948  1.6917
17738TIP3    H274630   1.205   3.279   5.363 -0.9197 -0.4918  1.8742
17739TIP3   OH274631   1.524   1.891   0.936  0.0136  0.4841  0.2489
17739TIP3    H174632   1.473   1.949   0.878 -1.3392 -0.0847  0.8490
17739TIP3    H274633   1.569   1.951   0.995  0.0538  0.9955 -0.2842
17740TIP3   OH274634   3.473   1.611   3.491 -0.0334  0.2421 -0.3014
17740TIP3    H174635   3.411   1.683   3.481 -1.3235 -0.5210  1.4739
17740TIP3    H274636   3.503   1.618   3.582  2.3875  0.4541 -1.0450
17741TIP3   OH274637   5.695   6.798   0.026  0.2021 -0.1185 -0.3099
17741TIP3    H174638   5.654   6.876  -0.010  0.1507 -0.1205 -0.2543
17741TIP3    H274639   5.635   6.727   0.003 -0.7955  0.1150  1.4087
17742TIP3   OH274640   6.557   3.791   0.271  0.4312 -0.1133  0.1718
17742TIP3    H174641   6.619   3.836   0.328 -0.4060 -0.3073  1.2673
17742TIP3    H274642   6.493   3.753   0.330  0.1598 -1.2926 -0.8369
17743TIP3   OH274643   1.768   2.798   0.258  0.3244  0.3753  0.2972
17743TIP3    H174644   1.789   2.778   0.166 -0.3612 -1.8960  0.5595
17743TIP3    H274645   1.693   2.741   0.277  1.8250 -0.9025  2.8887
17744TIP3   OH274646   5.035   0.278  16.010  0.3024  0.3234 -0.0697
17744TIP3    H174647   5.035   0.203  15.951  1.0940  0.8103 -0.7127
17744TIP3    H274648   5.113   0.266  16.064 -0.5639 -0.2650  1.0906
17745TIP3   OH274649   5.019   4.916  13.667 -0.3225  0.2406  0.0203
17745TIP3    H174650   5.003   4.982  13.734 -0.7778  0.7617 -0.5863
17745TIP3    H274651   5.035   4.835  13.716  0.0601  0.7551  0.7656
17746TIP3   OH274652   1.377   2.902  14.353  0.2380 -0.1132 -0.2914
17746TIP3    H174653   1.418   2.988  14.340  1.7500 -0.6101  0.8799
17746TIP3    H274654   1.297   2.905  14.300  0.6984  1.6934 -0.9527
17747TIP3   OH274655   1.370   1.066   3.103 -0.1800 -0.0992 -0.1375
17747TIP3    H174656   1.464   1.082   3.113 -0.1640  0.7997 -1.5272
17747TIP3    H274657   1.363   1.018   3.021 -0.7740 -2.2044  1.0527
17748TIP3   OH274658   0.454   5.055   1.531 -0.6218  0.5100 -0.7192
17748TIP3    H174659   0.397   4.980   1.547 -0.4997  0.8030  1.3197
17748TIP3    H274660   0.470   5.053   1.437 -2.9329 -0.3435 -1.1684
17749TIP3   OH274661   3.195   3.686   5.106  0.0827 -0.3945  0.1141
17749TIP3    H174662   3.156   3.645   5.182  1.3968 -2.1305 -0.0870
17749TIP3    H274663   3.289   3.684   5.124  0.4071 -0.7421 -1.4860
17750TIP3   OH274664   3.132   3.968  11.352  0.1310 -0.2392  0.4612
17750TIP3    H174665   3.131   3.956  11.257  0.8407 -2.2996  0.6748
17750TIP3    H274666   3.044   4.000  11.372  0.1598  0.8551 -0.9270
17751TIP3   OH274667   3.130   4.094  16.138  0.0569 -0.5052  0.1263
17751TIP3    H174668   3.132   4.087  16.233 -0.2173  0.8021  0.2459
17751TIP3    H274669   3.220   4.116  16.113 -0.1120  0.3365  0.2116
17752TIP3   OH274670   0.947   1.940  10.913  0.3912  0.0616 -0.4294
17752TIP3    H174671   0.930   1.867  10.972 -1.2414  2.2593  2.0675
17752TIP3    H274672   1.038   1.929  10.887 -0.2724 -3.8000 -1.7294
17753TIP3   OH274673   4.651   1.538  11.335 -0.0700  0.1265 -0.0380
17753TIP3    H174674   4.564   1.564  11.366 -0.5297  0.8500 -1.8230
17753TIP3    H274675   4.709   1.554  11.410 -1.1096  1.8430  0.4496
17754TIP3   OH274676   4.944   4.024   5.615  0.0237 -0.3652 -0.3989
17754TIP3    H174677   4.988   3.951   5.571 -0.8141 -1.1224 -0.0314
17754TIP3    H274678   5.015   4.074   5.655  0.6870 -0.4380 -1.4502
17755TIP3   OH274679   3.766   4.727  14.396 -0.5852 -0.2142  0.0426
17755TIP3    H174680   3.755   4.662  14.327 -1.3140  1.1928 -1.2096
17755TIP3    H274681   3.756   4.811  14.352 -0.1127  0.7503  1.6993
17756TIP3   OH274682   4.612   3.377   0.907 -0.5821  0.0838 -0.2851
17756TIP3    H174683   4.636   3.382   0.814  0.3990  0.3400 -0.0192
17756TIP3    H274684   4.615   3.284   0.928 -0.8833  0.0178 -0.5239
17757TIP3   OH274685   5.157   4.136  17.079  0.1546  0.0116 -0.0696
17757TIP3    H174686   5.072   4.097  17.062  0.6483 -0.7615 -0.8617
17757TIP3    H274687   5.165   4.206  17.015 -0.0440  0.3436  0.2654
17758TIP3   OH274688   1.976   4.483   0.319  0.0477 -0.0504 -0.5611
17758TIP3    H174689   1.943   4.406   0.366  1.3083 -0.1852  0.1443
17758TIP3    H274690   2.014   4.446   0.239  1.6523 -0.3338  0.2881
17759TIP3   OH274691   5.007   0.706   1.562  0.0671  0.1219 -0.0044
17759TIP3    H174692   5.039   0.656   1.487  0.4956 -0.4362  0.5401
17759TIP3    H274693   4.950   0.773   1.523  1.2509  0.6415 -0.9384
17760TIP3   OH274694   1.833   5.465  14.974 -0.1629 -0.1636  0.5399
17760TIP3    H174695   1.844   5.550  15.017 -1.2890  0.3226 -0.0913
17760TIP3    H274696   1.839   5.485  14.881 -1.0318 -0.6771  0.3649
17761TIP3   OH274697   3.369   5.442   3.069 -0.1873  0.5442 -0.0179
17761TIP3    H174698   3.418   5.421   3.149 -0.7540  2.5140  0.9171
17761TIP3    H274699   3.413   5.519   3.034 -0.6242  0.3553 -1.0059
17762TIP3   OH274700   0.534   2.336   4.577  0.2503  0.0028 -0.7585
17762TIP3    H174701   0.467   2.403   4.564 -0.6182 -0.8731 -0.8243
17762TIP3    H274702   0.552   2.338   4.671 -0.3748 -0.2343 -0.6301
17763TIP3   OH274703   0.482   1.049  13.696 -0.4903 -0.2097 -0.5500
17763TIP3    H174704   0.427   1.075  13.622  0.9514  0.5283 -1.4208
17763TIP3    H274705   0.450   0.962  13.720 -3.3721  0.9829  0.3607
17764TIP3   OH274706   0.649   6.102  14.238 -0.5135  0.4314 -0.2283
17764TIP3    H174707   0.636   6.191  14.271 -0.3665  0.1713  0.5483
17764TIP3    H274708   0.620   6.106  14.147 -3.3817  0.5542  0.5981
17765TIP3   OH274709   0.883   3.004  15.005 -0.5674  0.7211 -0.1798
17765TIP3    H174710   0.892   3.052  15.088 -2.2974  1.8578 -0.5872
17765TIP3    H274711   0.791   3.016  14.981 -0.2789 -0.2384 -1.8847
17766TIP3   OH274712   3.371   6.069   0.027 -0.0315  0.1642 -0.6012
17766TIP3    H174713   3.397   6.060   0.119  1.3588 -2.8152 -1.1773
17766TIP3    H274714   3.302   6.005   0.015  0.5810 -0.2809 -1.8893
17767TIP3   OH274715   2.734   3.884   5.442  0.7657 -0.3683 -0.1432
17767TIP3    H174716   2.752   3.949   5.510  1.6531 -0.0528 -0.6641
17767TIP3    H274717   2.641   3.894   5.423  0.6496 -0.0163  0.5654
17768TIP3   OH274718   5.254   5.518   0.748 -0.2527  0.5407 -0.2949
17768TIP3    H174719   5.285   5.596   0.792  0.9200 -0.5799  0.9638
17768TIP3    H274720   5.161   5.515   0.766 -0.0025  0.7459  1.1110
17769TIP3   OH274721   1.510   0.700  12.465 -0.4353  0.7392 -0.3647
17769TIP3    H174722   1.439   0.735  12.411  0.3368 -0.1762 -2.0485
17769TIP3    H274723   1.511   0.756  12.543 -2.9779  0.7885 -0.2703
17770TIP3   OH274724   1.619   0.032   1.382  0.8386  0.7936  0.3785
17770TIP3    H174725   1.703   0.014   1.340  0.4646 -1.5559  0.4844
17770TIP3    H274726   1.554   0.017   1.313  0.3863  0.1215  0.9392
17771TIP3   OH274727   3.046   3.067   0.310 -0.5617 -0.0471  0.2515
17771TIP3    H174728   2.961   3.065   0.355 -0.1427  0.0582  1.0764
17771TIP3    H274729   3.047   2.988   0.257 -0.8114 -0.5254  0.9386
17772TIP3   OH274730   5.210   4.179  13.859 -0.2050  0.1850  0.7354
17772TIP3    H174731   5.235   4.091  13.886 -1.1253 -0.5324 -0.6386
17772TIP3    H274732   5.115   4.176  13.854 -0.2324  1.1995  0.4749
17773TIP3   OH274733   5.444   0.125  11.738 -0.2832 -0.1785  0.3974
17773TIP3    H174734   5.535   0.135  11.766 -0.3627  1.1592  0.2642
17773TIP3    H274735   5.395   0.113  11.818 -0.4490  3.1130  0.9343
17774TIP3   OH274736   6.509   4.618  11.660 -0.3154  0.3691 -0.0150
17774TIP3    H174737   6.451   4.670  11.604  2.0926  2.5545 -0.7262
17774TIP3    H274738   6.597   4.639  11.628  1.1542  0.8494  3.8496
17775TIP3   OH274739   6.729   3.958  16.714 -0.3192  0.7335  0.2519
17775TIP3    H174740   6.727   3.958  16.809 -2.3147 -1.8111  0.3046
17775TIP3    H274741   6.792   3.890  16.691 -1.0024  0.2448 -0.2101
17776TIP3   OH274742   4.312   0.758  10.671 -0.0182  0.0743  0.2665
17776TIP3    H174743   4.326   0.830  10.609 -1.2630 -1.6698 -2.2006
17776TIP3    H274744   4.237   0.787  10.723 -0.1505  0.8282 -0.3136
17777TIP3   OH274745   1.943   2.091   5.958 -0.0119  0.1856 -0.1275
17777TIP3    H174746   2.034   2.099   5.986  0.0377  0.7154 -0.4158
17777TIP3    H274747   1.946   2.029   5.885  0.4584  1.7870 -1.5480
17778TIP3   OH274748   3.327   1.851   5.212  0.2269  0.0887  0.4763
17778TIP3    H174749   3.250   1.905   5.228 -1.2892 -1.3059 -1.6850
17778TIP3    H274750   3.386   1.872   5.285 -1.2727  2.7748  1.0458
17779TIP3   OH274751   0.327   2.381  15.761 -0.0899  0.1087 -0.0366
17779TIP3    H174752   0.337   2.376  15.856  0.9775 -1.2628 -0.2024
17779TIP3    H274753   0.416   2.372  15.727 -0.4063  1.0300 -1.1754
17780TIP3   OH274754   0.007   4.507   3.372  0.8260  0.6355  0.1567
17780TIP3    H174755  -0.038   4.591   3.378  1.5074  0.9444  1.0060
17780TIP3    H274756  -0.064   4.443   3.366  0.2865  1.1983  0.4018
17781TIP3   OH274757   4.907   2.382  16.101  0.1540  0.1662 -0.4371
17781TIP3    H174758   4.873   2.408  16.187  2.3577  0.6319  0.3784
17781TIP3    H274759   4.887   2.456  16.044  0.7241  0.9032  0.2882
17782TIP3   OH274760   6.573   2.322   6.200 -0.1454  0.0900  0.2153
17782TIP3    H174761   6.621   2.325   6.117  1.2400  0.6265  1.0049
17782TIP3    H274762   6.624   2.262   6.255 -1.2304 -0.5257  0.5795
17783TIP3   OH274763   6.475   1.827  16.729 -0.5187 -0.0083  0.1527
17783TIP3    H174764   6.547   1.887  16.746 -1.4841  0.8280  1.4069
17783TIP3    H274765   6.417   1.836  16.805 -1.6326 -1.1222 -0.5293
17784TIP3   OH274766   4.447   4.452  10.958  0.1281 -0.0698 -0.2344
17784TIP3    H174767   4.528   4.496  10.935 -0.8095  3.1170  1.9411
17784TIP3    H274768   4.455   4.434  11.052 -2.1641  1.7862  0.4335
17785TIP3   OH274769   0.611   1.077  12.697 -0.1709  0.4509  0.3235
17785TIP3    H174770   0.562   1.135  12.755  2.3510 -0.1431  3.3278
17785TIP3    H274771   0.655   1.135  12.635 -1.0980  1.3410  0.4772
17786TIP3   OH274772   4.579   2.584   3.041  0.2668  0.2393 -0.0138
17786TIP3    H174773   4.510   2.518   3.036  0.8099 -0.2455 -1.8137
17786TIP3    H274774   4.534   2.665   3.063 -0.8482 -0.1102 -0.9516
17787TIP3   OH274775   0.784   2.482   2.544 -0.0398  0.0488 -0.1309
17787TIP3    H174776   0.781   2.548   2.614  2.7052  0.1874 -0.0344
17787TIP3    H274777   0.785   2.398   2.591 -1.5040 -0.0315 -0.1861
17788TIP3   OH274778   3.402   1.603  14.673 -0.6593  0.5153 -0.0588
17788TIP3    H174779   3.399   1.514  14.708 -1.8260  1.1319  1.5232
17788TIP3    H274780   3.331   1.606  14.610 -1.7806  0.7904  1.1691
17789TIP3   OH274781   1.856   2.310  14.960 -0.6130 -0.1155  0.1681
17789TIP3    H174782   1.838   2.267  15.044 -1.4292 -1.2062 -0.5283
17789TIP3    H274783   1.779   2.365  14.944 -1.2069 -1.1356 -0.5914
17790TIP3   OH274784   3.370   5.369   4.816 -0.4177  0.2386  0.1843
17790TIP3    H174785   3.341   5.460   4.823  0.5203  0.5295  0.3838
17790TIP3    H274786   3.448   5.372   4.760 -0.6753 -0.5151 -0.2421
17791TIP3   OH274787   3.796   2.909  16.995  0.6453  0.1779 -0.3905
17791TIP3    H174788   3.875   2.951  17.030  0.0841  2.8562 -2.0116
17791TIP3    H274789   3.781   2.834  17.052  3.8336  0.0855  0.5218
17792TIP3   OH274790   5.625   3.196  16.001 -0.6271  0.4392 -0.2273
17792TIP3    H174791   5.609   3.160  15.914  1.6382  1.2630 -1.0443
17792TIP3    H274792   5.645   3.120  16.055 -0.3835  0.0654 -0.8321
17793TIP3   OH274793   3.185   6.234   1.369  0.6038 -0.2312 -0.5336
17793TIP3    H174794   3.270   6.192   1.354  0.8819  0.0331  0.2309
17793TIP3    H274795   3.145   6.181   1.438  0.5215  0.1557 -0.2827
17794TIP3   OH274796   5.104   0.595   3.280  0.0209 -0.1328  0.5293
17794TIP3    H174797   5.090   0.602   3.375 -0.3787  2.2755  0.3805
17794TIP3    H274798   5.041   0.657   3.243  0.9756 -0.1634 -1.2294
17795TIP3   OH274799   5.514   2.570  13.734 -0.1598 -0.5547 -0.6701
17795TIP3    H174800   5.564   2.519  13.797 -0.5340 -1.0801 -0.7882
17795TIP3    H274801   5.424   2.567  13.766 -0.1182  0.4138 -0.4397
17796TIP3   OH274802   5.306   3.241  12.727  0.0534 -0.0448  0.5940
17796TIP3    H174803   5.378   3.296  12.758 -0.2552  0.7107  0.0016
17796TIP3    H274804   5.255   3.222  12.806  0.1828  0.4966  0.8132
17797TIP3   OH274805   1.196   0.466   0.489 -0.1173 -0.0590 -0.3002
17797TIP3    H174806   1.171   0.374   0.495 -0.9650  0.1041 -1.1650
17797TIP3    H274807   1.130   0.512   0.541  0.6830  0.0181  0.6847
17798TIP3   OH274808   5.792   2.926  13.634  0.1022  0.8205  0.4121
17798TIP3    H174809   5.737   2.961  13.704 -1.0376  0.7784 -0.4274
17798TIP3    H274810   5.765   2.834  13.627  1.6225  0.2795  1.2290
17799TIP3   OH274811   5.299   2.039  11.126  0.5883  0.0765 -0.0619
17799TIP3    H174812   5.215   2.076  11.155  1.6807  1.6195  1.3082
17799TIP3    H274813   5.329   2.099  11.058  1.2802  0.4112  0.5313
17800TIP3   OH274814   1.109   2.643   6.412  0.0828  0.2598  0.2550
17800TIP3    H174815   1.050   2.717   6.421  0.0013  0.1118  0.9543
17800TIP3    H274816   1.163   2.665   6.336 -0.7415  0.4785 -0.2882
17801TIP3   OH274817   1.963   0.603   6.035  0.4183  0.2956  0.6046
17801TIP3    H174818   1.993   0.583   6.124  2.6632 -1.3734 -0.4088
17801TIP3    H274819   2.043   0.612   5.984 -0.7980  1.5747 -1.2167
17802TIP3   OH274820   6.714   4.415  11.333  0.3902 -1.0474 -0.1415
17802TIP3    H174821   6.684   4.350  11.270 -2.0332  0.0395 -0.1929
17802TIP3    H274822   6.638   4.470  11.350  2.0611  1.1675  0.6847
17803TIP3   OH274823   4.404   6.504  14.938 -0.5122  0.2995 -0.5467
17803TIP3    H174824   4.350   6.541  15.009 -0.6323 -0.7843 -0.0528
17803TIP3    H274825   4.349   6.437  14.899 -0.2496  0.5413 -1.3547
17804TIP3   OH274826   1.309   4.490  11.785 -0.7901  0.5930 -0.5344
17804TIP3    H174827   1.249   4.445  11.844 -1.9977  0.6225 -1.6916
17804TIP3    H274828   1.384   4.431  11.776 -0.3707  0.7811  1.3311
17805TIP3   OH274829   2.485   4.697   2.154 -0.1099 -0.3988 -0.0274
17805TIP3    H174830   2.539   4.651   2.090 -2.1955 -1.6045 -1.0433
17805TIP3    H274831   2.514   4.664   2.239  0.1897 -1.6480 -0.5977
17806TIP3   OH274832   1.782   6.259  12.026  0.0584 -0.7097  0.1725
17806TIP3    H174833   1.782   6.205  11.947  0.6445 -0.4132 -0.0347
17806TIP3    H274834   1.861   6.313  12.019  0.3097 -0.9276  1.1343
17807TIP3   OH274835   1.101   2.829  12.424 -0.2324  0.1050  0.1316
17807TIP3    H174836   1.126   2.922  12.429 -2.5772  0.7407  1.2193
17807TIP3    H274837   1.173   2.783  12.467  1.8574  1.1655 -1.9970
17808TIP3   OH274838   0.282   0.833   1.919  0.3629  0.0075  0.1048
17808TIP3    H174839   0.279   0.768   1.989 -1.4739 -1.1369 -0.9412
17808TIP3    H274840   0.332   0.791   1.849 -1.5391 -0.7159 -0.8989
17809TIP3   OH274841   5.692   4.374  11.770 -0.0148  0.0904  0.3029
17809TIP3    H174842   5.747   4.435  11.819 -1.8342  1.9561  0.1802
17809TIP3    H274843   5.728   4.374  11.682 -0.0703  1.1009  0.2764
17810TIP3   OH274844   4.892   0.962   3.570 -0.0926 -0.3883 -0.2146
17810TIP3    H174845   4.799   0.975   3.585  0.1825  0.0866  1.1391
17810TIP3    H274846   4.907   0.997   3.482 -1.2644 -0.9215 -0.6530
17811TIP3   OH274847   5.768   0.504  14.101  0.0103 -0.1652  0.2526
17811TIP3    H174848   5.834   0.480  14.167 -0.5661  0.4769  1.0919
17811TIP3    H274849   5.688   0.519  14.152 -0.9362 -1.4299 -0.7997
17812TIP3   OH274850   1.212   1.565   3.645  0.0205 -0.1291 -0.2254
17812TIP3    H174851   1.175   1.598   3.727 -0.0609 -0.0766 -0.2831
17812TIP3    H274852   1.306   1.558   3.662 -0.1560 -1.4489  0.3273
17813TIP3   OH274853   3.775   0.661  10.463  0.4085 -0.4372 -0.0115
17813TIP3    H174854   3.721   0.715  10.522  0.5602 -1.9198  1.5519
17813TIP3    H274855   3.841   0.722  10.429  0.0884  0.5583  1.0769
17814TIP3   OH274856   2.382   1.516  16.143  0.6824 -1.1304  0.6772
17814TIP3    H174857   2.324   1.446  16.113 -2.4180  1.5588 -0.2009
17814TIP3    H274858   2.460   1.508  16.088  0.1575 -3.4312  0.1723
17815TIP3   OH274859   2.007   6.128  13.203 -0.4853  0.3778 -0.5047
17815TIP3    H174860   1.912   6.124  13.213 -0.4327 -0.5185 -0.2497
17815TIP3    H274861   2.021   6.173  13.120 -1.1050  1.4148 -0.0713
17816TIP3   OH274862   0.865   6.453  14.577  0.1435 -0.1187  0.6992
17816TIP3    H174863   0.850   6.418  14.665 -0.8785  0.4423  0.7629
17816TIP3    H274864   0.794   6.416  14.524  0.0934  0.4464  0.3637
17817TIP3   OH274865   3.535   5.753  12.806 -0.2230 -0.1296 -0.4143
17817TIP3    H174866   3.465   5.789  12.752  0.2626 -1.6869 -2.1941
17817TIP3    H274867   3.509   5.662  12.822  0.1195  0.0228  1.2024
17818TIP3   OH274868   5.377   0.992   0.082  0.0669  0.3985  0.0064
17818TIP3    H174869   5.325   1.067   0.056  1.5404  1.2486 -0.6380
17818TIP3    H274870   5.439   0.979   0.010  0.9356 -0.3746  0.8559
17819TIP3   OH274871   1.946   3.407   1.870 -0.4018 -0.6757 -0.1623
17819TIP3    H174872   1.908   3.485   1.910 -0.2087  1.1282 -3.1806
17819TIP3    H274873   1.968   3.350   1.944  0.5629  2.6012  2.3332
17820TIP3   OH274874   4.930   5.491   1.673  0.5124  0.3399  0.2936
17820TIP3    H174875   4.875   5.504   1.750 -1.2913  1.2928 -1.0691
17820TIP3    H274876   4.904   5.561   1.613  1.4121 -0.7480 -1.4403
17821TIP3   OH274877   5.497   5.248  14.404 -0.3341 -0.1903 -0.0338
17821TIP3    H174878   5.577   5.293  14.379 -0.4016 -0.1936 -0.2593
17821TIP3    H274879   5.494   5.255  14.499  0.4698 -1.0943  0.0704
17822TIP3   OH274880   0.340   2.872  10.347  0.1203  0.1348 -0.6142
17822TIP3    H174881   0.261   2.883  10.400  0.3218 -0.1835 -0.2491
17822TIP3    H274882   0.318   2.801  10.287  0.6936 -1.0859  0.5739
17823TIP3   OH274883   2.559   1.243  13.510  0.0848 -0.1822  0.2667
17823TIP3    H174884   2.514   1.305  13.567  0.2138  0.2452 -0.0965
17823TIP3    H274885   2.488   1.198  13.463  0.0336  0.5715 -0.3900
17824TIP3   OH274886   5.271   1.032   0.744  0.3472 -0.0322 -0.6827
17824TIP3    H174887   5.208   1.103   0.755 -0.2301 -0.4818 -1.0371
17824TIP3    H274888   5.303   1.041   0.655  1.5559  0.7990 -0.1975
17825TIP3   OH274889   2.466   4.755   0.052  0.6126  0.4124 -0.1863
17825TIP3    H174890   2.435   4.693   0.118  1.7347 -1.7762 -1.5786
17825TIP3    H274891   2.540   4.798   0.093  0.4542  0.0855  0.4650
17826TIP3   OH274892   3.982   1.558  15.435  0.2641 -0.4445  0.1247
17826TIP3    H174893   4.030   1.524  15.510  0.7528  1.0462  0.5229
17826TIP3    H274894   3.891   1.563  15.464  0.2089 -1.2186  0.1115
17827TIP3   OH274895   0.032   6.062  16.250  0.4882  0.3869  0.6681
17827TIP3    H174896  -0.010   6.147  16.266 -0.1606 -0.1794  2.0936
17827TIP3    H274897  -0.041   6.001  16.240  0.9482  0.0001 -0.5153
17828TIP3   OH274898   0.215   4.277   5.468 -0.2746  0.1689 -0.2065
17828TIP3    H174899   0.234   4.352   5.525  1.4568 -0.9628  0.7908
17828TIP3    H274900   0.238   4.200   5.520 -1.0964 -1.0407 -1.5451
17829TIP3   OH274901   5.885   2.509  16.699  0.2069 -0.0757  0.2875
17829TIP3    H174902   5.920   2.559  16.625  1.2547  0.6472  1.2304
17829TIP3    H274903   5.884   2.419  16.669 -1.6528  0.4531 -1.4320
17830TIP3   OH274904   5.391   1.598  11.161 -0.1294  0.2231  0.1907
17830TIP3    H174905   5.425   1.684  11.140 -1.0352  0.8685  1.2003
17830TIP3    H274906   5.405   1.589  11.256  0.3283 -0.9233  0.0393
17831TIP3   OH274907   0.922   2.705   2.219 -0.2767  0.1513  0.9227
17831TIP3    H174908   0.900   2.683   2.129  2.1566 -0.9240  0.5014
17831TIP3    H274909   0.909   2.800   2.225  0.6917  0.4429 -0.9660
17832TIP3   OH274910   6.570   3.310  14.592 -0.1577  0.3758 -0.6207
17832TIP3    H174911   6.539   3.286  14.504 -1.4873 -1.5466  0.2821
17832TIP3    H274912   6.512   3.381  14.619  1.7944  2.6748 -2.1398
17833TIP3   OH274913   4.439   5.872   3.768 -0.2326 -0.2389 -0.1098
17833TIP3    H174914   4.451   5.808   3.837  1.6799 -0.4928 -0.6182
17833TIP3    H274915   4.477   5.953   3.804  1.6694 -0.6110 -1.1455
17834TIP3   OH274916   2.680   5.492  15.401 -0.1128  0.1818  0.0673
17834TIP3    H174917   2.624   5.431  15.450  0.6031 -0.9792 -0.5075
17834TIP3    H274918   2.719   5.548  15.468  0.7283 -1.2751  0.8391
17835TIP3   OH274919   1.382   5.749   4.234  0.4846  0.2192 -0.1001
17835TIP3    H174920   1.291   5.768   4.210  0.3360 -1.3162 -0.8369
17835TIP3    H274921   1.434   5.797   4.169  0.1952  0.6293 -0.0334
17836TIP3   OH274922   3.327   2.530   4.788  0.4915 -0.0779  0.2802
17836TIP3    H174923   3.303   2.555   4.878  1.2337  3.2803 -0.3217
17836TIP3    H274924   3.286   2.597   4.734  2.0685 -0.6402 -1.6985
17837TIP3   OH274925   5.823   3.284  13.510  0.9152 -0.0307  0.2488
17837TIP3    H174926   5.776   3.362  13.480 -0.2479 -1.1536 -0.9873
17837TIP3    H274927   5.773   3.253  13.585  0.7257 -0.1992  0.0549
17838TIP3   OH274928   4.616   1.366   4.366 -0.2535  0.4195  0.0693
17838TIP3    H174929   4.626   1.374   4.461 -0.3144 -1.1739  0.2345
17838TIP3    H274930   4.693   1.318   4.338 -1.5343 -1.5107 -0.2892
17839TIP3   OH274931   3.951   0.340   1.055  0.5607 -0.3226 -0.3926
17839TIP3    H174932   3.944   0.247   1.075  2.9013 -0.6156 -0.7012
17839TIP3    H274933   3.945   0.384   1.140  1.1366 -0.8960 -0.0482
17840TIP3   OH274934   6.433   6.278   4.484  0.1315 -0.0042 -0.2585
17840TIP3    H174935   6.356   6.251   4.435  0.9930 -0.1200 -1.6048
17840TIP3    H274936   6.478   6.340   4.426  3.8320 -3.7711 -1.9834
17841TIP3   OH274937   0.783   6.151  11.400 -0.1758 -0.2788  0.4208
17841TIP3    H174938   0.760   6.227  11.346 -1.0847  0.5932  1.9656
17841TIP3    H274939   0.699   6.113  11.426  0.2674 -1.6871 -0.1244
17842TIP3   OH274940   6.212   4.799  13.993  0.3827  0.3962 -0.2354
17842TIP3    H174941   6.131   4.751  14.013  1.6791 -0.8480  2.6558
17842TIP3    H274942   6.203   4.882  14.040  0.6555  0.4061 -0.2011
17843TIP3   OH274943   3.654   1.603  10.445  0.0059 -1.0196  0.0668
17843TIP3    H174944   3.583   1.666  10.436  0.8955  0.5538  2.8289
17843TIP3    H274945   3.687   1.592  10.356 -1.8945  0.3553 -0.8864
17844TIP3   OH274946   3.775   6.646   4.837  0.3374  1.1142 -0.0793
17844TIP3    H174947   3.744   6.696   4.913 -1.6082 -0.0219 -0.0716
17844TIP3    H274948   3.823   6.572   4.874  1.8406  2.0280 -0.0721
17845TIP3   OH274949   5.931   3.836   2.767  0.0819 -0.5566 -0.2712
17845TIP3    H174950   5.891   3.922   2.777  0.7821  0.0024 -1.7972
17845TIP3    H274951   5.869   3.787   2.713  0.0475 -0.7301 -0.0721
17846TIP3   OH274952   5.209   1.845   2.316 -0.3283  0.3828 -0.3871
17846TIP3    H174953   5.166   1.775   2.267  1.9194  1.0968 -3.6886
17846TIP3    H274954   5.179   1.926   2.276  1.8242  0.9974 -0.8837
17847TIP3   OH274955   0.054   1.710  11.175 -0.1245  0.3730 -0.4328
17847TIP3    H174956   0.097   1.794  11.163 -1.1312  1.0568  0.5810
17847TIP3    H274957   0.084   1.657  11.101  0.4647  1.6380 -1.1252
17848TIP3   OH274958   2.945   6.402  11.674 -0.7277  0.4584 -0.5611
17848TIP3    H174959   2.915   6.380  11.586  0.3181 -0.7109 -0.6716
17848TIP3    H274960   2.896   6.343  11.731  0.6269 -0.8506 -0.6665
17849TIP3   OH274961   6.577   0.555   1.249 -0.3612  0.2326  0.0426
17849TIP3    H174962   6.581   0.566   1.344  0.2627 -0.9498  0.1766
17849TIP3    H274963   6.660   0.591   1.217  1.5711 -3.4010  0.4577
17850TIP3   OH274964   1.553   5.257   3.352  0.1165 -0.3956  0.4989
17850TIP3    H174965   1.541   5.177   3.300  1.7550  0.3298 -1.1419
17850TIP3    H274966   1.596   5.227   3.432 -1.2634 -1.3922  0.8934
17851TIP3   OH274967   4.905   2.105   1.157  0.3489 -0.1242 -0.0363
17851TIP3    H174968   4.882   2.064   1.240  1.1054 -1.4188 -0.4397
17851TIP3    H274969   5.000   2.116   1.161  0.2712  0.7433 -0.3306
17852TIP3   OH274970   1.319   4.198   0.992 -0.1633 -0.2010 -0.4658
17852TIP3    H174971   1.396   4.248   1.017 -0.2209  0.4985 -1.6277
17852TIP3    H274972   1.342   4.158   0.908 -0.4266 -1.4661  0.0353
17853TIP3   OH274973   0.406   6.413   6.179  0.2403  0.1166  0.3086
17853TIP3    H174974   0.484   6.395   6.128 -0.2104  0.7559 -0.6330
17853TIP3    H274975   0.352   6.334   6.170 -0.5814  0.8425 -1.6469
17854TIP3   OH274976   6.373   0.807  10.424  0.5220 -0.4616 -0.3839
17854TIP3    H174977   6.357   0.757  10.505 -0.9685  0.1733 -0.2589
17854TIP3    H274978   6.354   0.745  10.354 -0.7989 -0.2608 -0.2275
17855TIP3   OH274979   3.567   0.748  10.989 -0.0721 -0.1019  0.2577
17855TIP3    H174980   3.573   0.764  10.895  1.3388 -1.3301  0.1137
17855TIP3    H274981   3.603   0.828  11.029 -1.1295  0.6278 -0.2010
17856TIP3   OH274982   0.619   3.109  16.093 -0.3443  0.6491 -0.7078
17856TIP3    H174983   0.584   3.029  16.131  0.6988  0.4162 -0.1960
17856TIP3    H274984   0.548   3.143  16.038 -1.2112 -0.0071 -0.0248
17857TIP3   OH274985   0.154   5.363  12.467 -0.1449  0.1663 -0.4068
17857TIP3    H174986   0.102   5.392  12.542 -0.0423 -1.6447  0.4162
17857TIP3    H274987   0.139   5.269  12.463  0.1241  0.1651 -2.4836
17858TIP3   OH274988   3.576   6.402  12.857  0.1872 -0.6154 -0.1241
17858TIP3    H174989   3.632   6.342  12.809 -0.8112 -1.1977 -0.5798
17858TIP3    H274990   3.511   6.346  12.900 -0.2433  0.0693  0.1397
17859TIP3   OH274991   3.013   5.273  12.155 -0.4100  0.4504  0.2564
17859TIP3    H174992   2.927   5.256  12.194 -0.4108 -1.3249 -0.4178
17859TIP3    H274993   3.027   5.366  12.167 -1.7698  0.5024  1.7129
17860TIP3   OH274994   5.670   2.083  11.482  0.2313 -0.5055 -0.0315
17860TIP3    H174995   5.689   2.011  11.543 -0.5831  0.4605  1.4269
17860TIP3    H274996   5.622   2.042  11.411  0.5225 -1.5500  0.3509
17861TIP3   OH274997   0.653   3.876   1.557 -0.1223 -0.0945  0.3177
17861TIP3    H174998   0.644   3.936   1.631  0.1677  0.1332  0.1679
17861TIP3    H274999   0.709   3.806   1.590  1.3816  0.8256 -0.1734
17862TIP3   OH275000   4.141   2.877   1.084  0.0344  0.3046  0.1646
17862TIP3    H175001   4.124   2.966   1.055 -2.2497 -0.0151  0.3442
17862TIP3    H275002   4.112   2.875   1.176 -4.3140 -1.5736 -0.9650
17863TIP3   OH275003   4.374   1.976   1.205 -0.5934 -0.1230 -0.1846
17863TIP3    H175004   4.457   2.016   1.178 -0.4053  0.2093  0.8419
17863TIP3    H275005   4.314   1.995   1.133 -0.6494  2.4990  0.4589
17864TIP3   OH275006   2.768   4.695   2.386 -0.1871 -0.3803 -0.0264
17864TIP3    H175007   2.797   4.774   2.342  0.3013  0.2029  1.3034
17864TIP3    H275008   2.675   4.710   2.404 -0.1846 -0.2803 -0.0972
17865TIP3   OH275009   0.832   5.735   1.787  0.4028  0.1360 -0.1955
17865TIP3    H175010   0.762   5.797   1.812  0.1414 -0.2941  0.1468
17865TIP3    H275011   0.827   5.665   1.852 -0.2092 -0.9502 -1.3678
17866TIP3   OH275012   6.799   5.633  13.512  0.2077 -0.4126  0.0048
17866TIP3    H175013   6.757   5.646  13.427  0.4856 -1.7935 -0.3610
17866TIP3    H275014   6.886   5.672  13.501 -0.2683  0.7109  0.1396
17867TIP3   OH275015   5.629   0.843   0.166  0.2517  0.3203  0.8427
17867TIP3    H175016   5.573   0.920   0.162 -1.5195 -0.9581 -0.5001
17867TIP3    H275017   5.618   0.801   0.081  0.8846 -1.6128  1.6646
17868TIP3   OH275018   2.677   4.233  17.044  0.2605  0.5026  0.4521
17868TIP3    H175019   2.657   4.299  16.978  1.0811  0.5679  0.2613
17868TIP3    H275020   2.593   4.190  17.061  0.4102 -1.2224 -2.4521
17869TIP3   OH275021   0.394   3.092  13.542 -0.0303  0.2056 -0.5244
17869TIP3    H175022   0.474   3.118  13.589  0.2213  0.3120 -1.0014
17869TIP3    H275023   0.398   3.142  13.460  0.0320 -0.7002 -1.0812
17870TIP3   OH275024   3.513   2.059  15.648 -0.0182  0.2211 -0.0423
17870TIP3    H175025   3.459   1.997  15.599  1.6900 -0.9980 -0.4515
17870TIP3    H275026   3.565   2.104  15.581  0.1737  0.7000  0.4229
17871TIP3   OH275027   1.892   2.320   3.311 -0.2946 -0.2229  0.1838
17871TIP3    H175028   1.858   2.232   3.331 -0.6312 -0.5979 -1.8315
17871TIP3    H275029   1.983   2.305   3.284 -0.5940 -0.0941 -0.9631
17872TIP3   OH275030   4.080   0.357   5.129  0.0923 -0.2452  0.4358
17872TIP3    H175031   4.043   0.402   5.204  0.3865 -1.1954  1.1724
17872TIP3    H275032   4.105   0.426   5.068 -2.3843  0.4950  0.1211
17873TIP3   OH275033   2.278   1.676   1.741 -0.1919 -0.0797  0.4682
17873TIP3    H175034   2.282   1.588   1.702 -2.8677 -0.2126  0.3245
17873TIP3    H275035   2.250   1.733   1.669  1.0002  0.8355  0.6924
17874TIP3   OH275036   1.131   5.550   3.266  0.0953  1.1527 -0.1739
17874TIP3    H175037   1.139   5.623   3.204  0.5897  1.4485  0.2304
17874TIP3    H275038   1.077   5.585   3.337 -1.4903  0.4378 -0.9757
17875TIP3   OH275039   3.525   0.739   2.783  0.1129  0.4435  0.0259
17875TIP3    H175040   3.567   0.801   2.843  1.5157 -2.6434  2.5686
17875TIP3    H275041   3.575   0.748   2.702  2.9732 -0.0153  1.5847
17876TIP3   OH275042   5.839   6.282   1.208 -0.0851 -0.0734  0.3896
17876TIP3    H175043   5.931   6.277   1.181 -0.9479  0.8454 -3.3567
17876TIP3    H275044   5.818   6.195   1.241  2.6128  0.3168  3.6912
17877TIP3   OH275045   1.589   2.720   3.068 -0.1849  0.0380 -0.4231
17877TIP3    H175046   1.520   2.697   3.130  1.0890  0.9086  1.3789
17877TIP3    H275047   1.666   2.738   3.122  0.6695  1.9981 -2.1408
17878TIP3   OH275048   5.049   5.720   2.021  0.1497  0.2543  0.4171
17878TIP3    H175049   5.095   5.737   1.939  0.8054  1.4669  1.0093
17878TIP3    H275050   5.113   5.675   2.076  0.9883  2.6537  1.5326
17879TIP3   OH275051   4.921   3.540  16.973  0.5388 -0.6317 -0.0101
17879TIP3    H175052   4.930   3.445  16.964  0.9156 -0.5404 -0.5931
17879TIP3    H275053   4.984   3.563  17.042 -0.2269 -0.9230  0.8119
17880TIP3   OH275054   2.875   3.364   1.577 -0.1896  0.5140  0.4498
17880TIP3    H175055   2.863   3.435   1.640  0.0218  0.0234  1.0498
17880TIP3    H275056   2.795   3.312   1.584 -0.7318  1.1828 -0.6311
17881TIP3   OH275057   5.233   4.263   0.583 -0.5576 -0.4346  0.8028
17881TIP3    H175058   5.177   4.339   0.566 -0.0632 -0.5780 -1.9824
17881TIP3    H275059   5.300   4.296   0.643 -1.5284  0.7295  1.3057
17882TIP3   OH275060   0.151   0.041  15.629 -1.0690 -0.0296  0.3030
17882TIP3    H175061   0.194  -0.045  15.637 -0.5500  0.1753 -0.2562
17882TIP3    H275062   0.083   0.039  15.697  0.6407  0.1327  2.1405
17883TIP3   OH275063   2.430   4.111  16.365 -0.0031 -0.3681  0.4655
17883TIP3    H175064   2.492   4.106  16.438  0.0885 -1.6998  0.3283
17883TIP3    H275065   2.482   4.090  16.287 -0.0583  1.2327 -0.0401
17884TIP3   OH275066   5.480   5.658   5.504 -0.2337 -0.1302 -0.5337
17884TIP3    H175067   5.429   5.664   5.585  0.5409  0.5992 -0.0877
17884TIP3    H275068   5.426   5.702   5.438 -0.1010  0.8390 -0.0151
17885TIP3   OH275069   2.734   5.051   5.559 -0.1087 -0.0021  0.0619
17885TIP3    H175070   2.793   5.022   5.490  0.9936 -0.8150  1.3013
17885TIP3    H275071   2.791   5.069   5.634 -1.3148  0.2945  0.9411
17886TIP3   OH275072   5.984   2.379  14.701 -0.0986 -0.2326  0.0801
17886TIP3    H175073   6.002   2.286  14.716 -0.9264 -0.4399 -0.1373
17886TIP3    H275074   6.025   2.397  14.616 -0.1076 -0.4567  0.0250
17887TIP3   OH275075   4.666   2.097   1.985  0.4977  0.7500 -0.0601
17887TIP3    H175076   4.713   2.179   1.995  1.0405  0.6157 -1.3411
17887TIP3    H275077   4.578   2.122   1.957 -0.2613  1.0010  2.3241
17888TIP3   OH275078   5.220   2.091   6.086  0.2113 -0.0533  0.5259
17888TIP3    H175079   5.139   2.067   6.131 -0.0594 -1.5818 -0.6664
17888TIP3    H275080   5.286   2.094   6.155 -1.0466  2.5396  1.7365
17889TIP3   OH275081   6.191   2.957   0.241  0.2508 -0.0641 -0.0967
17889TIP3    H175082   6.204   3.019   0.314  1.4226 -0.5240  0.0930
17889TIP3    H275083   6.163   3.013   0.168  3.2669  1.0621 -0.5438
17890TIP3   OH275084   3.140   1.862   0.828  0.2596  0.3707 -0.8173
17890TIP3    H175085   3.229   1.896   0.828  1.0251 -1.5384 -1.2473
17890TIP3    H275086   3.112   1.868   0.919  0.9859  0.5705 -0.6033
17891TIP3   OH275087   3.524   5.705  16.297  0.6467 -0.0302 -0.5925
17891TIP3    H175088   3.550   5.689  16.206  1.5052  0.3944 -0.4401
17891TIP3    H275089   3.481   5.790  16.295 -1.0737 -0.8748 -0.8935
17892TIP3   OH275090   5.816   2.792   4.186 -0.1046  0.1379 -0.0984
17892TIP3    H175091   5.902   2.763   4.156  0.6530  0.7984  1.3773
17892TIP3    H275092   5.815   2.774   4.280 -0.4856  2.6442  0.4579
17893TIP3   OH275093   0.776   1.583   3.094 -0.2759  0.7939  0.1389
17893TIP3    H175094   0.815   1.551   3.176  2.3513  1.9021 -0.5663
17893TIP3    H275095   0.726   1.509   3.061  1.0065 -0.6825  1.3068
17894TIP3   OH275096   0.174   2.596  13.581  0.1553 -0.6356  0.1259
17894TIP3    H175097   0.196   2.509  13.549 -0.7131 -0.6140 -0.5604
17894TIP3    H275098   0.089   2.586  13.624  0.7998 -0.4458  1.5259
17895TIP3   OH275099   0.211   4.713   1.848  0.5260  0.6874  0.2086
17895TIP3    H175100   0.265   4.676   1.918  0.6894  0.6530  0.0645
17895TIP3    H275101   0.183   4.799   1.882 -0.0946  0.3143  0.6642
17896TIP3   OH275102   3.798   2.252   5.259 -0.0644  0.0078 -0.2119
17896TIP3    H175103   3.707   2.254   5.229 -0.8138  2.0850  1.8982
17896TIP3    H275104   3.812   2.162   5.287 -1.1354 -0.5703 -1.4363
17897TIP3   OH275105   3.019   2.673  15.588 -0.1731  0.1898  0.6737
17897TIP3    H175106   2.966   2.748  15.615  0.1649  0.8140 -0.3043
17897TIP3    H275107   2.956   2.613  15.547 -0.2741  0.5227  0.3250
17898TIP3   OH275108   6.612   4.269   5.048  0.2457  0.5905  0.0115
17898TIP3    H175109   6.612   4.175   5.034 -1.1571  0.8439 -1.9389
17898TIP3    H275110   6.680   4.283   5.115  0.9448 -1.6952 -0.1524
17899TIP3   OH275111   1.845   2.211   0.704  0.5682  0.0060 -0.0183
17899TIP3    H175112   1.785   2.139   0.683  0.7009 -0.2724  0.5377
17899TIP3    H275113   1.896   2.223   0.624  0.4975 -0.4775 -0.1406
17900TIP3   OH275114   0.198   5.639  13.102  0.7248 -0.2278 -0.2242
17900TIP3    H175115   0.292   5.656  13.109  0.4033  1.4652  0.5060
17900TIP3    H275116   0.159   5.690  13.173 -0.7075 -1.4132 -0.1079
17901TIP3   OH275117   1.470   5.252  16.948 -0.6756  0.1739  0.2337
17901TIP3    H175118   1.432   5.264  17.035 -1.2127  0.9107 -0.0937
17901TIP3    H275119   1.558   5.291  16.955 -0.0578 -1.2442  0.8978
17902TIP3   OH275120   5.391   5.765   0.858 -0.0977  0.0009 -0.0508
17902TIP3    H175121   5.418   5.832   0.795  0.7514 -0.1001  0.1929
17902TIP3    H275122   5.350   5.814   0.929  0.7095  0.2891  0.2247
17903TIP3   OH275123   3.801   5.140  15.378 -0.0744 -0.0479 -0.2461
17903TIP3    H175124   3.825   5.052  15.349 -1.8366 -0.9216  0.8065
17903TIP3    H275125   3.706   5.140  15.380 -0.0893  1.5263  0.8270
17904TIP3   OH275126   3.325   0.961   2.556 -0.0004  0.4261  0.3947
17904TIP3    H175127   3.356   0.972   2.647  2.6826  1.2248 -0.5154
17904TIP3    H275128   3.341   0.868   2.537 -0.1166  0.3654  0.5902
17905TIP3   OH275129   1.904   6.569  12.516 -0.2433 -0.0298  0.6982
17905TIP3    H175130   1.855   6.551  12.436  0.4195 -1.3160  0.5594
17905TIP3    H275131   1.960   6.643  12.494  0.7370 -1.0639 -0.3946
17906TIP3   OH275132   6.394   1.014   2.901 -0.3293 -0.4473 -0.0608
17906TIP3    H175133   6.489   1.008   2.894 -0.3209 -0.3362 -0.0332
17906TIP3    H275134   6.378   1.053   2.987 -0.3689  0.8922 -0.6660
17907TIP3   OH275135   0.187   2.567   2.943  0.0346  0.0532 -0.0081
17907TIP3    H175136   0.251   2.519   2.995  0.4532 -0.1495 -0.6940
17907TIP3    H275137   0.232   2.648   2.919  0.2845 -0.3798 -1.0434
17908TIP3   OH275138   3.880   0.175  11.962  0.1739  0.2018  0.0391
17908TIP3    H175139   3.885   0.255  11.910  1.2883 -0.1602 -0.4468
17908TIP3    H275140   3.792   0.177  12.000  0.0526  1.4669 -0.2515
17909TIP3   OH275141   0.451   1.756   1.342 -0.3012 -1.0862  0.1993
17909TIP3    H175142   0.383   1.715   1.289  0.5519 -0.1904 -1.7195
17909TIP3    H275143   0.408   1.831   1.383  0.0977  1.6405 -3.7824
17910TIP3   OH275144   0.475   1.384  16.161  0.0574 -0.2700  0.4792
17910TIP3    H175145   0.417   1.371  16.236  2.7392 -1.3863  2.5079
17910TIP3    H275146   0.450   1.313  16.100 -1.5160  0.0652  0.6725
17911TIP3   OH275147   2.934   6.227   2.954 -0.4825  0.0950 -0.4506
17911TIP3    H175148   2.950   6.160   2.888 -0.8524 -0.6391  0.1952
17911TIP3    H275149   3.021   6.253   2.984 -0.2150  1.6454 -2.3842
17912TIP3   OH275150   1.355   1.074  11.113 -0.6564  0.1153  0.8659
17912TIP3    H175151   1.417   1.127  11.064  0.5748 -0.7670  1.4356
17912TIP3    H275152   1.303   1.029  11.046  1.4206 -1.5722  0.3015
17913TIP3   OH275153   4.041   2.436  11.554  0.2877  0.3512 -0.1869
17913TIP3    H175154   4.040   2.507  11.490  1.6593  1.7562  1.2547
17913TIP3    H275155   4.020   2.479  11.637  1.4543 -0.8521  0.7785
17914TIP3   OH275156   0.674   2.646   6.272  0.3282 -0.3472  0.1153
17914TIP3    H175157   0.607   2.577   6.278 -0.5174  0.5076  0.8195
17914TIP3    H275158   0.627   2.726   6.295  1.6274  0.2676  0.6939
17915TIP3   OH275159   0.442   6.794   3.150  0.1659  1.3077  0.2490
17915TIP3    H175160   0.357   6.750   3.142  0.4624  0.5805  0.8948
17915TIP3    H275161   0.436   6.869   3.091 -0.1091 -0.0004 -1.4908
17916TIP3   OH275162   0.043   5.140   5.664  0.6515 -0.9329  0.0006
17916TIP3    H175163   0.018   5.231   5.650  1.9852 -0.1829  1.9679
17916TIP3    H275164   0.120   5.128   5.609  0.6546 -0.7639 -0.0325
17917TIP3   OH275165   4.376   2.598   5.477  0.1987 -0.0453  0.0638
17917TIP3    H175166   4.311   2.655   5.518 -0.7457  0.6815 -2.2904
17917TIP3    H275167   4.344   2.509   5.492 -0.1065  0.1904  0.8652
17918TIP3   OH275168   3.709   4.073  12.236  0.3409  0.1227  0.5313
17918TIP3    H175169   3.637   4.052  12.177  1.3659 -0.7519 -0.4766
17918TIP3    H275170   3.679   4.149  12.285 -0.3857  1.2236 -1.4833
17919TIP3   OH275171   1.487   4.667   1.176 -0.0948  0.1749  0.0379
17919TIP3    H175172   1.450   4.709   1.098 -1.2301  2.1732  1.5944
17919TIP3    H275173   1.578   4.696   1.177  0.2072 -0.6384 -1.0141
17920TIP3   OH275174   2.746   3.062  16.006 -0.2689  0.0852  0.4269
17920TIP3    H175175   2.669   3.118  15.996  0.4126  0.9433 -0.1216
17920TIP3    H275176   2.713   2.974  15.990 -1.2087  0.4022  0.5397
17921TIP3   OH275177   3.513   0.479   2.531 -0.2098  0.4269  0.3576
17921TIP3    H175178   3.568   0.490   2.609 -2.0662 -2.6107  2.3464
17921TIP3    H275179   3.569   0.432   2.469 -0.1040 -1.7908  1.9863
17922TIP3   OH275180   2.480   6.756   3.105  0.0152  0.1190 -0.2125
17922TIP3    H175181   2.501   6.846   3.130  0.7996  0.3788 -1.6892
17922TIP3    H275182   2.551   6.704   3.143  0.1339  0.2628 -0.2329
17923TIP3   OH275183   2.381   1.114  12.421  0.0317  0.2447 -0.2177
17923TIP3    H175184   2.286   1.112  12.412 -0.2737 -0.1067  2.2573
17923TIP3    H275185   2.396   1.109  12.516  2.5868 -3.2359 -0.5868
17924TIP3   OH275186   5.704   2.214   3.882  0.0373 -0.3477  0.2658
17924TIP3    H175187   5.672   2.213   3.972 -1.3921 -0.9477 -0.2187
17924TIP3    H275188   5.684   2.302   3.850  2.3632  0.5792  1.0922
17925TIP3   OH275189   2.003   2.273   0.498 -0.9728  0.1369 -0.3583
17925TIP3    H175190   2.002   2.364   0.471 -3.0181  0.3117  0.1373
17925TIP3    H275191   1.982   2.224   0.418 -0.8458  0.1737 -0.4140
17926TIP3   OH275192   0.848   0.753  16.400 -0.3300 -0.2547 -0.7573
17926TIP3    H175193   0.926   0.768  16.454 -0.7953  1.0419 -0.3991
17926TIP3    H275194   0.786   0.819  16.430 -0.5660  0.6030 -2.9732
17927TIP3   OH275195   2.531   4.052  10.461 -0.2547 -0.0661  0.0982
17927TIP3    H175196   2.521   3.959  10.441 -0.1714 -0.4600  1.7220
17927TIP3    H275197   2.606   4.080  10.409 -0.6694 -0.7318 -0.8927
17928TIP3   OH275198   3.110   2.553   1.266  0.3850 -0.0641 -0.3581
17928TIP3    H175199   3.020   2.583   1.275  0.3805  0.3386 -1.5564
17928TIP3    H275200   3.123   2.493   1.340 -0.7738  0.0740 -0.0254
17929TIP3   OH275201   1.536   4.890  13.550  0.3572  0.2881 -0.1031
17929TIP3    H175202   1.456   4.942  13.545  0.7699  0.9759  0.3142
17929TIP3    H275203   1.549   4.857  13.461 -0.1942  0.4556 -0.2510
17930TIP3   OH275204   4.547   1.242  13.030 -0.7819 -0.2605 -0.1597
17930TIP3    H175205   4.587   1.192  12.958 -0.7500 -1.2871  0.5523
17930TIP3    H275206   4.489   1.179  13.073  0.9732 -0.3959  2.1846
17931TIP3   OH275207   1.511   3.611  12.241 -0.2027 -0.3821  0.2613
17931TIP3    H175208   1.450   3.677  12.272  0.1286  0.6378 -1.1595
17931TIP3    H275209   1.460   3.559  12.178 -0.1367 -0.7334  0.4981
17932TIP3   OH275210   1.458   2.172   5.913  0.4786 -0.6781 -0.1887
17932TIP3    H175211   1.427   2.105   5.974 -0.1990 -1.0917 -0.9653
17932TIP3    H275212   1.450   2.132   5.827  1.5342 -0.1430 -0.5555
17933TIP3   OH275213   4.756   2.785  11.521 -0.5615 -0.1987  0.1208
17933TIP3    H175214   4.665   2.766  11.502 -0.2482 -0.1001 -1.6053
17933TIP3    H275215   4.777   2.861  11.467  0.4353  0.0475  0.8141
17934TIP3   OH275216   1.015   2.380  11.087 -0.3328  0.1418 -0.2372
17934TIP3    H175217   0.973   2.298  11.111  1.1772 -0.8898 -0.9806
17934TIP3    H275218   1.016   2.431  11.169 -1.6830 -0.3642  0.1199
17935TIP3   OH275219   3.032   1.070   3.031 -0.9534  0.7513  0.0521
17935TIP3    H175220   2.969   1.035   3.094  0.7778 -0.4281  1.2360
17935TIP3    H275221   3.050   0.997   2.972 -0.4736  0.9755 -0.0835
17936TIP3   OH275222   3.172   2.102   4.237 -0.2677 -0.0016  0.7969
17936TIP3    H175223   3.248   2.045   4.228 -0.0142  0.1842  1.6426
17936TIP3    H275224   3.209   2.189   4.248 -0.6102  0.1364  0.8530
17937TIP3   OH275225   1.925   6.297   0.588 -0.5482 -0.1486  0.3692
17937TIP3    H175226   1.866   6.369   0.566  1.0002  0.7768 -0.9544
17937TIP3    H275227   1.974   6.328   0.664 -0.7679 -0.3324  0.5869
17938TIP3   OH275228   0.722   6.602  11.152  0.2322 -0.3173 -0.0676
17938TIP3    H175229   0.732   6.626  11.244 -0.4727 -2.0700  0.4958
17938TIP3    H275230   0.638   6.640  11.126 -0.8348 -1.9651  0.7926
17939TIP3   OH275231   2.857   4.619   5.996 -0.0525 -0.5581  0.0234
17939TIP3    H175232   2.903   4.703   5.986  2.0903 -1.7587 -0.8075
17939TIP3    H275233   2.784   4.639   6.054  2.4593  1.1702  2.9022
17940TIP3   OH275234   4.435   0.232   6.457  0.0092 -0.4906 -0.4464
17940TIP3    H175235   4.397   0.240   6.370  2.6811  0.1600 -1.6359
17940TIP3    H275236   4.423   0.140   6.480 -0.3469 -0.7727 -1.6773
17941TIP3   OH275237   1.477   1.983   0.495  0.0898  0.2836 -0.1567
17941TIP3    H175238   1.515   2.071   0.495  0.7159  0.0150 -0.2887
17941TIP3    H275239   1.546   1.928   0.531  0.4660 -0.4776 -1.9215
17942TIP3   OH275240   1.296   1.175   3.931  0.0183  0.2857  0.2181
17942TIP3    H175241   1.342   1.147   4.010 -0.6562  0.9749  0.8816
17942TIP3    H275242   1.222   1.115   3.924  1.2979 -1.2276 -1.2044
17943TIP3   OH275243   5.562   4.326  13.076  0.2003 -0.6943 -0.5930
17943TIP3    H175244   5.530   4.307  12.988  2.4000 -2.2054 -1.1554
17943TIP3    H275245   5.516   4.263  13.132  0.5216 -1.3458 -1.0435
17944TIP3   OH275246   4.063   2.589  13.381  0.0410  1.3024 -0.4817
17944TIP3    H175247   4.059   2.634  13.465 -0.2756  1.6141 -0.6634
17944TIP3    H275248   4.102   2.504  13.402 -2.1350  0.4412  0.4029
17945TIP3   OH275249   6.709   0.236   6.499  0.2351 -0.3295  0.5450
17945TIP3    H175250   6.701   0.171   6.429 -1.4322  0.2196  0.1988
17945TIP3    H275251   6.718   0.183   6.579  0.7033 -0.9637  0.0861
17946TIP3   OH275252   3.376   3.643   0.968  0.4543  0.2038  0.0539
17946TIP3    H175253   3.282   3.635   0.985  0.3200 -0.5161 -0.9617
17946TIP3    H275254   3.417   3.596   1.041 -0.0527 -1.1248 -0.4680
17947TIP3   OH275255   6.422   3.276  12.487  0.3023  0.1954  0.2192
17947TIP3    H175256   6.411   3.305  12.396  3.1263  1.3334  0.1222
17947TIP3    H275257   6.451   3.186  12.479  1.6664  0.6370 -0.1364
17948TIP3   OH275258   2.806   1.366  15.592  0.3993 -0.2097 -0.1376
17948TIP3    H175259   2.713   1.387  15.595  0.3574 -0.5208  1.2495
17948TIP3    H275260   2.826   1.359  15.498 -0.4207  2.1801 -0.5491
17949TIP3   OH275261   1.233   2.732   1.189  0.0411 -0.0031  0.4229
17949TIP3    H175262   1.316   2.725   1.236  0.0406  1.3015  0.6622
17949TIP3    H275263   1.166   2.727   1.258 -0.0362  0.0650  0.3524
17950TIP3   OH275264   0.785   5.313   5.097  0.1932 -0.3641 -0.5289
17950TIP3    H175265   0.850   5.382   5.110  1.0445 -0.7909 -2.2406
17950TIP3    H275266   0.832   5.232   5.113  0.1069 -0.6784 -1.8097
17951TIP3   OH275267   0.160   4.665  12.853  0.4157  0.3627  0.4400
17951TIP3    H175268   0.136   4.688  12.943 -0.3357  0.7931  0.1352
17951TIP3    H275269   0.247   4.625  12.862  0.7214  1.1487  1.2650
17952TIP3   OH275270   0.872   0.947  11.432  0.1795  0.1107  0.2344
17952TIP3    H175271   0.859   0.905  11.347 -0.9552  0.2367  0.3259
17952TIP3    H275272   0.844   0.881  11.495 -1.1786  0.8128  0.4002
17953TIP3   OH275273   0.008   5.940  12.098 -0.2842  0.2055  0.4827
17953TIP3    H175274  -0.015   5.904  12.013 -0.7622  0.7601  0.3637
17953TIP3    H275275  -0.038   5.884  12.161  0.7300 -0.7067  0.4346
17954TIP3   OH275276   3.386   0.215  13.537 -0.2226  0.2392  0.4157
17954TIP3    H175277   3.465   0.268  13.522  0.3491 -0.7852 -0.2971
17954TIP3    H275278   3.390   0.146  13.470 -2.0132  0.4767  0.0012
17955TIP3   OH275279   3.159   2.875  13.551 -0.6919  0.3316 -0.1429
17955TIP3    H175280   3.206   2.887  13.633  0.7622  0.3478 -0.9531
17955TIP3    H275281   3.226   2.847  13.489 -1.8188  0.0349 -1.2607
17956TIP3   OH275282   5.257   2.428   4.675  0.5992  0.0293  0.4807
17956TIP3    H175283   5.193   2.357   4.678  1.1187 -0.4983 -0.3885
17956TIP3    H275284   5.261   2.451   4.582  1.9250 -0.2000  0.4690
17957TIP3   OH275285   1.384   5.298  13.704  0.0807 -0.6390 -0.0748
17957TIP3    H175286   1.337   5.285  13.786 -0.0967 -2.2171 -0.3866
17957TIP3    H275287   1.476   5.308  13.730 -0.0150 -0.8308  0.3428
17958TIP3   OH275288   1.655   2.219  16.161  0.4516 -0.3498 -0.5700
17958TIP3    H175289   1.645   2.313  16.152  0.8234 -0.4083 -1.6742
17958TIP3    H275290   1.712   2.209  16.238 -2.9003  0.1377  2.2165
17959TIP3   OH275291   2.104   0.644   0.797  0.5307  0.6623 -0.4569
17959TIP3    H175292   2.133   0.589   0.724  2.7528 -0.0449  0.8504
17959TIP3    H275293   2.144   0.729   0.781  0.6635  0.6350 -0.2635
17960TIP3   OH275294   0.662   1.710   2.892  0.7006 -0.2997 -0.0484
17960TIP3    H175295   0.697   1.706   2.981  0.7316 -0.3486 -0.0625
17960TIP3    H275296   0.688   1.796   2.859  0.6072 -0.2434  0.0236
17961TIP3   OH275297   0.319   3.438   5.254 -0.1720  0.0472  0.6665
17961TIP3    H175298   0.365   3.398   5.327 -0.3485 -0.6564  0.4044
17961TIP3    H275299   0.234   3.465   5.290  0.1497  0.6634  0.9686
17962TIP3   OH275300   0.814   2.554   5.919  0.0827  0.0750  0.2345
17962TIP3    H175301   0.817   2.546   6.014  0.1685 -0.5452  0.1786
17962TIP3    H275302   0.892   2.606   5.896  0.3453 -0.2268  0.4519
17963TIP3   OH275303   6.113   0.437   5.845 -0.5573 -0.0413 -0.3883
17963TIP3    H175304   6.023   0.411   5.826 -1.0739  2.1743 -1.3504
17963TIP3    H275305   6.104   0.516   5.899  0.6270  2.0518 -2.9931
17964TIP3   OH275306   2.175   4.365   1.595  0.7382  0.4013  0.1858
17964TIP3    H175307   2.258   4.318   1.582  0.3038 -0.3692  0.1762
17964TIP3    H275308   2.135   4.323   1.671  1.0828  1.8141  1.2138
17965TIP3   OH275309   4.394   6.726   3.904 -0.5955  0.0105  0.1020
17965TIP3    H175310   4.360   6.797   3.957 -0.0522  0.0268  0.4438
17965TIP3    H275311   4.380   6.647   3.957  1.7551  0.2526  1.1979
17966TIP3   OH275312   2.354   4.837  15.588 -0.1556  0.4506  0.8650
17966TIP3    H175313   2.404   4.831  15.669 -0.8147  0.1122  1.2497
17966TIP3    H275314   2.421   4.844  15.520  0.4083  0.4975  1.4106
17967TIP3   OH275315   6.705   0.514   3.209  0.4015  0.0208  0.8688
17967TIP3    H175316   6.744   0.488   3.125  1.9546  0.2785  1.4646
17967TIP3    H275317   6.780   0.542   3.262 -0.5251 -0.2782  2.3997
17968TIP3   OH275318   1.862   4.089  14.686 -0.3648  0.5219 -0.4914
17968TIP3    H175319   1.878   4.183  14.688  3.8456 -0.0231  1.0833
17968TIP3    H275320   1.920   4.053  14.753 -2.3503 -3.1942 -0.5014
17969TIP3   OH275321   2.108   0.258  15.975 -0.1376 -0.2461  0.3540
17969TIP3    H175322   2.136   0.333  16.028 -0.9669  0.7318 -0.5709
17969TIP3    H275323   2.190   0.212  15.955  0.1936 -0.8554  2.7256
17970TIP3   OH275324   5.204   3.189   4.818  0.4675  0.9191 -0.1448
17970TIP3    H175325   5.241   3.161   4.734 -2.8577  0.6988 -1.7199
17970TIP3    H275326   5.242   3.129   4.882  0.3969 -1.3430 -2.0816
17971TIP3   OH275327   5.290   5.102  11.924 -0.1960 -0.2505 -0.6211
17971TIP3    H175328   5.283   5.197  11.931 -0.5921 -0.4129  1.9577
17971TIP3    H275329   5.383   5.084  11.940 -0.0158 -0.3109 -1.6249
17972TIP3   OH275330   3.868   5.522  14.619 -0.1416 -0.3695  0.2608
17972TIP3    H175331   3.928   5.467  14.568  1.1404  1.0675  0.1402
17972TIP3    H275332   3.781   5.496  14.590  0.4576 -1.7442 -0.3918
17973TIP3   OH275333   0.958   0.612   0.518  0.2932  0.2566 -0.9104
17973TIP3    H175334   0.894   0.605   0.588  1.2174 -1.0009 -0.1614
17973TIP3    H275335   0.920   0.560   0.446  1.2333 -2.0399  0.1589
17974TIP3   OH275336   3.294   1.679  12.081 -0.0962 -0.2501  0.2817
17974TIP3    H175337   3.329   1.765  12.103 -0.0238  0.0679 -1.0292
17974TIP3    H275338   3.337   1.620  12.143  0.3906  0.5544  0.7287
17975TIP3   OH275339   5.550   4.623   3.769 -0.5241 -0.6516  0.1622
17975TIP3    H175340   5.535   4.606   3.676 -2.3213 -0.4852  0.3790
17975TIP3    H275341   5.611   4.697   3.771 -1.4849  0.1946 -0.9180
17976TIP3   OH275342   6.677   6.557  13.361 -0.1375 -0.3606 -0.0027
17976TIP3    H175343   6.638   6.618  13.424 -0.6069 -0.7399  0.0763
17976TIP3    H275344   6.604   6.529  13.306  0.4390  0.8584 -1.4927
17977TIP3   OH275345   1.201   1.699   5.327 -0.4800  0.5783  0.0345
17977TIP3    H175346   1.274   1.666   5.379 -0.1181 -1.5592 -1.6829
17977TIP3    H275347   1.243   1.755   5.262  0.1273 -2.5417 -2.5086
17978TIP3   OH275348   3.808   0.669  15.277  0.3076  0.1677 -0.4485
17978TIP3    H175349   3.830   0.761  15.285  1.8064 -0.0939 -1.2418
17978TIP3    H275350   3.820   0.634  15.366 -1.1097  0.8544  0.0595
17979TIP3   OH275351   6.518   0.825   0.498  0.1536 -0.7382 -0.2257
17979TIP3    H175352   6.572   0.812   0.576  0.7779 -0.7448 -0.6525
17979TIP3    H275353   6.478   0.911   0.510  1.4893 -0.0399 -0.6268
17980TIP3   OH275354   3.239   0.935   2.175 -0.1565  0.2245  0.6801
17980TIP3    H175355   3.214   0.843   2.172  0.2413  0.0580  1.7719
17980TIP3    H275356   3.215   0.963   2.263  0.9337  0.7880  0.8202
17981TIP3   OH275357   1.429   1.644   1.807  0.1584  0.6577  0.0003
17981TIP3    H175358   1.424   1.710   1.877  1.1059  1.6252 -0.8114
17981TIP3    H275359   1.338   1.631   1.781 -0.5743 -1.6212  3.0640
17982TIP3   OH275360   0.804   0.508  11.337 -0.4576 -0.4234  0.5436
17982TIP3    H175361   0.733   0.501  11.401 -0.6269  1.1100  0.5498
17982TIP3    H275362   0.832   0.599  11.342  0.7526 -0.7289 -0.2827
17983TIP3   OH275363   2.138   4.977  16.399 -0.3297  0.1258  0.2451
17983TIP3    H175364   2.226   4.990  16.435 -0.0180  0.0094 -0.4723
17983TIP3    H275365   2.131   4.883  16.385 -0.6240  0.1183  0.4225
17984TIP3   OH275366   3.829   4.745  12.470  0.2295 -0.0371 -0.2799
17984TIP3    H175367   3.825   4.651  12.488 -0.1451  0.2601  1.3603
17984TIP3    H275368   3.751   4.761  12.417 -0.7927 -0.3615  1.0616
17985TIP3   OH275369   1.684   5.428   5.416 -0.1577  0.6706  0.5812
17985TIP3    H175370   1.635   5.394   5.491 -1.9353  0.4584 -0.5976
17985TIP3    H275371   1.669   5.522   5.418  3.1543  1.3063  2.7240
17986TIP3   OH275372   6.749   5.907   5.091 -0.0368 -0.5602 -0.1743
17986TIP3    H175373   6.787   5.851   5.159 -0.4413  0.0174  0.5368
17986TIP3    H275374   6.675   5.950   5.134  0.3417  0.6176 -0.6840
17987TIP3   OH275375   5.603   3.028  15.213 -0.3684 -0.3251  0.4419
17987TIP3    H175376   5.583   3.110  15.168  0.8682 -0.5492 -0.5776
17987TIP3    H275377   5.694   3.009  15.190 -0.9098 -2.5153 -0.2090
17988TIP3   OH275378   3.706   1.396  10.642  0.2674 -0.1355 -0.4092
17988TIP3    H175379   3.731   1.314  10.599  1.4958 -0.8569  1.5548
17988TIP3    H275380   3.652   1.441  10.577 -0.0938 -2.2907 -1.7126
17989TIP3   OH275381   1.773   1.676  12.919  0.1101  0.3282  0.3298
17989TIP3    H175382   1.767   1.654  12.826  4.0397  1.4129 -0.3500
17989TIP3    H275383   1.731   1.603  12.963 -0.8231 -0.8152 -2.2450
17990TIP3   OH275384   1.640   3.191   3.157 -0.1049  0.2954 -0.3746
17990TIP3    H175385   1.687   3.112   3.183 -1.1752  0.2982  1.8022
17990TIP3    H275386   1.575   3.160   3.093  2.4339  0.2407 -3.1305
17991TIP3   OH275387   0.471   0.805   1.115  0.0906 -0.2418  0.3600
17991TIP3    H175388   0.424   0.872   1.164  0.0824 -1.2663  1.8041
17991TIP3    H275389   0.409   0.732   1.108  0.2909 -0.3294 -0.6978
17992TIP3   OH275390   4.147   2.837  12.034 -0.1861  0.5024 -0.3065
17992TIP3    H175391   4.163   2.895  11.959 -0.3395  0.3438 -0.4608
17992TIP3    H275392   4.227   2.784  12.040  0.0006  0.8012 -0.0987
17993TIP3   OH275393   1.694   4.986  13.741  0.6415 -0.1722 -0.2726
17993TIP3    H175394   1.784   4.971  13.710  0.6882  0.8251 -0.6565
17993TIP3    H275395   1.639   4.940  13.677  0.8783 -1.0791  0.1560
17994TIP3   OH275396   3.158   1.147  14.095  0.1779 -0.3128  0.3136
17994TIP3    H175397   3.253   1.148  14.095  0.2270 -0.4378  2.6233
17994TIP3    H275398   3.134   1.072  14.040  1.4858 -1.9179  1.8475
17995TIP3   OH275399   3.765   2.510  15.460  0.0396 -0.5297  0.0897
17995TIP3    H175400   3.808   2.556  15.532 -0.8145 -0.3181  0.4769
17995TIP3    H275401   3.772   2.570  15.386  0.3157 -0.4514  0.1781
17996TIP3   OH275402   2.045   5.711  12.036  1.1870 -0.3973  0.0658
17996TIP3    H175403   1.983   5.652  11.992 -0.0410 -0.1859  1.4421
17996TIP3    H275404   2.022   5.798  12.004  0.2953 -0.2438  1.0361
17997TIP3   OH275405   6.408   3.695   1.719  0.4063 -0.2472  0.5492
17997TIP3    H175406   6.394   3.709   1.626  0.1251 -1.0284  0.4631
17997TIP3    H275407   6.480   3.633   1.724  0.6971  0.1136  0.8644
17998TIP3   OH275408   4.680   1.236   2.857  0.0752 -0.4155  0.0840
17998TIP3    H175409   4.740   1.310   2.861 -0.9842  0.4118  2.2125
17998TIP3    H275410   4.736   1.159   2.862  1.0520  0.2859  0.2272
17999TIP3   OH275411   4.137   1.587  14.984  0.9801 -0.5207 -0.1437
17999TIP3    H175412   4.095   1.528  15.046 -2.5367  0.8301 -0.9770
17999TIP3    H275413   4.155   1.666  15.035  0.3397 -0.2890 -0.2631
18000TIP3   OH275414   6.539   1.787  16.419 -0.5701 -0.3006 -0.2767
18000TIP3    H175415   6.542   1.765  16.512 -1.2670  1.9386  0.3191
18000TIP3    H275416   6.450   1.764  16.392 -0.5053 -0.5437 -0.2860
18001TIP3   OH275417   4.613   0.180   5.769 -0.1822  0.5602  0.3778
18001TIP3    H175418   4.562   0.120   5.824  1.1680 -0.5375  0.5009
18001TIP3    H275419   4.559   0.259   5.763 -1.1746  0.0341  1.7698
18002TIP3   OH275420   5.950   4.934   6.449  0.0357  0.0013  0.4709
18002TIP3    H175421   5.903   5.014   6.424  0.9491  0.3703 -0.1325
18002TIP3    H275422   5.888   4.886   6.503 -0.7546  0.8331  0.3378
18003TIP3   OH275423   4.314   5.544  16.877 -0.0899  0.5565  0.0150
18003TIP3    H175424   4.365   5.530  16.957 -0.1017  0.3668 -0.0107
18003TIP3    H275425   4.223   5.544  16.907 -0.0649  1.1407  0.0967
18004TIP3   OH275426   6.702   2.489  12.868  0.0113  0.1005  0.2853
18004TIP3    H175427   6.644   2.510  12.795  0.4554  0.6685  0.0826
18004TIP3    H275428   6.677   2.401  12.895  1.1783 -0.9497 -1.8746
18005TIP3   OH275429   6.164   4.304   4.403 -0.3874 -0.0713  0.2655
18005TIP3    H175430   6.173   4.261   4.318  1.9836 -0.3145  0.5566
18005TIP3    H275431   6.175   4.397   4.384  0.5699 -0.1601  0.3152
18006TIP3   OH275432   5.297   6.600  13.107  0.0166  0.3698  0.1453
18006TIP3    H175433   5.342   6.683  13.122 -0.0011  0.6014 -0.9857
18006TIP3    H275434   5.218   6.623  13.059  1.5081 -0.5078 -3.0037
18007TIP3   OH275435   1.082   0.347   1.760 -0.0273 -0.3950  0.3392
18007TIP3    H175436   1.068   0.415   1.694 -0.4678 -0.5348  0.2877
18007TIP3    H275437   1.054   0.387   1.842  1.3084  0.0741  0.5906
18008TIP3   OH275438   2.985   4.594   0.258 -0.1752 -0.6281  0.5733
18008TIP3    H175439   2.983   4.568   0.166 -2.8663 -0.3377  0.4530
18008TIP3    H275440   2.914   4.544   0.298 -1.6671  2.0521  1.5644
18009TIP3   OH275441   0.279   2.612   3.914 -0.6074 -0.6455  0.5708
18009TIP3    H175442   0.305   2.532   3.958 -0.4328 -0.2396  1.2104
18009TIP3    H275443   0.269   2.676   3.984 -0.5815 -0.0657  0.0496
18010TIP3   OH275444   0.141   2.901  13.632  0.3305  0.3317 -0.4099
18010TIP3    H175445   0.055   2.863  13.648 -0.0740  1.5872  0.5443
18010TIP3    H275446   0.197   2.826  13.608 -1.0846 -0.4503 -1.3941
18011TIP3   OH275447   4.206   1.622  10.427  0.1281 -0.1810  0.1142
18011TIP3    H175448   4.290   1.659  10.401 -0.0898 -1.1743 -2.2302
18011TIP3    H275449   4.144   1.693  10.414  0.1679 -0.3811 -1.2496
18012TIP3   OH275450   0.161   4.734   3.630 -0.1286 -0.7385  0.1429
18012TIP3    H175451   0.214   4.771   3.560 -0.0498  0.2140  0.6766
18012TIP3    H275452   0.190   4.780   3.709 -0.3148 -1.6799  0.7813
18013TIP3   OH275453   5.825   6.576   1.245  0.2209  0.2737  0.1510
18013TIP3    H175454   5.744   6.618   1.216  0.2968 -0.2940 -0.9309
18013TIP3    H275455   5.824   6.490   1.203  0.7467 -0.2735  1.1943
18014TIP3   OH275456   1.522   5.345  11.455 -0.1119 -0.1826 -0.1467
18014TIP3    H175457   1.613   5.348  11.423 -0.0139  2.3130  0.1597
18014TIP3    H275458   1.471   5.316  11.379  0.6377  1.1800 -1.2271
18015TIP3   OH275459   3.666   6.297  16.581 -0.3752 -0.2653  0.2673
18015TIP3    H175460   3.703   6.349  16.652 -0.4484 -0.6976  0.6238
18015TIP3    H275461   3.722   6.220  16.575 -1.1270 -0.8641  0.7243
18016TIP3   OH275462   4.643   3.716   6.134 -0.0138  0.0446 -0.4964
18016TIP3    H175463   4.713   3.772   6.099  1.4051  0.3898  2.5724
18016TIP3    H275464   4.689   3.641   6.171 -1.5334 -0.9588 -0.5435
18017TIP3   OH275465   4.654   2.416   2.593  0.0050 -0.2894  0.1070
18017TIP3    H175466   4.685   2.498   2.630  3.9038 -0.5966 -2.0137
18017TIP3    H275467   4.695   2.348   2.647  0.6848 -0.7661 -0.9872
18018TIP3   OH275468   3.032   3.952  14.638  0.0634 -0.0380  0.2810
18018TIP3    H175469   2.979   3.899  14.579 -0.0385  0.8831 -0.4800
18018TIP3    H275470   2.997   4.040  14.630  1.2548  0.4603  0.2831
18019TIP3   OH275471   5.527   4.798  14.945 -0.1045  0.5295  0.0619
18019TIP3    H175472   5.475   4.868  14.904  1.4284  1.1503 -0.9172
18019TIP3    H275473   5.462   4.742  14.987 -1.5374  1.4899 -0.7667
18020TIP3   OH275474   3.039   2.883   2.955 -0.0722  0.2486 -0.0886
18020TIP3    H175475   3.006   2.815   2.896 -2.7869  1.8357 -0.5592
18020TIP3    H275476   3.098   2.936   2.901 -0.2638 -0.0144 -0.5548
18021TIP3   OH275477   3.459   5.476  12.908 -0.0941  0.4572  0.3342
18021TIP3    H175478   3.505   5.393  12.896  1.4402  1.3420 -0.3634
18021TIP3    H275479   3.376   5.453  12.948 -0.3691 -1.5674 -1.2298
18022TIP3   OH275480   3.914   3.840   1.659  0.5436 -0.2622  0.4770
18022TIP3    H175481   3.999   3.796   1.647  1.4654  1.3917  0.6444
18022TIP3    H275482   3.908   3.901   1.586 -0.5858 -0.4491  0.4019
18023TIP3   OH275483   3.706   3.684   4.208  0.0177 -0.6722  0.2440
18023TIP3    H175484   3.800   3.697   4.197  0.2610 -0.9872  1.7170
18023TIP3    H275485   3.695   3.589   4.211 -0.0043 -0.6425  2.4192
18024TIP3   OH275486   1.775   6.058   3.379  0.5376 -0.2419  0.0291
18024TIP3    H175487   1.856   6.062   3.328  0.9907  1.7162  0.8150
18024TIP3    H275488   1.705   6.069   3.313  1.0983  1.8953 -0.2798
18025TIP3   OH275489   5.504   6.135  16.752  0.1556 -0.4403 -0.0339
18025TIP3    H175490   5.517   6.040  16.757 -0.5047 -0.5735 -0.7237
18025TIP3    H275491   5.582   6.172  16.793  0.6621 -1.2777 -0.2265
18026TIP3   OH275492   3.452   6.183  16.739  0.1264  0.2513  0.3519
18026TIP3    H175493   3.536   6.211  16.703  1.0912 -0.9660  1.5491
18026TIP3    H275494   3.392   6.185  16.664  1.0463  1.7217 -0.3955
18027TIP3   OH275495   2.486   3.924  11.454 -0.4798 -0.1779 -0.0148
18027TIP3    H175496   2.404   3.960  11.419  0.3277  1.6167 -0.1672
18027TIP3    H275497   2.516   3.863  11.386 -0.4842  0.9731 -1.0937
18028TIP3   OH275498   5.837   0.181   3.597 -0.0305 -0.3949  0.4286
18028TIP3    H175499   5.830   0.094   3.636 -0.9176 -0.4184  0.2512
18028TIP3    H275500   5.908   0.223   3.644  0.7193 -1.3703  0.2061
18029TIP3   OH275501   4.171   6.114   0.456 -0.0290  0.1863  0.2129
18029TIP3    H175502   4.084   6.154   0.456  0.0279  0.3229 -0.4859
18029TIP3    H275503   4.158   6.028   0.498 -0.8011 -0.4078 -1.1684
18030TIP3   OH275504   5.694   4.866  16.362 -0.4069  0.4649 -0.5047
18030TIP3    H175505   5.635   4.922  16.412  1.2796  0.2325  1.8993
18030TIP3    H275506   5.652   4.780  16.363 -0.2252  0.3730  0.9211
18031TIP3   OH275507   4.039   1.381  15.663  0.1486  0.1436  0.0897
18031TIP3    H175508   4.096   1.320  15.709 -0.8299 -1.6584 -0.9807
18031TIP3    H275509   4.038   1.460  15.718  0.9328 -1.0303  1.8541
18032TIP3   OH275510   0.376   2.022   3.595 -0.1452 -0.5883  0.0193
18032TIP3    H175511   0.383   1.996   3.687  1.3641  1.6568  0.6258
18032TIP3    H275512   0.315   2.096   3.596  0.8923  0.2988 -0.5571
18033TIP3   OH275513   0.287   4.655  15.618 -0.5244 -0.0532 -0.2439
18033TIP3    H175514   0.273   4.673  15.525  0.6369 -0.6335 -0.5681
18033TIP3    H275515   0.205   4.677  15.660 -1.5605 -1.1032 -1.6154
18034TIP3   OH275516   2.749   1.108   3.453 -0.6844  0.5064 -0.2578
18034TIP3    H175517   2.774   1.201   3.449 -1.6700  0.7331 -2.9999
18034TIP3    H275518   2.672   1.107   3.510  0.7271  0.9316  1.8035
18035TIP3   OH275519   3.576   0.695   0.328  0.0901 -0.0425 -0.0209
18035TIP3    H175520   3.672   0.691   0.320  0.2310 -1.1911  1.6336
18035TIP3    H275521   3.546   0.730   0.244  1.7358 -2.8314 -1.9255
18036TIP3   OH275522   5.401   3.177   4.622 -0.1556 -0.0979 -0.0184
18036TIP3    H175523   5.478   3.131   4.655 -0.2899  0.6403  1.4376
18036TIP3    H275524   5.431   3.267   4.611 -0.1404 -0.3111 -1.9361
18037TIP3   OH275525   6.579   0.754   3.860 -0.3125 -0.4305  0.5608
18037TIP3    H175526   6.532   0.829   3.895  0.9879 -1.2131  4.5293
18037TIP3    H275527   6.671   0.783   3.857  0.1222 -1.5989  1.6184
18038TIP3   OH275528   3.627   4.081   0.144  1.0804 -0.0211 -0.0786
18038TIP3    H175529   3.569   4.005   0.134 -1.0869  1.6765 -1.2444
18038TIP3    H275530   3.659   4.098   0.055  2.1338  0.0425  0.2973
18039TIP3   OH275531   1.898   2.637   3.376 -0.2714  0.6653  0.2776
18039TIP3    H175532   1.951   2.576   3.428  0.7966  0.5836 -0.8381
18039TIP3    H275533   1.921   2.616   3.285 -1.1536  1.6194 -0.1827
18040TIP3   OH275534   0.857   0.717  13.747 -0.0163  0.5002 -0.2798
18040TIP3    H175535   0.787   0.741  13.807 -0.3270 -1.5287  0.2377
18040TIP3    H275536   0.819   0.650  13.691  1.4861 -0.6690  0.0345
18041TIP3   OH275537   6.786   6.081   3.613 -0.8606  0.5826  0.1526
18041TIP3    H175538   6.866   6.118   3.575 -0.6508 -0.8004 -0.8081
18041TIP3    H275539   6.739   6.157   3.647  0.2600  1.5663 -0.4161
18042TIP3   OH275540   3.900   4.622  13.970 -0.0033  0.6848  0.3522
18042TIP3    H175541   3.850   4.688  13.922 -0.8686  0.7843  1.3470
18042TIP3    H275542   3.991   4.653  13.965 -0.3363  1.7415  0.4392
18043TIP3   OH275543   1.910   5.593  15.809 -0.6140  0.2834 -0.1130
18043TIP3    H175544   1.854   5.552  15.874 -1.2022 -1.6910 -1.7567
18043TIP3    H275545   1.858   5.667  15.776 -1.9801 -1.0056 -1.0047
18044TIP3   OH275546   1.767   1.997   4.518 -0.3071  0.5363  0.2658
18044TIP3    H175547   1.834   1.953   4.465  0.1427  0.6386  0.7499
18044TIP3    H275548   1.776   1.958   4.605  0.2895  1.7893  0.7777
18045TIP3   OH275549   3.097   0.168   3.119 -0.1574 -0.4165 -0.3714
18045TIP3    H175550   3.162   0.149   3.052 -1.3390 -1.1476 -1.3591
18045TIP3    H275551   3.142   0.152   3.202  0.9368 -0.7961 -1.0231
18046TIP3   OH275552   1.836   0.353  13.102  0.1786 -0.4843  0.6248
18046TIP3    H175553   1.873   0.279  13.054 -1.2264 -1.2935  0.7251
18046TIP3    H275554   1.807   0.414  13.034 -1.1279 -1.2891  0.4212
18047TIP3   OH275555   4.945   5.453   0.247  0.6101 -0.4309 -0.2477
18047TIP3    H175556   4.894   5.497   0.179  0.6684  0.0728  0.0290
18047TIP3    H275557   4.904   5.367   0.256  0.1557 -0.2338 -0.4137
18048TIP3   OH275558   1.045   2.211   3.024  0.2276  0.2382 -0.2798
18048TIP3    H175559   0.972   2.168   3.069  1.3932  1.1259  2.7141
18048TIP3    H275560   1.047   2.299   3.060  1.7824  0.7727 -1.5495
18049TIP3   OH275561   5.952   2.351  12.129 -0.0183 -0.3734  0.0628
18049TIP3    H175562   6.036   2.330  12.089  0.5225  2.3548 -0.3993
18049TIP3    H275563   5.925   2.269  12.171  2.9959 -1.2723  0.4990
18050TIP3   OH275564   2.200   1.077  17.084 -0.3005  0.1988 -0.5634
18050TIP3    H175565   2.244   1.140  17.027 -0.4634 -0.1101 -1.0315
18050TIP3    H275566   2.193   0.998  17.031 -0.5176 -0.0672 -0.1366
18051TIP3   OH275567   1.728   3.930  13.098  0.0256 -0.0890 -0.4508
18051TIP3    H175568   1.660   3.899  13.037 -2.5160 -1.3952  2.7459
18051TIP3    H275569   1.678   3.965  13.172  2.9346  1.5803  0.8585
18052TIP3   OH275570   1.280   1.898  14.908 -0.7371 -0.0132 -0.2587
18052TIP3    H175571   1.190   1.876  14.885 -0.7261  1.0103 -1.3813
18052TIP3    H275572   1.271   1.963  14.978 -1.0312  2.5207 -2.4943
18053TIP3   OH275573   2.645   6.242   3.238  0.3523 -0.0714  0.2031
18053TIP3    H175574   2.559   6.268   3.272  0.7347  0.8205  0.5127
18053TIP3    H275575   2.687   6.197   3.311 -0.6642 -2.4849 -0.6140
18054TIP3   OH275576   3.948   4.259  11.386  0.3996 -0.1537  0.1077
18054TIP3    H175577   3.872   4.316  11.376  0.4947  0.0442  0.4708
18054TIP3    H275578   3.917   4.172  11.361  0.4064  0.1555 -0.9940
18055TIP3   OH275579   1.374   6.659   5.178 -0.8642  0.5005  0.5133
18055TIP3    H175580   1.395   6.752   5.174 -0.4006  0.3848  0.0251
18055TIP3    H275581   1.380   6.629   5.087  0.3174 -0.2857  0.8254
18056TIP3   OH275582   3.845   6.773   5.803  0.2807  0.2184 -0.1807
18056TIP3    H175583   3.912   6.841   5.797  1.4452 -0.9797 -1.3178
18056TIP3    H275584   3.877   6.702   5.747 -0.5712 -1.5485  1.4415
18057TIP3   OH275585   2.834   4.193  11.824 -0.7476 -0.0010 -0.1630
18057TIP3    H175586   2.836   4.122  11.888  0.1625 -1.0153 -1.2608
18057TIP3    H275587   2.847   4.149  11.740  0.1100  1.4913 -0.8513
18058TIP3   OH275588   5.122   1.603  16.279  0.1342 -0.1076 -0.1093
18058TIP3    H175589   5.094   1.694  16.293  2.5716  0.6039  0.7228
18058TIP3    H275590   5.148   1.600  16.187 -0.4204 -0.1100 -0.2674
18059TIP3   OH275591   4.827   2.127  16.087  0.3964 -0.2722  0.6673
18059TIP3    H175592   4.888   2.201  16.088  0.3653 -0.2416  2.1071
18059TIP3    H275593   4.748   2.162  16.047 -0.0929  0.9042  2.5481
18060TIP3   OH275594   0.219   2.326  13.987  0.2746 -0.0764  0.2129
18060TIP3    H175595   0.314   2.318  13.979  0.2204 -1.4217  0.6889
18060TIP3    H275596   0.193   2.251  14.039 -0.9811  0.6766  0.7121
18061TIP3   OH275597   1.406   4.072   2.220 -0.0972 -0.3223 -0.4494
18061TIP3    H175598   1.425   4.159   2.256 -0.9799 -0.4997  0.5070
18061TIP3    H275599   1.492   4.036   2.197  0.3902  0.3165  0.3200
18062TIP3   OH275600   5.306   6.159  14.348  0.5393  0.5695  0.6018
18062TIP3    H175601   5.215   6.150  14.376  1.1173  0.5600  2.7190
18062TIP3    H275602   5.320   6.254  14.342  0.2745  0.5648 -0.2396
18063TIP3   OH275603   6.482   3.937   3.174 -0.2786 -0.1581  0.0502
18063TIP3    H175604   6.498   3.976   3.260 -0.4654 -1.1422  0.5427
18063TIP3    H275605   6.478   4.012   3.115 -0.2610  0.5464  0.9104
18064TIP3   OH275606   1.034   4.759  14.815  0.0761  0.6783 -0.6191
18064TIP3    H175607   1.124   4.753  14.846  0.0935  1.3892 -0.5289
18064TIP3    H275608   1.027   4.846  14.777  0.1761 -0.2691 -3.0295
18065TIP3   OH275609   4.499   0.283  14.159 -0.4889  0.1909 -0.2496
18065TIP3    H175610   4.409   0.258  14.182  0.1956 -1.5053  0.8213
18065TIP3    H275611   4.553   0.217  14.202  1.2978  1.3206 -0.6704
18066TIP3   OH275612   0.643   4.855  14.855  0.4431 -0.2577 -0.0317
18066TIP3    H175613   0.679   4.805  14.782 -1.2643 -1.1599 -0.3159
18066TIP3    H275614   0.581   4.794  14.897 -0.8061  1.2154  0.3446
18067TIP3   OH275615   4.983   3.501   4.506 -0.0457 -0.5116 -0.3018
18067TIP3    H175616   4.934   3.577   4.474 -1.0887 -1.2898 -0.6129
18067TIP3    H275617   5.021   3.462   4.427 -0.9525 -1.2869 -0.3723
18068TIP3   OH275618   5.484   5.351  16.771 -0.2109  0.1691  0.3628
18068TIP3    H175619   5.409   5.321  16.822 -0.6965  0.8734  0.0728
18068TIP3    H275620   5.464   5.325  16.681 -0.3178  0.7497  0.2154
18069TIP3   OH275621   6.497   1.567   3.322 -0.1729  0.3119  0.0684
18069TIP3    H175622   6.590   1.563   3.301  0.2243  0.5602  1.6797
18069TIP3    H275623   6.491   1.629   3.395 -1.8173  1.6362 -1.1023
18070TIP3   OH275624   6.594   2.782  11.982  0.2539 -0.2411  0.1176
18070TIP3    H175625   6.521   2.831  11.944  0.7774 -0.1562 -0.7968
18070TIP3    H275626   6.576   2.691  11.960 -0.0834 -0.3365  0.7592
18071TIP3   OH275627   5.468   1.388  12.032  0.3196 -0.0077 -0.5305
18071TIP3    H175628   5.543   1.423  12.079 -1.0638 -1.2355  2.9486
18071TIP3    H275629   5.506   1.342  11.957  2.8238  1.0601 -0.0232
18072TIP3   OH275630   0.090   6.128   0.360  0.4609  0.1318 -0.5012
18072TIP3    H175631   0.077   6.194   0.428 -0.3668 -2.7113  2.3361
18072TIP3    H275632   0.052   6.048   0.396  1.7186 -2.0556 -3.5586
18073TIP3   OH275633   1.948   2.972  16.563 -0.4245  0.2136 -0.2665
18073TIP3    H175634   1.943   3.035  16.491  1.2283  0.0318 -0.5932
18073TIP3    H275635   1.883   2.906  16.542  0.5217 -0.2214 -2.0263
18074TIP3   OH275636   2.435   6.022   6.160  0.0747  0.0105  0.1190
18074TIP3    H175637   2.434   5.928   6.174 -0.4884  0.0974  0.6709
18074TIP3    H275638   2.380   6.058   6.229  0.2265  0.7410 -0.1282
18075TIP3   OH275639   6.619   5.358  16.745  0.3790  0.2322  0.4431
18075TIP3    H175640   6.699   5.311  16.718 -0.1754 -0.3893 -0.1597
18075TIP3    H275641   6.636   5.384  16.835  1.7899  1.2524 -0.0750
18076TIP3   OH275642   1.280   3.527  14.722  0.2760  0.5049  0.0089
18076TIP3    H175643   1.281   3.622  14.714  1.1407  0.6479  1.4523
18076TIP3    H275644   1.370   3.500  14.708 -0.1780 -0.2575 -1.6467
18077TIP3   OH275645   2.875   5.394  13.905 -0.3700 -0.1747  0.4675
18077TIP3    H175646   2.802   5.407  13.965  0.7085  0.0445  1.7707
18077TIP3    H275647   2.929   5.472  13.914 -0.8265  0.4572 -1.7724
18078TIP3   OH275648   5.909   0.150  13.090  0.1769  0.1899  0.2382
18078TIP3    H175649   5.868   0.237  13.092 -0.9959 -0.3438  0.3189
18078TIP3    H275650   6.003   0.168  13.084 -0.0881  1.4631 -0.5770
18079TIP3   OH275651   4.896   4.603  11.521 -0.1113 -0.1432 -0.0999
18079TIP3    H175652   4.888   4.635  11.611 -0.2141 -0.2984 -0.0524
18079TIP3    H275653   4.989   4.611  11.501  0.1057 -1.1437  0.4196
18080TIP3   OH275654   3.259   5.918  10.996 -0.3033  0.2487 -0.0443
18080TIP3    H175655   3.185   5.970  10.964 -1.9777 -1.6667  0.4676
18080TIP3    H275656   3.274   5.950  11.085  0.0249  1.1751 -0.4216
18081TIP3   OH275657   1.859   2.683  10.613 -0.0602 -0.0844  0.4031
18081TIP3    H175658   1.921   2.624  10.571 -1.2991 -0.3614 -1.1559
18081TIP3    H275659   1.853   2.757  10.553  0.4635  1.0368  1.6759
18082TIP3   OH275660   5.615   6.301  11.825 -0.1806  0.1720 -0.1052
18082TIP3    H175661   5.527   6.300  11.862  0.2949 -1.0966  1.0883
18082TIP3    H275662   5.651   6.386  11.850 -0.3776 -0.1023  1.1777
18083TIP3   OH275663   0.673   3.986  16.389  0.3141  0.3239  0.7955
18083TIP3    H175664   0.604   4.043  16.424  0.8014  1.4924 -0.1222
18083TIP3    H275665   0.746   3.996  16.450  0.4305  0.7482  0.5865
18084TIP3   OH275666   2.999   6.740   2.509  0.1173  0.0077  0.2412
18084TIP3    H175667   2.953   6.810   2.555 -2.3869 -1.0128 -0.4933
18084TIP3    H275668   3.034   6.782   2.431  0.4983  0.8411  0.8416
18085TIP3   OH275669   6.408   5.862  13.412  0.1956  0.2991 -0.3294
18085TIP3    H175670   6.345   5.934  13.415  0.3328  0.3739  1.0041
18085TIP3    H275671   6.389   5.818  13.329 -1.1325  0.7431 -0.2840
18086TIP3   OH275672   6.601   4.270  12.417 -0.9926 -0.1265 -0.3413
18086TIP3    H175673   6.585   4.233  12.504 -0.2526 -2.3948 -1.1136
18086TIP3    H275674   6.665   4.340  12.433  0.4955 -1.6716  0.7714
18087TIP3   OH275675   1.680   2.317  15.894 -0.0492  0.3382  0.0144
18087TIP3    H175676   1.751   2.377  15.915 -0.9723  1.6507 -0.4703
18087TIP3    H275677   1.680   2.254  15.966  1.0657  0.7958  0.4460
18088TIP3   OH275678   0.670   3.923  13.508 -0.1002  0.4242 -0.2990
18088TIP3    H175679   0.591   3.955  13.551 -1.2038  0.4233 -2.1844
18088TIP3    H275680   0.675   3.975  13.427  0.7242 -0.8979 -1.1328
18089TIP3   OH275681   5.032   1.808   4.508 -0.1514  0.1410  0.3055
18089TIP3    H175682   5.032   1.797   4.413  0.9417 -0.5741  0.3733
18089TIP3    H275683   5.007   1.722   4.542 -3.9646  1.2012  0.6690
18090TIP3   OH275684   1.602   3.287   4.692 -0.0227  0.5019  0.0776
18090TIP3    H175685   1.692   3.261   4.672  0.2563  1.1359  0.4739
18090TIP3    H275686   1.568   3.321   4.609  0.2992  0.8030  0.0683
18091TIP3   OH275687   4.826   3.874   5.368 -0.6182  0.0919  0.6657
18091TIP3    H175688   4.836   3.829   5.284  0.0348 -0.7662  1.1844
18091TIP3    H275689   4.744   3.842   5.403 -0.1160 -0.7822  1.0705
18092TIP3   OH275690   1.434   6.573   2.504  0.3293  0.0424 -0.4198
18092TIP3    H175691   1.368   6.505   2.500 -0.1454  0.4906 -0.3235
18092TIP3    H275692   1.385   6.654   2.517  0.9091  0.3507 -0.0673
18093TIP3   OH275693   1.934   1.777   3.053 -0.8499 -0.0911  0.0903
18093TIP3    H175694   1.859   1.822   3.015  0.5287  0.6493 -1.9438
18093TIP3    H275695   1.907   1.685   3.058 -1.0178 -0.3621 -3.3240
18094TIP3   OH275696   3.865   4.466   4.007  0.1285 -0.5898 -0.2087
18094TIP3    H175697   3.953   4.468   3.970 -0.3220 -2.5838 -1.6041
18094TIP3    H275698   3.809   4.443   3.933 -1.1291 -2.5473  1.2551
18095TIP3   OH275699   6.348   3.986  16.808 -0.4556  0.0627 -0.5074
18095TIP3    H175700   6.318   3.949  16.725  0.8336 -3.4321  0.4328
18095TIP3    H275701   6.270   3.991  16.862 -0.9867  0.6150 -1.3045
18096TIP3   OH275702   6.619   3.965  12.162  0.3213  0.5152  0.1022
18096TIP3    H175703   6.539   3.982  12.113  0.2861  2.6926  0.7886
18096TIP3    H275704   6.601   3.888  12.215 -1.3619  1.0129  0.2936
18097TIP3   OH275705   1.142   5.395   0.026  0.4033 -0.0767  0.1962
18097TIP3    H175706   1.082   5.329  -0.009  0.4461 -0.5166  0.9251
18097TIP3    H275707   1.164   5.450  -0.049 -0.6756 -0.0928 -0.1505
18098TIP3   OH275708   4.346   2.889   0.513 -0.0301  0.3586  0.1053
18098TIP3    H175709   4.284   2.953   0.478 -0.3880 -0.4042 -0.7264
18098TIP3    H275710   4.419   2.941   0.545  0.3922  1.1449 -1.9405
18099TIP3   OH275711   2.169   3.711  15.760 -0.4916 -0.6545  0.1034
18099TIP3    H175712   2.256   3.705  15.720 -0.3116  2.0803 -0.1118
18099TIP3    H275713   2.177   3.662  15.842  0.9164 -1.3581 -0.4196
18100TIP3   OH275714   2.590   6.512  14.889 -0.2317 -0.1982 -0.1350
18100TIP3    H175715   2.531   6.516  14.813 -1.4931  0.9367  0.8585
18100TIP3    H275716   2.610   6.603  14.908  0.5488 -0.5066  0.5537
18101TIP3   OH275717   4.088   2.146   5.978  1.3982  0.1205  0.1424
18101TIP3    H175718   4.166   2.091   5.978 -0.1484 -2.2816  1.8724
18101TIP3    H275719   4.024   2.098   5.926  0.7938  1.6570 -0.5959
18102TIP3   OH275720   3.476   5.793  15.242 -0.0125  0.3604  0.4877
18102TIP3    H175721   3.486   5.698  15.250  0.5393  0.5439  2.3379
18102TIP3    H275722   3.556   5.822  15.198 -0.3924 -0.0528 -0.5150
18103TIP3   OH275723   3.308   2.951  10.197 -0.2945  0.4047  0.2714
18103TIP3    H175724   3.401   2.971  10.196 -0.3843  0.8115 -0.1971
18103TIP3    H275725   3.297   2.884  10.129 -0.4943  1.0530 -0.3393
18104TIP3   OH275726   6.469   2.758  15.239 -0.1236  0.7787  0.5683
18104TIP3    H175727   6.463   2.739  15.146 -1.3522  2.8335  0.1510
18104TIP3    H275728   6.526   2.835  15.245 -0.2427  0.8158  1.4907
18105TIP3   OH275729   6.155   2.970   4.758 -0.0423  0.2677 -0.1352
18105TIP3    H175730   6.246   2.971   4.789  0.2331  2.5296 -0.8247
18105TIP3    H275731   6.105   2.932   4.830  1.3861 -0.7269  0.3814
18106TIP3   OH275732   1.856   2.557   0.994  0.6337 -0.4773 -0.0650
18106TIP3    H175733   1.894   2.617   1.058 -1.2082  2.0370 -1.1415
18106TIP3    H275734   1.870   2.470   1.031  1.7659  0.6999  2.5292
18107TIP3   OH275735   6.691   3.215  16.384 -0.2919  0.3512 -0.5996
18107TIP3    H175736   6.765   3.181  16.434 -0.8864 -0.9048 -0.5442
18107TIP3    H275737   6.714   3.307  16.367  1.3492 -0.0546 -0.7281
18108TIP3   OH275738   1.638   5.373  14.306 -0.4386  0.0783 -0.5312
18108TIP3    H175739   1.564   5.390  14.365  0.5100 -0.3823  0.8571
18108TIP3    H275740   1.636   5.278  14.293 -0.6396  0.1757 -1.2744
18109TIP3   OH275741   2.178   2.840  10.742  0.8892  0.1213  0.0860
18109TIP3    H175742   2.106   2.869  10.686 -0.1158 -0.6654  0.9283
18109TIP3    H275743   2.250   2.820  10.681  0.3833  0.8557 -0.7740
18110TIP3   OH275744   6.392   1.677  14.946  0.0242  0.1928  0.5448
18110TIP3    H175745   6.366   1.656  15.036  1.4950  0.7107  1.1246
18110TIP3    H275746   6.480   1.640  14.938  0.5270  1.5133 -0.1598
18111TIP3   OH275747   2.746   1.582  13.031 -0.1128 -0.6547  0.1195
18111TIP3    H175748   2.752   1.662  13.082  1.4546 -0.2681 -0.6311
18111TIP3    H275749   2.730   1.611  12.941 -1.1449 -1.2681  0.0769
18112TIP3   OH275750   1.155   0.396  10.631 -0.2852 -0.2085  0.0930
18112TIP3    H175751   1.071   0.428  10.664 -0.5875 -0.8469 -0.0495
18112TIP3    H275752   1.202   0.367  10.709  0.3688  1.3885  0.3460
18113TIP3   OH275753   1.870   6.454   0.963 -0.0286  0.3534 -0.4919
18113TIP3    H175754   1.941   6.411   1.011  1.1441  1.0439 -1.5442
18113TIP3    H275755   1.796   6.393   0.971  0.5923 -0.2792  0.8213
18114TIP3   OH275756   3.787   1.271   5.593  0.2186  0.3102  0.1781
18114TIP3    H175757   3.833   1.354   5.591  1.5914 -0.4231 -0.2296
18114TIP3    H275758   3.850   1.210   5.632  0.7913 -1.3711 -3.0272
18115TIP3   OH275759   6.245   5.139   4.947 -0.0959 -0.0689 -0.1373
18115TIP3    H175760   6.210   5.120   4.860 -0.1551  3.5527 -1.0551
18115TIP3    H275761   6.334   5.170   4.931  0.3761 -0.5822  1.2791
18116TIP3   OH275762   5.227   2.854  13.570  0.5407  0.1142 -0.5563
18116TIP3    H175763   5.249   2.827  13.481 -1.0924 -0.1379 -0.9149
18116TIP3    H275764   5.175   2.781  13.605 -2.5810  1.9939 -0.9680
18117TIP3   OH275765   4.776   3.233   0.709  0.4902  0.3160  0.0902
18117TIP3    H175766   4.776   3.246   0.614 -1.0254 -1.1774 -0.1826
18117TIP3    H275767   4.859   3.269   0.739  1.9635 -1.0016 -2.0938
18118TIP3   OH275768   6.765   1.205   2.168  0.1358 -0.1743 -0.3661
18118TIP3    H175769   6.674   1.203   2.139 -0.2966  1.7646  0.6831
18118TIP3    H275770   6.804   1.279   2.121  0.2634  1.0014  1.4413
18119TIP3   OH275771   5.696   2.484   4.100  0.3401 -0.1897  0.2990
18119TIP3    H175772   5.780   2.441   4.081  0.4934 -0.4803  1.5742
18119TIP3    H275773   5.675   2.531   4.019  2.1662  0.5952  0.2314
18120TIP3   OH275774   0.494   2.546   0.208 -0.6041 -0.2427  1.0472
18120TIP3    H175775   0.538   2.474   0.164  0.0426 -1.3733  3.3562
18120TIP3    H275776   0.401   2.527   0.200 -0.5175 -0.2044 -0.1211
18121TIP3   OH275777   6.476   4.155   3.020 -0.6953 -0.5170  0.0490
18121TIP3    H175778   6.382   4.153   3.001 -0.6137 -0.2889 -0.3724
18121TIP3    H275779   6.503   4.244   3.000 -0.9028  0.2143  2.7048
18122TIP3   OH275780   0.492   2.527  11.108  0.8956  0.3350  0.5976
18122TIP3    H175781   0.463   2.484  11.028 -0.9771  2.6356 -0.0476
18122TIP3    H275782   0.570   2.477  11.135 -0.0998 -2.3040 -0.9990
18123TIP3   OH275783   1.854   2.701  11.586 -0.5325  0.3177 -0.3159
18123TIP3    H175784   1.798   2.758  11.640  0.4141  1.7853 -0.8477
18123TIP3    H275785   1.819   2.710  11.498 -1.1035 -0.8773 -0.2351
18124TIP3   OH275786   5.391   2.307  11.959  0.0182  0.1037  0.4594
18124TIP3    H175787   5.329   2.326  12.030 -1.0064 -1.6272  0.0705
18124TIP3    H275788   5.413   2.214  11.970  0.2839 -0.0539 -1.1488
18125TIP3   OH275789   5.440   4.152   3.855 -1.0114  0.0541  0.7126
18125TIP3    H175790   5.439   4.241   3.892  0.0137  0.4798 -0.2191
18125TIP3    H275791   5.479   4.163   3.768 -2.0153 -1.1330  0.0822
18126TIP3   OH275792   0.665   2.738  11.892  0.1340  0.0813 -0.1703
18126TIP3    H175793   0.645   2.690  11.812  0.1035 -0.1840 -0.0049
18126TIP3    H275794   0.761   2.738  11.897  0.1929  1.1994 -0.8706
18127TIP3   OH275795   4.717   0.485   4.710 -0.3975  0.0403 -0.3108
18127TIP3    H175796   4.711   0.390   4.699  0.3628 -0.0538  0.0613
18127TIP3    H275797   4.776   0.513   4.641  0.1141  0.1264  0.1635
18128TIP3   OH275798   0.888   6.002  13.930 -0.2761  0.0715  0.5489
18128TIP3    H175799   0.902   6.042  14.015 -0.6284  1.1729  0.1162
18128TIP3    H275800   0.800   5.964  13.935  0.8207 -2.5502  1.6452
18129TIP3   OH275801   0.414   2.519   5.226 -0.6011 -0.0769  0.1755
18129TIP3    H175802   0.432   2.597   5.279 -1.9485 -0.9647  2.0252
18129TIP3    H275803   0.499   2.492   5.194 -0.2869  4.0434 -3.4594
18130TIP3   OH275804   5.382   4.495  14.306  0.3725 -0.2664  0.1919
18130TIP3    H175805   5.406   4.531  14.392  1.8658 -0.0590 -0.2864
18130TIP3    H275806   5.358   4.404  14.325  0.4677 -0.1626  0.8633
18131TIP3   OH275807   1.322   0.576   4.820  0.1387 -0.3808  0.3090
18131TIP3    H175808   1.235   0.535   4.812  0.7663 -1.5061 -1.2792
18131TIP3    H275809   1.352   0.552   4.908 -1.3967  0.5885  1.1470
18132TIP3   OH275810   1.468   1.429   4.918  0.2587 -0.1865 -0.0757
18132TIP3    H175811   1.439   1.424   5.010  0.3394  0.7798  0.0110
18132TIP3    H275812   1.499   1.519   4.908 -1.0750  0.1389 -1.4521
18133TIP3   OH275813   2.679   3.603  15.404  0.1696  0.6201  0.3264
18133TIP3    H175814   2.750   3.605  15.340 -0.4804  0.8034 -0.4061
18133TIP3    H275815   2.701   3.670  15.468  0.3613  1.0867 -0.2214
18134TIP3   OH275816   0.490   1.884   6.026  0.2258 -0.1273  0.2459
18134TIP3    H175817   0.582   1.863   6.009 -0.8395 -2.9209 -3.2125
18134TIP3    H275818   0.471   1.959   5.969  0.1335 -0.1245  0.2794
18135TIP3   OH275819   1.140   4.070   2.292 -0.1961  0.7548  0.5884
18135TIP3    H175820   1.105   3.983   2.275 -0.9768  1.0996  0.3800
18135TIP3    H275821   1.222   4.074   2.243 -0.9267  0.6815 -0.6730
18136TIP3   OH275822   5.551   4.607   5.915  0.2079  0.2998  0.5095
18136TIP3    H175823   5.553   4.540   5.847  0.3121 -0.5764  1.3565
18136TIP3    H275824   5.506   4.566   5.988 -0.1305  1.3159  0.8913
18137TIP3   OH275825   4.022   4.307  14.595 -0.1328  0.0473 -0.2891
18137TIP3    H175826   3.941   4.271  14.630  0.0913 -0.7645 -0.5900
18137TIP3    H275827   3.997   4.394  14.563 -1.2137 -0.7281 -1.6676
18138TIP3   OH275828   2.990   6.638   1.869  0.3093  0.3169 -0.0945
18138TIP3    H175829   2.900   6.669   1.860 -1.1023 -3.2783  0.0016
18138TIP3    H275830   3.031   6.657   1.785 -1.2087  0.2035 -0.8943
18139TIP3   OH275831   2.064   0.237  12.348  0.0621  0.4262 -0.0732
18139TIP3    H175832   2.041   0.300  12.416 -0.0211  1.1022 -0.7157
18139TIP3    H275833   2.099   0.290  12.276 -1.2689 -0.1058 -1.1698
18140TIP3   OH275834   0.291   0.314   4.020 -0.5807 -1.0296 -0.1913
18140TIP3    H175835   0.259   0.258   3.950 -1.4054 -1.4423  0.4798
18140TIP3    H275836   0.248   0.280   4.099 -0.2545 -0.1323  0.3976
18141TIP3   OH275837   2.622   0.771   3.534 -0.5662  0.6461 -0.1184
18141TIP3    H175838   2.612   0.837   3.603  1.2325  1.1897 -0.3228
18141TIP3    H275839   2.586   0.691   3.572 -0.3693  1.1280  1.1520
18142TIP3   OH275840   2.072   6.117   0.858  0.2025 -0.2675  0.5018
18142TIP3    H175841   2.085   6.191   0.799  0.0188 -0.9985 -0.4841
18142TIP3    H275842   2.022   6.153   0.931  0.2134  0.5995  0.0919
18143TIP3   OH275843   4.532   0.787   4.629 -0.2684 -0.4178  0.4670
18143TIP3    H175844   4.545   0.862   4.571 -1.0763 -1.9305 -1.7784
18143TIP3    H275845   4.523   0.712   4.570 -0.9341 -2.0882  2.5712
18144TIP3   OH275846   5.491   0.808  12.047  0.0253 -0.1620 -0.0463
18144TIP3    H175847   5.527   0.735  12.097  0.0761  0.5793  1.0210
18144TIP3    H275848   5.564   0.838  11.993  0.5624  0.2999  0.9155
18145TIP3   OH275849   4.759   0.387  15.929 -0.5861 -0.7636  0.6175
18145TIP3    H175850   4.835   0.348  15.973 -0.7216 -1.4696  0.2324
18145TIP3    H275851   4.751   0.474  15.969  0.3624 -0.7169  0.7434
18146TIP3   OH275852   3.649   5.867   0.653  0.0148  0.4321  0.0644
18146TIP3    H175853   3.684   5.865   0.742  1.0297 -2.4093 -0.2893
18146TIP3    H275854   3.722   5.837   0.598 -0.7853  1.5159 -1.6651
18147TIP3   OH275855   4.905   4.021  14.437 -0.3176 -0.1293  0.2877
18147TIP3    H175856   4.871   4.087  14.497 -1.3458 -0.4514  0.0737
18147TIP3    H275857   5.000   4.030  14.444 -0.4199  0.1210  1.6416
18148TIP3   OH275858   0.256   1.889  14.116  0.4762  0.1133 -0.0352
18148TIP3    H175859   0.258   1.886  14.211 -0.2946  1.3528  0.0493
18148TIP3    H275860   0.192   1.958  14.096 -1.0021 -1.5584 -1.4671
18149TIP3   OH275861   4.554   2.384  13.753  0.0827  0.2143 -0.4186
18149TIP3    H175862   4.617   2.457  13.749 -1.6079  1.7069 -2.1471
18149TIP3    H275863   4.596   2.314  13.704  0.5860  1.0581 -1.2378
18150TIP3   OH275864   0.054   4.561   2.630 -0.4826 -0.9629 -0.0005
18150TIP3    H175865   0.129   4.504   2.648 -0.2589 -0.6763 -0.0256
18150TIP3    H275866  -0.018   4.522   2.680 -0.1590 -0.8590  0.5501
18151TIP3   OH275867   4.936   3.403   1.268 -0.0029  0.1642  0.6962
18151TIP3    H175868   4.986   3.423   1.188 -1.0497  1.4386  0.3201
18151TIP3    H275869   4.886   3.324   1.245  0.0326  0.2678  0.2465
18152TIP3   OH275870   2.211   6.388  14.876  0.1316  0.1547 -0.2611
18152TIP3    H175871   2.141   6.328  14.852  0.1262 -0.4059  1.0719
18152TIP3    H275872   2.206   6.459  14.811 -1.7109  0.1606 -0.1567
18153TIP3   OH275873   0.288   1.069   1.635  0.2832  0.4102 -0.0781
18153TIP3    H175874   0.372   1.028   1.654  0.1537 -0.0968 -0.5787
18153TIP3    H275875   0.310   1.155   1.598  0.5527  0.8193  0.9962
18154TIP3   OH275876   5.878   0.858  15.667  0.0068  0.9194  0.8146
18154TIP3    H175877   5.897   0.796  15.737  0.9864  1.6858  1.2574
18154TIP3    H275878   5.937   0.833  15.596  0.5482  1.4496  1.0688
18155TIP3   OH275879   0.725   5.301   3.130 -0.2849  0.1743  0.3865
18155TIP3    H175880   0.724   5.284   3.224 -1.1951 -0.4894  0.2815
18155TIP3    H275881   0.637   5.275   3.100 -1.1613  3.3259 -0.1661
18156TIP3   OH275882   3.049   6.393   4.203 -0.5367 -0.5439 -0.0274
18156TIP3    H175883   3.016   6.424   4.118 -1.0256  0.2478  0.4398
18156TIP3    H275884   3.144   6.389   4.191 -0.6380 -1.0390 -0.8000
18157TIP3   OH275885   5.504   2.596   1.131  0.0498 -0.0631  0.2906
18157TIP3    H175886   5.592   2.567   1.107  0.3507 -0.2687  1.5583
18157TIP3    H275887   5.484   2.549   1.212 -1.1893  0.0653  0.0873
18158TIP3   OH275888   2.677   4.723   3.450 -0.4547  0.0982 -0.2290
18158TIP3    H175889   2.688   4.778   3.373  0.8220 -1.2786 -1.0893
18158TIP3    H275890   2.582   4.708   3.456 -0.5527 -0.0304 -1.7369
18159TIP3   OH275891   5.936   4.451  15.652 -0.2071 -0.1373 -0.1054
18159TIP3    H175892   5.865   4.493  15.602  0.8026 -1.1877 -2.5669
18159TIP3    H275893   5.992   4.524  15.678 -1.1094  0.5021  0.1306
18160TIP3   OH275894   4.002   4.109  17.030 -0.2545 -0.1564  0.5777
18160TIP3    H175895   4.056   4.138  17.103  1.2743 -0.2821 -0.4551
18160TIP3    H275896   3.968   4.191  16.992  1.5372  0.1552 -0.4592
18161TIP3   OH275897   0.684   3.781  12.666 -1.0034  0.1452 -0.0590
18161TIP3    H175898   0.599   3.806  12.630 -0.1520  3.2133 -0.2574
18161TIP3    H275899   0.739   3.858  12.652  1.0869 -0.7559  2.4469
18162TIP3   OH275900   3.271   3.990  12.014  0.3253  0.7227 -0.1917
18162TIP3    H175901   3.208   4.001  12.085  1.6311 -2.1866  1.6147
18162TIP3    H275902   3.220   3.951  11.943 -0.1673 -0.7285  0.9092
18163TIP3   OH275903   4.560   4.694  12.895  0.0466 -0.4055 -0.2753
18163TIP3    H175904   4.551   4.762  12.961 -0.3224 -0.0174 -0.7121
18163TIP3    H275905   4.576   4.742  12.813  2.6795 -0.9156 -0.1547
18164TIP3   OH275906   0.497   5.723  11.983  0.5689 -0.0683  0.0791
18164TIP3    H175907   0.549   5.771  12.047  0.0708  0.2792  0.2323
18164TIP3    H275908   0.423   5.688  12.034  0.5056 -0.3235 -0.1856
18165TIP3   OH275909   2.738   4.419   3.479 -0.1037 -0.9172  0.2586
18165TIP3    H175910   2.774   4.394   3.394  1.5342 -2.2281  1.2965
18165TIP3    H275911   2.758   4.513   3.486 -2.0637 -0.2533 -1.6012
18166TIP3   OH275912   1.198   0.638  11.388  0.0330  0.5539 -0.3141
18166TIP3    H175913   1.188   0.567  11.324 -1.2188  0.0258  0.4206
18166TIP3    H275914   1.202   0.718  11.336  0.6279  0.0153 -1.1178
18167TIP3   OH275915   1.261   4.460  14.527 -0.1151 -0.2617  0.1449
18167TIP3    H175916   1.309   4.377  14.526 -1.0002 -0.8192  1.4337
18167TIP3    H275917   1.275   4.496  14.439  0.6438 -1.5611 -0.3059
18168TIP3   OH275918   3.465   5.028   6.147 -0.1552  0.2385  0.4927
18168TIP3    H175919   3.464   4.933   6.159 -0.3562  0.0793 -0.7002
18168TIP3    H275920   3.507   5.061   6.227  0.3425 -0.8760  0.7203
18169TIP3   OH275921   6.481   5.396   2.783  0.2252  0.0487 -0.1451
18169TIP3    H175922   6.467   5.472   2.839  1.6265 -0.0134  0.3131
18169TIP3    H275923   6.503   5.432   2.697 -0.0935  0.1488 -0.1863
18170TIP3   OH275924   1.824   0.249  11.942  0.0834 -0.5629 -0.7702
18170TIP3    H175925   1.800   0.193  11.868 -3.3710  0.9401 -0.9915
18170TIP3    H275926   1.833   0.336  11.905  4.0468 -0.5366 -0.2060
18171TIP3   OH275927   4.021   0.512  11.104  0.3805 -0.5926 -0.3405
18171TIP3    H175928   3.979   0.526  11.189  2.2305 -2.3313  0.9286
18171TIP3    H275929   4.049   0.599  11.077  0.3039 -0.0899  1.1108
18172TIP3   OH275930   2.539   0.120  16.842  0.7401 -0.3624  0.2490
18172TIP3    H175931   2.577   0.207  16.841  1.1574 -0.5049 -2.0768
18172TIP3    H275932   2.613   0.062  16.861  0.2625 -0.2190  2.9596
18173TIP3   OH275933   5.752   1.013  13.624 -0.4301 -0.9078 -0.0365
18173TIP3    H175934   5.773   0.935  13.571 -0.3835  0.1465 -1.6455
18173TIP3    H275935   5.826   1.022  13.684 -1.9970 -4.0520  2.6736
18174TIP3   OH275936   6.227   1.114   3.429 -0.0542 -0.0840  0.4102
18174TIP3    H175937   6.218   1.126   3.523 -0.4265 -1.7032  0.6125
18174TIP3    H275938   6.207   1.021   3.415  1.1527 -0.1453 -1.1202
18175TIP3   OH275939   3.480   4.357  14.219 -0.0943  0.4751  0.5515
18175TIP3    H175940   3.458   4.353  14.312 -0.1730  1.0721  0.5607
18175TIP3    H275941   3.492   4.265  14.193 -0.1507  0.3034  1.1281
18176TIP3   OH275942   1.179   5.633  10.924  0.3405  0.2592 -0.4717
18176TIP3    H175943   1.202   5.653  11.014  2.7047  0.0753 -0.9654
18176TIP3    H275944   1.147   5.716  10.889 -0.4077  0.3792  0.4623
18177TIP3   OH275945   2.364   4.223   0.645 -0.3788  1.0635 -0.0422
18177TIP3    H175946   2.431   4.291   0.634  0.4245  0.9440  3.1404
18177TIP3    H275947   2.328   4.239   0.732 -1.2285 -1.6742  0.1962
18178TIP3   OH275948   6.715   0.676  12.935  0.2170 -1.0470  0.4557
18178TIP3    H175949   6.798   0.645  12.899 -0.1527 -2.2834  0.5963
18178TIP3    H275950   6.689   0.748  12.878 -0.1219 -2.6352 -1.5200
18179TIP3   OH275951   4.612   3.856   1.634 -0.4558  0.4732 -0.5157
18179TIP3    H175952   4.695   3.858   1.585 -0.3602  1.4982 -0.3232
18179TIP3    H275953   4.605   3.766   1.665  1.6183  0.8422  1.2256
18180TIP3   OH275954   2.833   5.460   6.023  0.1801  0.0267 -0.6959
18180TIP3    H175955   2.739   5.473   6.037  0.1056  1.1882 -2.0351
18180TIP3    H275956   2.865   5.546   5.996  1.7411 -0.2394  0.2175
18181TIP3   OH275957   1.238   6.322   4.772 -0.3964  0.3119 -0.0816
18181TIP3    H175958   1.184   6.400   4.767 -3.1524 -1.4759 -0.7651
18181TIP3    H275959   1.196   6.268   4.839  1.4259 -0.5840  0.3967
18182TIP3   OH275960   2.888   3.930  11.941  0.2019 -0.0154  0.1639
18182TIP3    H175961   2.926   3.902  11.858 -0.0186  0.1638  0.0011
18182TIP3    H275962   2.827   3.860  11.964  1.3851 -0.8202  0.9559
18183TIP3   OH275963   4.204   1.296  16.821 -0.2410 -0.0381  0.0574
18183TIP3    H175964   4.209   1.392  16.813 -1.0521  0.0752  0.7572
18183TIP3    H275965   4.216   1.264  16.731  2.0389  0.5913  0.0751
18184TIP3   OH275966   1.144   6.191   2.369 -0.3064  0.0408 -0.1402
18184TIP3    H175967   1.152   6.228   2.281 -0.7715 -0.0813 -0.2327
18184TIP3    H275968   1.053   6.163   2.375 -1.4689  3.5892  1.7460
18185TIP3   OH275969   0.260   4.172   4.491  0.2152 -0.1188  0.0453
18185TIP3    H175970   0.235   4.125   4.571 -0.1373 -0.0300 -0.0095
18185TIP3    H275971   0.214   4.256   4.497  1.0627  0.3328  0.2732
18186TIP3   OH275972   2.232   0.530   5.333 -0.0431 -0.3183  0.5511
18186TIP3    H175973   2.156   0.586   5.351 -0.5670 -1.0441  0.6236
18186TIP3    H275974   2.200   0.466   5.269  0.8934  0.2118 -0.4880
18187TIP3   OH275975   2.182   0.890   1.067 -0.2613  0.4311 -0.0134
18187TIP3    H175976   2.210   0.959   1.006  0.0851 -1.5358 -2.2222
18187TIP3    H275977   2.096   0.863   1.034 -0.4849 -0.0807  0.9412
18188TIP3   OH275978   1.445   1.617  16.929 -0.2129  0.2835 -0.2490
18188TIP3    H175979   1.452   1.599  16.836  2.1080  0.5201 -0.1866
18188TIP3    H275980   1.487   1.542  16.971  0.5318  1.0916  0.4917
18189TIP3   OH275981   3.498   1.213  11.913  0.0868 -0.2494 -0.3975
18189TIP3    H175982   3.449   1.217  11.995  1.2673  0.6798  0.2869
18189TIP3    H275983   3.513   1.304  11.889  0.3565 -0.5156 -1.2862
18190TIP3   OH275984   4.747   4.584  12.479  0.1470  0.2496 -0.4745
18190TIP3    H175985   4.791   4.668  12.467  0.7579 -0.0362 -0.2654
18190TIP3    H275986   4.722   4.558  12.390  0.1980  0.5206 -0.5706
18191TIP3   OH275987   1.702   5.091  11.266  0.7451  0.8674 -0.2602
18191TIP3    H175988   1.784   5.138  11.254  1.0441  0.4953  0.2685
18191TIP3    H275989   1.698   5.073  11.360  0.0918  0.8189 -0.2907
18192TIP3   OH275990   3.011   6.769  15.515 -0.0281  0.3299 -0.2970
18192TIP3    H175991   2.944   6.838  15.520 -0.7358 -0.1057 -2.3980
18192TIP3    H275992   3.094   6.816  15.518 -0.4805  1.1572 -0.2992
18193TIP3   OH275993   1.718   5.270   5.198  0.4289  0.4390 -0.2233
18193TIP3    H175994   1.701   5.336   5.131  1.4118  1.0144  0.0700
18193TIP3    H275995   1.695   5.313   5.281  0.2745  0.1177 -0.0963
18194TIP3   OH275996   0.566   5.702   1.165 -0.0297  0.1468  0.2915
18194TIP3    H175997   0.566   5.732   1.256  0.2366  0.4677  0.1886
18194TIP3    H275998   0.511   5.624   1.165 -1.1921  0.9319  0.4826
18195TIP3   OH275999   1.415   2.329   2.489  0.0519 -0.4128 -0.3278
18195TIP3    H176000   1.439   2.382   2.413 -0.2833  1.8490  1.0397
18195TIP3    H276001   1.321   2.342   2.498  0.1285 -0.4381  0.6033
18196TIP3   OH276002   5.524   0.154  14.898 -0.7085 -0.2316 -0.4573
18196TIP3    H176003   5.437   0.178  14.928 -1.0203 -0.1143 -1.4263
18196TIP3    H276004   5.564   0.237  14.873 -0.0758 -0.2076  0.5720
18197TIP3   OH276005   0.027   4.472  16.287  0.1069 -0.4403  0.2210
18197TIP3    H176006   0.075   4.554  16.295 -0.4408 -0.1874  0.9354
18197TIP3    H276007   0.047   4.441  16.198  0.3402  0.4402 -0.0376
18198TIP3   OH276008   6.228   4.194   5.087  0.0178  0.4239  0.0841
18198TIP3    H176009   6.183   4.187   5.171 -0.4243 -0.2412 -0.2056
18198TIP3    H276010   6.181   4.135   5.029  0.5043  0.6539 -0.5564
18199TIP3   OH276011   0.698   5.756   2.693  0.0929  0.3169 -0.1137
18199TIP3    H176012   0.766   5.817   2.723 -2.8498  3.7994  0.1046
18199TIP3    H276013   0.698   5.765   2.598 -1.3677  2.0006  0.0032
18200TIP3   OH276014   6.641   3.519   2.309  0.3041 -0.6853  0.0793
18200TIP3    H176015   6.723   3.556   2.342  0.2429  0.2705 -0.7853
18200TIP3    H276016   6.580   3.592   2.309  0.6644 -0.1993 -3.3681
18201TIP3   OH276017   1.852   2.274  15.243  0.5012  0.3101  0.6048
18201TIP3    H176018   1.830   2.367  15.253  2.3113  0.9800 -0.9115
18201TIP3    H276019   1.937   2.265  15.286  0.8614 -0.3691 -0.2165
18202TIP3   OH276020   3.861   1.709   0.361  0.6086  0.0736 -0.0010
18202TIP3    H176021   3.943   1.694   0.314 -1.0414 -1.1164 -2.8010
18202TIP3    H276022   3.815   1.775   0.308 -0.7091 -0.1394  0.8274
18203TIP3   OH276023   0.969   6.635   3.692 -0.3256 -0.2437 -0.0709
18203TIP3    H176024   1.043   6.597   3.645 -1.0596 -1.4716 -0.2807
18203TIP3    H276025   0.948   6.715   3.642 -0.5861 -1.0965 -1.3815
18204TIP3   OH276026   3.650   5.617   0.179  0.5088  0.2918 -0.0628
18204TIP3    H176027   3.635   5.681   0.110 -1.2812 -0.9758 -0.9219
18204TIP3    H276028   3.577   5.631   0.240  1.5784  0.8003  1.1440
18205TIP3   OH276029   1.552   4.382   5.878 -0.7807 -0.0530  0.3999
18205TIP3    H176030   1.535   4.290   5.900  0.8561 -0.5196 -0.1177
18205TIP3    H276031   1.593   4.418   5.957  0.9574 -0.5061 -0.2513
18206TIP3   OH276032   5.459   6.343   3.774 -0.8114 -0.1435  0.1361
18206TIP3    H176033   5.430   6.430   3.801  0.1977  0.0257  0.7216
18206TIP3    H276034   5.554   6.352   3.761 -0.7717 -1.0318 -0.3067
18207TIP3   OH276035   3.634   6.582   5.983 -0.0883  0.2221  0.0171
18207TIP3    H176036   3.614   6.667   5.943 -1.1983 -0.8420 -1.8464
18207TIP3    H276037   3.730   6.578   5.984 -0.0227  0.8537 -1.3692
18208TIP3   OH276038   1.262   3.012  14.615 -0.4252 -0.1336 -0.0194
18208TIP3    H176039   1.295   2.962  14.541 -3.9162 -0.7013 -1.4071
18208TIP3    H276040   1.338   3.026  14.671  1.7977 -2.1812 -2.2855
18209TIP3   OH276041   6.277   1.947  12.482 -0.1639 -0.0951  0.0593
18209TIP3    H176042   6.372   1.956  12.493 -0.0924  0.2919 -0.7756
18209TIP3    H276043   6.245   1.922  12.569  0.5143  1.3281  0.7508
18210TIP3   OH276044   1.710   4.290  11.056 -0.1224  0.2867 -0.2369
18210TIP3    H176045   1.625   4.270  11.095  0.8867  0.7488  2.3988
18210TIP3    H276046   1.770   4.298  11.130  2.3200 -0.2813 -2.0081
18211TIP3   OH276047   4.536   5.521  14.662 -0.8000  0.4158 -0.4433
18211TIP3    H176048   4.537   5.617  14.658 -2.2324  0.4406 -0.5811
18211TIP3    H276049   4.444   5.498  14.663 -0.4975 -0.9104  1.1157
18212TIP3   OH276050   4.249   3.829   2.735 -0.2239  0.4367 -0.1800
18212TIP3    H176051   4.158   3.842   2.760 -0.3014  2.2975 -1.2106
18212TIP3    H276052   4.297   3.830   2.817 -1.1231 -0.7608  0.3921
18213TIP3   OH276053   4.815   5.069   4.953  0.1573  0.0685  0.0955
18213TIP3    H176054   4.807   5.162   4.933 -0.6672 -0.2075 -0.9626
18213TIP3    H276055   4.896   5.042   4.911  0.4493  0.3223  0.4883
18214TIP3   OH276056   5.974   6.725  14.269 -0.3842  0.3244  0.2085
18214TIP3    H176057   6.055   6.769  14.244  0.4515 -1.2771 -0.0530
18214TIP3    H276058   5.998   6.671  14.343 -0.8431 -1.2376 -0.7330
18215TIP3   OH276059   4.901   4.798  12.503  0.3936 -0.4867 -0.2922
18215TIP3    H176060   4.961   4.798  12.578 -1.1677 -0.6308  1.0210
18215TIP3    H276061   4.842   4.871  12.520 -2.0737 -2.4965  0.4369
18216TIP3   OH276062   6.726   0.898  15.199 -0.1025 -0.0133  0.3859
18216TIP3    H176063   6.677   0.930  15.123  1.6746  0.1040 -0.7626
18216TIP3    H276064   6.664   0.842  15.245 -1.4769  0.5430 -0.7025
18217TIP3   OH276065   0.453   4.241   5.688  0.1784  0.0958  0.7068
18217TIP3    H176066   0.475   4.299   5.615 -1.8402  1.2393  0.9324
18217TIP3    H276067   0.488   4.156   5.662 -1.0768  0.2786 -1.9623
18218TIP3   OH276068   2.420   4.813  13.028  0.0819  0.2348 -0.1580
18218TIP3    H176069   2.356   4.859  12.973  0.9538  0.2819 -1.1588
18218TIP3    H276070   2.457   4.746  12.971  1.4888  0.7101  0.1782
18219TIP3   OH276071   3.803   0.881   3.752 -0.4733  0.8815  0.3054
18219TIP3    H176072   3.841   0.959   3.792 -0.8612  1.5336 -0.5676
18219TIP3    H276073   3.795   0.902   3.659 -1.2032  0.0511  0.1596
18220TIP3   OH276074   1.449   5.277  13.028 -0.0481  0.1104  0.5406
18220TIP3    H176075   1.399   5.309  13.103  1.2483  3.1287  0.2456
18220TIP3    H276076   1.477   5.356  12.982  1.5813 -1.5656 -1.5725
18221TIP3   OH276077   1.838   0.880   0.996 -0.2057 -0.0563 -0.2152
18221TIP3    H176078   1.823   0.965   0.956 -0.7969 -0.3482 -0.6291
18221TIP3    H276079   1.757   0.861   1.044  0.2949  0.0574  0.7052
18222TIP3   OH276080   0.670   4.975  13.373 -0.1572 -0.1802  0.2022
18222TIP3    H176081   0.615   4.898  13.390  0.5248 -0.5193  0.9833
18222TIP3    H276082   0.667   5.025  13.455 -1.6989  1.3697 -0.7374
18223TIP3   OH276083   2.851   2.877  12.613 -0.4391 -0.3464 -0.2873
18223TIP3    H176084   2.757   2.876  12.594 -0.6786  0.9486  0.6621
18223TIP3    H276085   2.891   2.840  12.535 -1.7578 -1.2734 -0.5612
18224TIP3   OH276086   6.664   3.381   4.814 -0.0022  0.1507  0.4378
18224TIP3    H176087   6.623   3.347   4.893 -0.0119  2.1072  1.3332
18224TIP3    H276088   6.734   3.437   4.846  0.0553  0.9029 -0.9420
18225TIP3   OH276089   2.318   0.275  13.714  0.0811  0.5787  0.1269
18225TIP3    H176090   2.307   0.313  13.801 -0.0192  1.4249 -0.2453
18225TIP3    H276091   2.405   0.234  13.716 -0.7210 -1.1862  1.2565
18226TIP3   OH276092   5.587   1.428  15.626 -0.1856 -0.8780 -0.5363
18226TIP3    H176093   5.579   1.431  15.531  0.4624 -0.5710 -0.5828
18226TIP3    H276094   5.651   1.359  15.643  0.0832 -0.5897 -0.3514
18227TIP3   OH276095   1.413   4.762   0.924  0.3275 -0.2405  0.0896
18227TIP3    H176096   1.325   4.778   0.890 -0.0301  2.6926  2.0642
18227TIP3    H276097   1.469   4.817   0.870  0.8318 -1.1422 -0.3388
18228TIP3   OH276098   2.600   3.981  14.499 -0.1943 -0.5777  0.0987
18228TIP3    H176099   2.584   4.022  14.414 -0.5247 -1.8513 -0.4735
18228TIP3    H276100   2.694   3.993  14.513 -0.4281  1.2098  0.4197
18229TIP3   OH276101   2.166   4.935   4.808  0.0025 -0.1243  0.1541
18229TIP3    H176102   2.140   5.005   4.748 -0.2186  0.8036  1.2858
18229TIP3    H276103   2.220   4.980   4.874  0.9341 -1.2641  0.1973
18230TIP3   OH276104   3.641   4.580   1.954  0.7282 -0.2167  0.4169
18230TIP3    H176105   3.655   4.656   1.898  0.8833  0.2916  1.1396
18230TIP3    H276106   3.717   4.523   1.937  0.0733 -0.7282 -0.9301
18231TIP3   OH276107   5.247   4.609   0.138  0.1776 -0.0431  0.6035
18231TIP3    H176108   5.279   4.519   0.142  0.7201  0.1226  0.1619
18231TIP3    H276109   5.217   4.620   0.047 -1.0867 -0.1714  0.9840
18232TIP3   OH276110   3.002   6.030  15.858 -0.6583  0.5152  0.4773
18232TIP3    H176111   3.012   5.965  15.790  0.8225  0.2357  0.9308
18232TIP3    H276112   2.939   6.093  15.822 -0.1842  0.1884 -0.9798
18233TIP3   OH276113   1.348   2.177   1.093 -1.1068  0.2865 -0.2657
18233TIP3    H176114   1.401   2.153   1.169 -0.5552  0.6811 -0.5199
18233TIP3    H276115   1.314   2.264   1.113  0.6583  1.2810 -1.2763
18234TIP3   OH276116   5.664   3.475   0.737 -0.0935  0.1969  0.2535
18234TIP3    H176117   5.738   3.418   0.759 -0.2063 -0.3963 -0.8408
18234TIP3    H276118   5.687   3.513   0.653 -0.7632  0.4862  0.1960
18235TIP3   OH276119   6.460   3.482   1.301 -0.0087  0.2610 -0.1079
18235TIP3    H176120   6.500   3.434   1.229 -2.4018 -0.2053 -1.2337
18235TIP3    H276121   6.455   3.419   1.373  0.5915  0.1012 -0.2085
18236TIP3   OH276122   0.793   6.709   6.126  0.5082  0.6908  0.0562
18236TIP3    H176123   0.737   6.676   6.196 -1.2250  0.8301 -1.1825
18236TIP3    H276124   0.796   6.804   6.140 -1.6061  1.0080 -1.1779
18237TIP3   OH276125   2.384   5.766  10.292  0.3584 -0.0524  0.3762
18237TIP3    H176126   2.367   5.712  10.215  1.1129  0.0294  0.1415
18237TIP3    H276127   2.303   5.815  10.305  0.3349  0.2044 -0.5907
18238TIP3   OH276128   3.486   3.225   4.240 -0.7369  0.0832 -0.1126
18238TIP3    H176129   3.523   3.137   4.244  0.7118  0.6418 -0.6381
18238TIP3    H276130   3.431   3.231   4.319  0.1654 -0.8397  0.6148
18239TIP3   OH276131   2.231   0.686  11.915  0.0763 -0.0940 -0.0777
18239TIP3    H176132   2.169   0.688  11.988 -1.1346 -0.8560 -1.0409
18239TIP3    H276133   2.277   0.770  11.920 -1.6146  0.8643  0.1861
18240TIP3   OH276134   3.957   5.347   4.375 -0.0189 -0.3528  0.3971
18240TIP3    H176135   3.928   5.258   4.392  0.8327 -0.7577 -0.1969
18240TIP3    H276136   4.053   5.341   4.369 -0.0655  0.2615 -1.5157
18241TIP3   OH276137   2.320   6.286   0.411  0.0089 -0.0879  0.2336
18241TIP3    H176138   2.340   6.351   0.478 -2.6561  1.1437 -0.0530
18241TIP3    H276139   2.286   6.211   0.458 -0.2502  0.1119  0.3653
18242TIP3   OH276140   2.137   3.416  14.899  0.2035 -0.0376 -0.3767
18242TIP3    H176141   2.093   3.367  14.829  0.0561 -0.1316 -0.2188
18242TIP3    H276142   2.230   3.396  14.888  0.0361 -1.3135  0.4300
18243TIP3   OH276143   5.219   6.254   3.916 -0.5620 -0.3474  0.0526
18243TIP3    H176144   5.288   6.301   3.869 -1.0624 -1.1145 -1.4882
18243TIP3    H276145   5.211   6.301   3.999  0.4878  0.9109 -0.5251
18244TIP3   OH276146   0.434   2.025  12.534 -0.2471 -0.1316  0.2498
18244TIP3    H176147   0.465   2.114  12.550 -0.2200 -0.4616  2.3846
18244TIP3    H276148   0.476   1.999  12.452  1.0628  1.2380  0.4363
18245TIP3   OH276149   0.976   6.303  16.987  0.4084 -0.3086  0.3530
18245TIP3    H176150   0.895   6.291  17.036  2.1973 -1.7952  3.1644
18245TIP3    H276151   0.950   6.357  16.912 -2.7733  0.9119  2.1394
18246TIP3   OH276152   1.049   4.863  11.650  0.5487 -0.1890 -0.5184
18246TIP3    H176153   1.141   4.868  11.676  0.4196  0.5163 -0.1894
18246TIP3    H276154   1.003   4.831  11.728  0.6500 -1.6693 -1.0191
18247TIP3   OH276155   4.528   3.479   5.031 -0.4659  0.0055  0.1945
18247TIP3    H176156   4.459   3.412   5.026 -2.1440  1.7455 -3.5930
18247TIP3    H276157   4.604   3.438   4.990 -0.4638 -0.5759  0.7518
18248TIP3   OH276158   6.145   2.301  11.390  0.6968 -0.2947 -0.3451
18248TIP3    H176159   6.086   2.359  11.439  0.0647 -1.0510 -0.1875
18248TIP3    H276160   6.095   2.276  11.313  1.4851  0.4475 -1.1158
18249TIP3   OH276161   3.701   1.800   1.355 -0.4260  0.2716 -0.3723
18249TIP3    H176162   3.645   1.770   1.427 -0.0450  1.4367  0.4183
18249TIP3    H276163   3.692   1.895   1.354 -1.4626  0.2387 -2.7260
18250TIP3   OH276164   5.246   4.257  11.622  0.3459  0.2174 -0.3985
18250TIP3    H176165   5.309   4.251  11.694 -0.6060 -0.3036  0.4179
18250TIP3    H276166   5.252   4.172  11.579  0.2672  0.1988 -0.3726
18251TIP3   OH276167   4.565   1.065   4.823 -0.6361 -0.1754 -0.1736
18251TIP3    H176168   4.586   0.985   4.774 -2.2101 -0.0549 -1.1078
18251TIP3    H276169   4.599   1.048   4.911 -0.5054 -1.6921 -0.4798
18252TIP3   OH276170   1.831   6.275  13.963  0.3296  0.0109  0.0621
18252TIP3    H176171   1.803   6.259  14.054 -1.3223 -0.9007 -0.5638
18252TIP3    H276172   1.750   6.280  13.914  1.2254 -2.2653 -1.8102
18253TIP3   OH276173   5.556   0.335   5.180 -0.8085  0.0538  0.4083
18253TIP3    H176174   5.625   0.399   5.164  1.0283 -1.7904  0.5606
18253TIP3    H276175   5.489   0.355   5.114 -0.7072  2.5949  0.9845
18254TIP3   OH276176   3.787   6.467  11.414  0.3731  0.4822 -0.4495
18254TIP3    H176177   3.737   6.502  11.488  0.4050  0.9903 -0.6667
18254TIP3    H276178   3.853   6.410  11.455  0.3070  0.6561 -0.0940
18255TIP3   OH276179   5.291   3.735   3.211  0.0910 -0.6333 -0.3805
18255TIP3    H176180   5.244   3.748   3.128 -0.8069  0.3880  0.2690
18255TIP3    H276181   5.364   3.796   3.207 -0.2486 -0.2123 -0.2056
18256TIP3   OH276182   0.749   1.206  12.489  0.3636 -0.2201 -0.7723
18256TIP3    H176183   0.656   1.229  12.476  0.3174  0.0908  0.0689
18256TIP3    H276184   0.786   1.209  12.401 -0.0757  1.2223 -0.9375
18257TIP3   OH276185   2.086   5.756  12.861 -0.3718  0.5384  0.1021
18257TIP3    H176186   2.081   5.817  12.787 -0.9950  0.3070 -0.0587
18257TIP3    H276187   2.028   5.794  12.927  0.7330  1.1114  0.7548
18258TIP3   OH276188   5.701   5.307   1.078 -0.4007 -0.3741  0.1866
18258TIP3    H176189   5.752   5.309   0.996 -1.6368 -4.3598 -0.9081
18258TIP3    H276190   5.612   5.332   1.051 -0.4338  0.0955  0.7192
18259TIP3   OH276191   1.498   1.200   4.756 -0.0604  0.1392  0.3641
18259TIP3    H176192   1.499   1.280   4.809 -1.1492  2.0317 -2.2524
18259TIP3    H276193   1.573   1.150   4.787  1.0905  2.4999  1.6631
18260TIP3   OH276194   0.650   6.199   6.154 -0.1973 -0.1562 -0.0927
18260TIP3    H176195   0.622   6.120   6.200  1.5174 -1.2295 -0.8025
18260TIP3    H276196   0.745   6.203   6.168 -0.2626  1.8543  0.0250
18261TIP3   OH276197   3.679   3.140  11.368 -0.0224 -0.3722  0.2215
18261TIP3    H176198   3.590   3.128  11.402 -0.6373  0.2996 -1.1121
18261TIP3    H276199   3.695   3.234  11.374  0.1007 -0.3246 -0.7412
18262TIP3   OH276200   5.445   2.204  14.407  0.1081  0.0943 -0.2428
18262TIP3    H176201   5.358   2.203  14.367  0.0684 -0.3893 -0.1534
18262TIP3    H276202   5.503   2.169  14.339  0.1655  0.0205 -0.1568
18263TIP3   OH276203   6.780   2.938   1.130  0.2189  0.3121 -0.1776
18263TIP3    H176204   6.814   3.014   1.177  0.3272 -0.4388  0.9947
18263TIP3    H276205   6.851   2.874   1.133  0.3653  0.3605 -1.7035
18264TIP3   OH276206   1.102   2.111  16.612  0.1184  0.0464 -0.3910
18264TIP3    H176207   1.193   2.118  16.641  0.1967  1.2322 -0.8748
18264TIP3    H276208   1.063   2.195  16.635 -0.0470  0.7272 -2.9179
18265TIP3   OH276209   3.000   0.838  14.679 -0.6631 -0.1847  0.7242
18265TIP3    H176210   2.939   0.775  14.640 -2.3254  1.8052 -0.0976
18265TIP3    H276211   2.995   0.821  14.773  1.2879 -3.2136  0.4038
18266TIP3   OH276212   3.352   6.450  11.128  0.5408 -0.6867 -0.4161
18266TIP3    H176213   3.320   6.365  11.100  0.6731 -0.2869 -1.8560
18266TIP3    H276214   3.434   6.462  11.079  0.9855 -0.1208  0.4476
18267TIP3   OH276215   6.255   4.415   1.300 -0.0179 -0.1841  0.2234
18267TIP3    H176216   6.258   4.321   1.319  1.8756 -0.4933 -1.2678
18267TIP3    H276217   6.343   4.446   1.320  0.3927  0.5587 -2.4003
18268TIP3   OH276218   1.825   2.768   6.224  0.8670 -0.0788  0.3092
18268TIP3    H176219   1.842   2.674   6.232  0.8918 -0.0562  0.5308
18268TIP3    H276220   1.908   2.810   6.246  0.7864  0.0027  0.4623
18269TIP3   OH276221   3.290   0.365   4.269 -0.3566 -0.0045  0.1373
18269TIP3    H176222   3.241   0.446   4.286  0.8740  0.5741  1.0624
18269TIP3    H276223   3.238   0.296   4.311 -1.3199  0.3039 -0.4996
18270TIP3   OH276224   2.165   4.558  16.914  0.1053 -0.5206 -0.1758
18270TIP3    H176225   2.233   4.625  16.915 -1.8864  1.6257 -0.5417
18270TIP3    H276226   2.120   4.570  16.830 -0.8440 -1.7725  0.1179
18271TIP3   OH276227   3.536   5.861  14.699 -0.3814 -0.1749 -0.1074
18271TIP3    H176228   3.497   5.848  14.785 -3.2558 -1.3164 -1.4610
18271TIP3    H276229   3.517   5.953  14.678  2.7951  1.0016  1.4766
18272TIP3   OH276230   5.297   6.689  14.752 -0.4805  0.7327 -0.4654
18272TIP3    H176231   5.388   6.718  14.753 -0.0397 -0.5756 -1.1413
18272TIP3    H276232   5.266   6.711  14.664  0.2733 -1.9668 -1.4821
18273TIP3   OH276233   1.920   4.244  10.896 -0.1329  1.0669 -0.2698
18273TIP3    H176234   1.985   4.305  10.930  0.3035 -0.2446  1.3903
18273TIP3    H276235   1.838   4.269  10.939  0.2163  0.0225  1.0669
18274TIP3   OH276236   0.282   2.914   1.093  0.9619  0.4132  0.0983
18274TIP3    H176237   0.302   2.820   1.101 -1.7177 -0.1698  1.0358
18274TIP3    H276238   0.210   2.928   1.154 -0.4323  2.5293 -1.8874
18275TIP3   OH276239   0.639   5.931  11.245  0.1526  0.8607 -0.1724
18275TIP3    H176240   0.658   5.901  11.156  1.3500  1.3286 -0.0960
18275TIP3    H276241   0.708   5.891  11.299 -0.1524  1.1383  0.4326
18276TIP3   OH276242   1.237   2.870  10.502  0.4330 -0.2121  0.0073
18276TIP3    H176243   1.208   2.904  10.586 -0.2137 -0.6305 -0.0366
18276TIP3    H276244   1.291   2.794  10.524  1.3911  0.4671  0.0825
18277TIP3   OH276245   6.630   5.418   0.902  0.2037  0.4430  0.1584
18277TIP3    H176246   6.549   5.370   0.889  2.0130 -3.3746  1.4744
18277TIP3    H276247   6.694   5.373   0.847  1.7981  2.2592  0.4217
18278TIP3   OH276248   4.056   5.821   5.191 -0.2186  0.1992 -0.3482
18278TIP3    H176249   4.113   5.786   5.123  0.7134 -1.1541  1.0636
18278TIP3    H276250   3.967   5.803   5.159  0.1211  1.4313 -2.1052
18279TIP3   OH276251   4.794   1.022  11.932  0.0907  0.3123  0.5629
18279TIP3    H176252   4.786   0.995  12.023  1.5144  0.6035  0.8000
18279TIP3    H276253   4.877   0.985  11.902 -0.9139 -0.8019 -1.0068
18280TIP3   OH276254   3.440   5.428   4.546  0.3565  0.3997  0.2567
18280TIP3    H176255   3.383   5.351   4.537  1.4797 -0.3221 -1.0267
18280TIP3    H276256   3.380   5.499   4.569 -1.0964 -0.3164 -1.0919
18281TIP3   OH276257   0.952   0.543   6.634  0.0407  0.2710  0.6122
18281TIP3    H176258   1.034   0.501   6.657  0.6754  0.3405 -1.3190
18281TIP3    H276259   0.978   0.627   6.597 -0.8630  0.1855 -0.2680
18282TIP3   OH276260   5.775   2.807   5.326  0.1297  0.2732  0.2556
18282TIP3    H176261   5.729   2.724   5.315 -0.0635  0.5924 -1.7623
18282TIP3    H276262   5.710   2.865   5.367 -0.0861 -0.2392  0.6612
18283TIP3   OH276263   3.340   6.625   5.750  0.4491  0.1847  0.3610
18283TIP3    H176264   3.418   6.680   5.753  1.0865 -0.3092 -3.2169
18283TIP3    H276265   3.371   6.539   5.777  1.5326 -0.2599 -2.0092
18284TIP3   OH276266   4.312   3.596  13.013  0.1280 -0.2658 -0.4926
18284TIP3    H176267   4.367   3.530  12.970 -1.0828 -0.7150 -1.4015
18284TIP3    H276268   4.295   3.560  13.100  0.2941 -0.6899 -0.6327
18285TIP3   OH276269   0.471   1.161   3.086 -0.1712  0.2441  0.1790
18285TIP3    H176270   0.378   1.187   3.090 -0.3607 -0.5001  0.7185
18285TIP3    H276271   0.470   1.067   3.100  0.8873  0.5820  3.3445
18286TIP3   OH276272   0.512   3.755  11.631  0.2247  0.5816 -0.1189
18286TIP3    H176273   0.445   3.787  11.691 -1.7960  0.4591 -2.1738
18286TIP3    H276274   0.526   3.664  11.658 -2.0218 -0.0514 -0.8735
18287TIP3   OH276275   5.031   2.512  11.947 -0.3463 -0.0128 -0.2144
18287TIP3    H176276   5.123   2.537  11.939  0.1769 -1.4275  0.8481
18287TIP3    H276277   5.011   2.521  12.040 -1.4438  0.7402 -0.4985
18288TIP3   OH276278   3.612   2.646  11.694  0.0097 -0.3420  0.1585
18288TIP3    H176279   3.614   2.740  11.711 -0.2051 -0.3697  0.3421
18288TIP3    H276280   3.520   2.623  11.698  0.1468 -0.7656  1.3079
18289TIP3   OH276281   1.322   2.197   3.046 -0.2850 -0.0642  0.0634
18289TIP3    H176282   1.284   2.121   3.091  1.1074 -1.1502 -0.5409
18289TIP3    H276283   1.246   2.246   3.015 -1.2992 -2.6041 -1.8631
18290TIP3   OH276284   4.280   6.770   0.851  0.1322  0.0165  0.5903
18290TIP3    H176285   4.276   6.815   0.767  2.2379 -0.3034  0.2588
18290TIP3    H276286   4.287   6.840   0.916  0.2719  0.2338  0.3431
18291TIP3   OH276287   3.281   6.642  15.253 -0.2201  0.1645  0.1968
18291TIP3    H176288   3.334   6.697  15.195 -0.3069  0.7551  0.6657
18291TIP3    H276289   3.304   6.553  15.229 -1.0587  0.3653 -1.5320
18292TIP3   OH276290   0.974   6.040  15.252  0.5823 -0.2171 -0.6863
18292TIP3    H176291   0.908   6.002  15.309  1.7931 -2.4467 -0.6338
18292TIP3    H276292   0.925   6.091  15.188 -1.1341 -1.2275 -0.2435
18293TIP3   OH276293   1.309   3.568  15.616 -0.2221  0.2199 -0.8197
18293TIP3    H176294   1.375   3.600  15.554 -0.2690  1.6107 -0.1768
18293TIP3    H276295   1.225   3.589  15.575 -0.3521 -2.0427 -1.8991
18294TIP3   OH276296   1.175   3.541   3.333  0.0323 -0.1214 -0.0507
18294TIP3    H176297   1.234   3.617   3.325  1.1836 -0.9579  0.1402
18294TIP3    H276298   1.155   3.536   3.427  2.0018 -1.4847  0.3604
18295TIP3   OH276299   5.875   2.342  13.212 -0.1050 -0.2962 -0.2311
18295TIP3    H176300   5.861   2.437  13.211 -1.0861 -0.4420 -0.6988
18295TIP3    H276301   5.914   2.325  13.298  0.6066  0.5938 -0.3573
18296TIP3   OH276302   2.885   4.834  11.063  0.0255 -0.2663 -0.0166
18296TIP3    H176303   2.846   4.870  10.984  2.3252  2.3108 -0.0928
18296TIP3    H276304   2.834   4.873  11.134 -0.3767 -0.5194 -0.1601
18297TIP3   OH276305   4.998   2.415   5.281  0.2608  0.0584  0.4952
18297TIP3    H176306   4.963   2.372   5.203 -0.3501  2.3736 -0.5903
18297TIP3    H276307   5.087   2.383   5.289  0.0413 -0.8916 -0.6435
18298TIP3   OH276308   3.972   0.361   0.093 -0.1585  1.1242  0.1048
18298TIP3    H176309   3.980   0.377   0.187  0.5878  1.7675 -0.0584
18298TIP3    H276310   4.016   0.436   0.052  0.2861  0.4195 -0.7410
18299TIP3   OH276311   5.724   0.800  11.361  0.3216 -0.3386 -0.1479
18299TIP3    H176312   5.645   0.781  11.311 -0.8582 -1.4530  1.9871
18299TIP3    H276313   5.738   0.894  11.350 -3.7652  0.8588  2.5967
18300TIP3   OH276314   0.563   1.919  14.585  0.0300 -0.3153  0.0211
18300TIP3    H176315   0.472   1.939  14.608  0.2680  0.3634  0.4179
18300TIP3    H276316   0.566   1.928  14.490 -0.0382  0.9279  0.1126
18301TIP3   OH276317   0.691   5.386  11.415 -0.0845  0.4873  0.7580
18301TIP3    H176318   0.759   5.451  11.430 -1.9780  2.6449  0.6423
18301TIP3    H276319   0.655   5.408  11.329  0.0049 -1.5530  0.1275
18302TIP3   OH276320   3.039   0.852   2.847  0.1606 -0.3902  0.3439
18302TIP3    H176321   3.133   0.833   2.844  0.2427  0.1175 -1.1395
18302TIP3    H276322   3.000   0.776   2.890  1.1611 -0.9676  0.2631
18303TIP3   OH276323   1.727   5.988  16.276 -0.5230 -0.4490  0.0897
18303TIP3    H176324   1.633   5.972  16.277 -0.5051 -0.5827 -0.1517
18303TIP3    H276325   1.743   6.047  16.350 -0.9444  0.4499 -0.5299
18304TIP3   OH276326   5.039   0.956  15.699  0.1551 -0.6272 -0.7832
18304TIP3    H176327   5.107   0.976  15.635 -0.9778  0.7503 -1.6220
18304TIP3    H276328   4.982   0.894  15.654 -0.2619 -0.1971 -0.8469
18305TIP3   OH276329   5.573   6.572   1.926  0.2569 -0.2907 -0.3668
18305TIP3    H176330   5.530   6.598   2.007  0.9412  0.6058 -0.2710
18305TIP3    H276331   5.574   6.477   1.928 -0.2393 -0.2821  0.4075
18306TIP3   OH276332   1.347   1.388  11.046 -0.2847 -0.0919  0.0640
18306TIP3    H176333   1.301   1.359  10.967 -1.5258 -2.2631  1.5043
18306TIP3    H276334   1.420   1.326  11.055 -1.9010 -1.8211  2.1856
18307TIP3   OH276335   2.246   1.085   2.511  0.3496  0.4066 -0.0457
18307TIP3    H176336   2.275   1.054   2.597  0.0778 -0.1104 -0.1395
18307TIP3    H276337   2.153   1.063   2.507 -0.1809  2.3388  0.3786
18308TIP3   OH276338   2.840   2.685   3.745 -0.7920 -0.4032 -0.3073
18308TIP3    H176339   2.790   2.634   3.681  0.2706  0.8982 -2.2653
18308TIP3    H276340   2.774   2.725   3.801 -1.8972  0.2330 -1.9979
18309TIP3   OH276341   4.855   6.065   4.265 -0.0311 -0.3675 -0.6483
18309TIP3    H176342   4.948   6.079   4.247 -0.5537  1.4523 -2.2575
18309TIP3    H276343   4.810   6.103   4.190 -2.1045 -0.9458  0.2363
18310TIP3   OH276344   0.146   5.883  14.766 -0.3301  0.6272  0.2109
18310TIP3    H176345   0.183   5.971  14.765  0.0820  0.4582  0.6232
18310TIP3    H276346   0.156   5.851  14.676  0.2773  0.6836  0.2564
18311TIP3   OH276347   4.240   0.869  16.038 -0.3529  0.3526  0.1491
18311TIP3    H176348   4.196   0.785  16.030 -0.0652  0.2818 -0.7719
18311TIP3    H276349   4.320   0.850  16.086  0.2814 -0.1151 -1.0756
18312TIP3   OH276350   5.502   1.106  16.697  0.1589  0.5012  0.3623
18312TIP3    H176351   5.512   1.179  16.636 -3.6596 -0.0137 -1.1382
18312TIP3    H276352   5.583   1.055  16.688  0.7596  1.7934 -2.4247
18313TIP3   OH276353   0.348   0.989  11.254  0.7086 -0.2588  0.2676
18313TIP3    H176354   0.278   0.935  11.219 -0.4123  0.2446  1.6632
18313TIP3    H276355   0.355   0.964  11.346  0.0051  2.0373  1.0207
18314TIP3   OH276356   3.627   6.746  11.825  0.3088 -0.0660  0.8932
18314TIP3    H176357   3.577   6.713  11.899  1.2665  1.4538  2.2776
18314TIP3    H276358   3.717   6.715  11.840 -0.2530 -4.3673 -2.5054
18315TIP3   OH276359   1.057   5.518   3.546  0.5543 -0.5194  0.3495
18315TIP3    H176360   1.043   5.480   3.633  1.2923  0.2318  0.8135
18315TIP3    H276361   1.152   5.527   3.539  0.4573  0.1209 -0.2391
18316TIP3   OH276362   3.420   4.362  11.774  0.7743  0.1827  0.2754
18316TIP3    H176363   3.333   4.357  11.734  1.3310 -2.3874 -0.7603
18316TIP3    H276364   3.438   4.456  11.780 -1.8103  0.7702 -0.0002
18317TIP3   OH276365   1.853   1.831   2.567 -0.0948  0.2866  0.0938
18317TIP3    H176366   1.902   1.750   2.554  1.9624  0.8171  3.3345
18317TIP3    H276367   1.866   1.881   2.486  0.7128 -1.5563 -0.9688
18318TIP3   OH276368   4.945   4.947  15.005  0.1595  0.4641 -0.3394
18318TIP3    H176369   5.003   4.953  15.081  0.4110 -0.8580 -0.4068
18318TIP3    H276370   4.896   5.029  15.007  0.7964  0.8480  0.7314
18319TIP3   OH276371   6.142   3.799  16.006 -0.0979 -0.4874 -0.1784
18319TIP3    H176372   6.056   3.768  15.977 -0.7688  0.8581  0.2757
18319TIP3    H276373   6.168   3.736  16.074 -2.8181  1.4002  2.9105
18320TIP3   OH276374   2.598   1.000  13.201  0.0398 -0.0723 -0.7674
18320TIP3    H176375   2.603   0.966  13.291  0.3622  0.3334 -0.6272
18320TIP3    H276376   2.598   0.922  13.146  0.3658 -0.3149 -0.4316
18321TIP3   OH276377   4.087   0.324  14.619  0.4392  0.3271  0.1823
18321TIP3    H176378   4.023   0.374  14.569 -1.4458 -0.8274  1.2883
18321TIP3    H276379   4.064   0.341  14.710  0.5104 -1.5576  0.5892
18322TIP3   OH276380   6.356   6.643  14.642 -0.0765 -0.0998  0.5321
18322TIP3    H176381   6.347   6.598  14.726 -2.3812 -1.9638 -0.6047
18322TIP3    H276382   6.366   6.573  14.578  2.2101  1.2946 -0.7789
18323TIP3   OH276383   3.199   4.771   6.346 -0.3729  0.5580  0.0074
18323TIP3    H176384   3.280   4.773   6.397 -0.9087 -0.7906  0.9660
18323TIP3    H276385   3.149   4.847   6.377  0.5569  1.4929 -0.7043
18324TIP3   OH276386   0.159   6.124  11.172  0.2182 -0.0496 -0.2653
18324TIP3    H176387   0.216   6.164  11.238  0.4091  0.0736 -0.5025
18324TIP3    H276388   0.218   6.068  11.122  0.1460  0.1507 -0.5726
18325TIP3   OH276389   3.079   1.550  10.430  0.1823 -0.3818 -0.5301
18325TIP3    H176390   3.127   1.514  10.505  1.0975  0.3331 -0.7519
18325TIP3    H276391   3.042   1.473  10.387  0.9008 -0.9389 -0.1884
18326TIP3   OH276392   6.771   6.192   6.000 -0.0639  0.1057  0.2577
18326TIP3    H176393   6.835   6.125   6.024 -0.6551 -0.4669  0.2537
18326TIP3    H276394   6.807   6.274   6.035  0.5070 -0.2620  0.5337
18327TIP3   OH276395   5.203   3.041   0.480 -0.4103  0.1901  0.6721
18327TIP3    H176396   5.129   2.993   0.441 -0.5794  1.0467 -0.0872
18327TIP3    H276397   5.168   3.129   0.496  0.0306  0.2016  1.6375
18328TIP3   OH276398   6.421   6.293   5.902 -0.1806 -0.3505 -0.7956
18328TIP3    H176399   6.352   6.295   5.968  0.3199  0.6156 -0.2826
18328TIP3    H276400   6.386   6.343   5.828 -0.1220 -0.0785 -0.6374
18329TIP3   OH276401   2.820   1.855  10.764  0.4129 -0.1237  0.0332
18329TIP3    H176402   2.818   1.777  10.708 -0.8508 -0.3498  0.3718
18329TIP3    H276403   2.833   1.820  10.852  3.0901  0.2671 -0.1244
18330TIP3   OH276404   1.296   0.580  12.688 -0.0624 -0.2909 -0.0132
18330TIP3    H176405   1.315   0.639  12.614  1.2697 -0.8690 -0.1577
18330TIP3    H276406   1.226   0.524  12.656 -0.6184  0.5129 -0.2511
18331TIP3   OH276407   4.174   6.397  15.985  0.1687 -0.0137 -0.3683
18331TIP3    H176408   4.181   6.465  16.052 -0.1710  0.5739 -0.9218
18331TIP3    H276409   4.085   6.362  15.997 -0.0978  0.4793 -0.8724
18332TIP3   OH276410   2.961   0.246  12.974 -0.2619 -0.0499  0.2868
18332TIP3    H176411   2.930   0.161  13.006 -0.7795  0.3202  0.7689
18332TIP3    H276412   2.942   0.244  12.880  0.2235 -0.6751  0.1872
18333TIP3   OH276413   0.362   2.117   0.484 -0.3567  0.0464 -0.2429
18333TIP3    H176414   0.277   2.101   0.444 -1.0222  0.6478  0.9060
18333TIP3    H276415   0.363   2.210   0.505  1.2682  0.4420 -1.7502
18334TIP3   OH276416   0.270   6.810   1.944  0.3375 -0.4300  0.7204
18334TIP3    H176417   0.352   6.761   1.954  0.5284 -0.5892 -1.2139
18334TIP3    H276418   0.203   6.752   1.980  0.8413 -1.1518  0.5236
18335TIP3   OH276419   5.702   5.813   3.424 -0.1397 -0.6036 -0.0634
18335TIP3    H176420   5.763   5.813   3.498  0.4643  0.8245 -0.5275
18335TIP3    H276421   5.618   5.836   3.462  0.3321  0.9540  0.0814
18336TIP3   OH276422   3.055   2.105   1.159  0.2960  0.5145 -0.0365
18336TIP3    H176423   2.966   2.072   1.164  0.4660  0.0147 -0.3069
18336TIP3    H276424   3.110   2.032   1.187  0.6677  0.5815 -0.5719
18337TIP3   OH276425   3.521   2.176  11.103 -0.1988  0.6562 -0.0347
18337TIP3    H176426   3.478   2.230  11.170  2.6291  0.8971  1.7394
18337TIP3    H276427   3.582   2.236  11.059  1.5573 -0.5832  0.6125
18338TIP3   OH276428   4.747   1.934   4.343 -0.1098  0.5127  0.3703
18338TIP3    H176429   4.666   1.970   4.306  0.8738  2.2254 -0.2095
18338TIP3    H276430   4.757   1.849   4.300 -1.2210  0.5822 -0.0760
18339TIP3   OH276431   3.679   4.302  16.467  0.2067  0.0458  0.6670
18339TIP3    H176432   3.767   4.270  16.484 -0.2388 -0.3326  2.4749
18339TIP3    H276433   3.689   4.396  16.454  0.9638 -0.1199 -0.0365
18340TIP3   OH276434   2.761   0.153  15.856  0.2320  0.0790 -0.1996
18340TIP3    H176435   2.788   0.124  15.768 -0.8376  0.0453 -0.5328
18340TIP3    H276436   2.671   0.184  15.845 -0.2410 -0.7518  1.0502
18341TIP3   OH276437   4.580   4.507  16.914 -0.1940  0.0226  0.5765
18341TIP3    H176438   4.667   4.541  16.890  0.0241  0.3468  1.7705
18341TIP3    H276439   4.559   4.444  16.845  0.8327  0.1989  0.0839
18342TIP3   OH276440   3.543   3.058   5.391 -0.1816 -0.8024  0.4676
18342TIP3    H176441   3.462   3.079   5.345  0.1464  1.6508  0.9078
18342TIP3    H276442   3.514   3.025   5.477 -0.7270 -0.1540  0.5360
18343TIP3   OH276443   0.960   0.008  13.969 -0.2598  0.2168  0.2579
18343TIP3    H176444   0.900   0.079  13.947 -0.4312  0.4555  1.4257
18343TIP3    H276445   0.939  -0.014  14.060 -0.9666 -2.0781 -0.4034
18344TIP3   OH276446   3.655   5.048   5.250  0.3643  0.4580  0.2641
18344TIP3    H176447   3.607   5.101   5.314 -0.6058  0.2180 -0.2442
18344TIP3    H276448   3.663   5.104   5.173  0.6588  0.3940  0.2468
18345TIP3   OH276449   1.408   1.640   5.784  0.2185 -0.1415 -0.2608
18345TIP3    H176450   1.464   1.633   5.706  0.5303  1.3931 -0.2081
18345TIP3    H276451   1.386   1.733   5.790 -0.3747 -0.3384  1.0883
18346TIP3   OH276452   5.042   1.830  14.867 -0.1129  0.2597  0.1298
18346TIP3    H176453   5.035   1.870  14.953 -0.9800  0.6901 -0.1272
18346TIP3    H276454   4.953   1.833  14.832 -0.1889 -1.8104  0.0492
18347TIP3   OH276455   0.258   2.224  14.347  0.2302  0.5873  0.3070
18347TIP3    H176456   0.288   2.281  14.419  0.8196  1.7196 -0.7995
18347TIP3    H276457   0.191   2.276  14.302  2.1597  1.2844 -1.9159
18348TIP3   OH276458   4.085   4.549  16.249 -0.8898 -0.2014 -0.2991
18348TIP3    H176459   4.152   4.480  16.253 -1.0077 -0.2438  1.5792
18348TIP3    H276460   4.050   4.542  16.160  1.1914 -0.5432 -1.1509
18349TIP3   OH276461   0.754   6.084  14.739 -0.2252 -0.7309  0.4838
18349TIP3    H176462   0.781   6.001  14.779  1.0651 -0.9104 -0.6830
18349TIP3    H276463   0.734   6.061  14.648 -1.3120 -0.0170  0.5285
18350TIP3   OH276464   6.091   0.002   2.154 -0.2742 -0.2308 -0.8138
18350TIP3    H176465   6.135  -0.079   2.130 -1.1860 -0.6091 -1.2687
18350TIP3    H276466   6.123   0.066   2.091  3.1622  0.7362  1.6142
18351TIP3   OH276467   2.101   5.181  16.770  0.9083  0.2973  0.5849
18351TIP3    H176468   2.180   5.218  16.729  0.9940 -1.1918 -0.6986
18351TIP3    H276469   2.037   5.177  16.699  0.7768 -1.5601  0.7560
18352TIP3   OH276470   5.178   2.249  14.584  0.1727  0.2444  0.3655
18352TIP3    H176471   5.240   2.298  14.529 -0.5062  0.2562 -0.4130
18352TIP3    H276472   5.108   2.223  14.524 -0.4147 -0.0566  1.1597
18353TIP3   OH276473   2.791   6.639  14.510  0.1869 -0.0768  0.0192
18353TIP3    H176474   2.836   6.585  14.446 -2.8993 -2.2587 -0.5651
18353TIP3    H276475   2.842   6.630  14.590 -0.1943 -4.2282  0.0082
18354TIP3   OH276476   1.483   3.244  12.801  0.7397 -0.6408 -0.2370
18354TIP3    H176477   1.448   3.284  12.721 -1.4936 -0.4312  0.7698
18354TIP3    H276478   1.526   3.317  12.847 -1.3046  0.1908  0.4956
18355TIP3   OH276479   4.689   6.707   4.152  0.0206 -0.4141  0.1013
18355TIP3    H176480   4.752   6.779   4.151 -0.5716  0.1208  0.6876
18355TIP3    H276481   4.608   6.746   4.187  0.1717 -1.7558  2.0969
18356TIP3   OH276482   6.360   4.151  13.797 -0.7746  0.5906 -0.6168
18356TIP3    H176483   6.346   4.142  13.702  2.5538  0.7476 -1.2703
18356TIP3    H276484   6.453   4.171  13.804 -0.7916 -0.0930  2.7797
18357TIP3   OH276485   4.169   0.912  11.333 -0.0647 -0.3689 -0.1792
18357TIP3    H176486   4.175   0.911  11.429  0.4972 -1.9078 -0.1972
18357TIP3    H276487   4.083   0.875  11.314 -0.8987  1.5199 -0.2731
18358TIP3   OH276488   2.070   6.659   3.210  0.1128 -0.4223  0.0860
18358TIP3    H176489   2.094   6.654   3.303  0.8468  0.0687 -0.0770
18358TIP3    H276490   2.117   6.585   3.170  0.7526  0.0806 -0.0990
18359TIP3   OH276491   0.825   2.727  14.995 -0.3010 -0.4363  0.2381
18359TIP3    H176492   0.900   2.668  14.994 -0.6038 -0.8648  1.5447
18359TIP3    H276493   0.864   2.814  15.004  0.0613 -0.5983  0.2661
18360TIP3   OH276494   2.171   1.978   0.428 -0.0493  0.2461 -0.0327
18360TIP3    H176495   2.217   2.054   0.461 -0.6203  0.3282  0.6031
18360TIP3    H276496   2.147   2.001   0.338  1.8563 -0.1318 -0.6693
18361TIP3   OH276497   0.960   1.567  11.247 -0.2650 -0.3218  0.4759
18361TIP3    H176498   0.867   1.572  11.225 -0.1193 -0.2599 -0.1710
18361TIP3    H276499   1.003   1.548  11.163  0.4246  1.0448  0.4948
18362TIP3   OH276500   0.123   6.365   4.910 -0.3192 -0.5118  0.3727
18362TIP3    H176501   0.094   6.340   4.998  0.5128 -1.1528  0.4811
18362TIP3    H276502   0.115   6.460   4.907 -0.1077 -0.4608  1.2400
18363TIP3   OH276503   4.257   3.295  11.512 -1.0841 -0.2860  0.4782
18363TIP3    H176504   4.176   3.304  11.562 -1.4038  0.2043 -0.1090
18363TIP3    H276505   4.227   3.278  11.422 -0.5290 -0.5727  0.3459
18364TIP3   OH276506   0.189   1.410   0.212  0.5591  0.3899 -0.5540
18364TIP3    H176507   0.267   1.458   0.185  0.9019  0.5157  0.5979
18364TIP3    H276508   0.200   1.323   0.171  0.5433  0.8797 -1.6300
18365TIP3   OH276509   2.156   3.572  15.151 -0.6220  0.3937  1.2351
18365TIP3    H176510   2.184   3.483  15.173  1.5574  0.0044 -2.3597
18365TIP3    H276511   2.062   3.565  15.136 -0.2592 -1.7490 -0.4623
18366TIP3   OH276512   3.680   4.051  16.787 -0.2409  0.1205 -0.5352
18366TIP3    H176513   3.631   3.989  16.842 -1.5202  1.4937 -0.0735
18366TIP3    H276514   3.747   3.997  16.745 -0.1011 -1.2454  1.2915
18367TIP3   OH276515   2.103   1.603  15.545  0.7497  0.6651  0.2113
18367TIP3    H176516   2.182   1.632  15.592  0.3458  0.8810  0.7707
18367TIP3    H276517   2.033   1.609  15.610  0.4601 -0.5900  0.0445
18368TIP3   OH276518   6.687   2.267  14.850 -0.2251 -0.1819 -0.2970
18368TIP3    H176519   6.738   2.215  14.788  1.0704 -0.3957  0.8934
18368TIP3    H276520   6.601   2.225  14.852 -0.2899 -0.1851 -1.8841
18369TIP3   OH276521   4.587   3.867  16.744 -0.4591 -0.0794 -0.1981
18369TIP3    H176522   4.530   3.804  16.789 -0.0292 -0.4419 -0.1622
18369TIP3    H276523   4.557   3.865  16.653 -0.3010 -0.5050 -0.2446
18370TIP3   OH276524   1.473   4.045  12.434 -0.0788  0.0244  0.0862
18370TIP3    H176525   1.453   3.957  12.401  0.5757 -1.0793  2.4089
18370TIP3    H276526   1.565   4.058  12.414  0.1578 -0.3851  0.8674
18371TIP3   OH276527   1.717   2.163  13.350 -0.5134  0.1085  0.1978
18371TIP3    H176528   1.768   2.137  13.274 -0.2956  0.6550  0.1573
18371TIP3    H276529   1.779   2.162  13.423 -0.1492  1.8600 -0.0391
18372TIP3   OH276530   1.394   1.982   5.398 -0.3087  1.0301  0.3479
18372TIP3    H176531   1.448   2.003   5.322 -2.5049  0.2048 -1.5617
18372TIP3    H276532   1.305   2.003   5.371 -1.3160 -0.4385  2.2570
18373TIP3   OH276533   0.568   0.868  15.083  0.1293  0.3407  0.3944
18373TIP3    H176534   0.484   0.906  15.058  0.3371 -0.0568 -0.9839
18373TIP3    H276535   0.633   0.934  15.059  0.5218 -0.9225 -2.3329
18374TIP3   OH276536   4.262   4.654   0.599 -0.0004 -0.5837 -0.2173
18374TIP3    H176537   4.168   4.667   0.608  0.0971  1.1317 -1.1216
18374TIP3    H276538   4.293   4.734   0.557  1.9443 -0.8818  0.5184
18375TIP3   OH276539   3.536   5.545  15.259 -0.3604 -0.1621 -0.3412
18375TIP3    H176540   3.582   5.468  15.226  1.0050  1.5615 -2.8251
18375TIP3    H276541   3.530   5.531  15.354  1.1718 -2.5985 -0.5173
18376TIP3   OH276542   6.326   2.669  10.774  0.4504 -0.1843  0.1950
18376TIP3    H176543   6.315   2.574  10.785  1.7539 -0.2598  1.0054
18376TIP3    H276544   6.418   2.680  10.752 -0.2080  0.7096 -2.4806
18377TIP3   OH276545   0.857   5.529  13.404 -0.0638  0.2179 -0.3194
18377TIP3    H176546   0.886   5.621  13.404 -1.5446  0.7622  1.7884
18377TIP3    H276547   0.911   5.487  13.471 -0.6438  0.0314  0.0433
18378TIP3   OH276548   2.585   4.085   0.521  0.7582  0.7912  0.3630
18378TIP3    H176549   2.603   4.010   0.577  1.0596  0.9060  0.4192
18378TIP3    H276550   2.500   4.117   0.551  1.2121  1.2502  1.1970
18379TIP3   OH276551   5.938   6.343   5.959  0.0702 -0.3318 -0.0677
18379TIP3    H176552   5.857   6.374   5.999  0.3931  0.7466 -0.2327
18379TIP3    H276553   5.972   6.279   6.022  0.3335  0.9994  1.2147
18380TIP3   OH276554   5.453   2.043  12.066  0.4700  0.3207 -0.1990
18380TIP3    H176555   5.430   1.983  12.136  0.2245  1.6144  0.8579
18380TIP3    H276556   5.443   1.991  11.986  0.6742 -1.1486  0.6966
18381TIP3   OH276557   4.560   3.847   3.631  0.5563 -0.3059 -0.6104
18381TIP3    H176558   4.650   3.816   3.628  0.8445  0.4115  0.1445
18381TIP3    H276559   4.508   3.776   3.594  1.2974 -1.2634  0.1644
18382TIP3   OH276560   0.639   6.333  11.227 -0.5476  0.2823  0.2059
18382TIP3    H176561   0.673   6.416  11.193  0.4559 -0.2593 -0.1521
18382TIP3    H276562   0.553   6.355  11.264  0.0878  1.6489  0.9219
18383TIP3   OH276563   1.291   0.898   0.409  0.8333 -0.5457 -0.1255
18383TIP3    H176564   1.280   0.806   0.387  0.7112 -0.2049 -1.5972
18383TIP3    H276565   1.357   0.931   0.347  1.2276  0.2461  0.6857
18384TIP3   OH276566   4.725   3.828   3.342  0.1722 -0.3296 -0.6073
18384TIP3    H176567   4.777   3.749   3.356  0.0271  0.0253  2.8556
18384TIP3    H276568   4.725   3.872   3.427 -1.7016  2.2320 -1.7896
18385TIP3   OH276569   1.316   1.577  13.605  0.2493  0.1797  0.1914
18385TIP3    H176570   1.344   1.498  13.651  0.9915 -0.1724 -0.8353
18385TIP3    H276571   1.221   1.573  13.605  0.2791 -0.6852  0.2081
18386TIP3   OH276572   6.698   5.939  14.304  0.6179  0.0387 -0.1727
18386TIP3    H176573   6.694   5.934  14.400 -0.5362  0.5893 -0.1750
18386TIP3    H276574   6.694   5.847  14.275  1.7064 -0.1735  0.3138
18387TIP3   OH276575   5.970   6.411  16.449  0.3142  0.1568 -0.6603
18387TIP3    H176576   6.061   6.403  16.478  0.4203  2.1891 -0.2645
18387TIP3    H276577   5.934   6.480  16.504 -0.6722  1.2754 -2.6250
18388TIP3   OH276578   4.854   0.801  11.616 -0.3117  0.6786  0.3486
18388TIP3    H176579   4.911   0.834  11.685  1.0772 -1.7205  0.4384
18388TIP3    H276580   4.783   0.756  11.663  0.7837 -1.2003  0.2905
18389TIP3   OH276581   6.782   1.781   4.856 -0.1367 -0.4280  0.1132
18389TIP3    H176582   6.757   1.783   4.948 -1.3675 -0.4887 -0.2078
18389TIP3    H276583   6.876   1.799   4.857 -0.2225  0.0715  1.3403
18390TIP3   OH276584   0.917   3.773   3.606 -0.1129 -0.5246  0.7443
18390TIP3    H176585   0.968   3.815   3.537 -0.5626 -1.5285 -0.2289
18390TIP3    H276586   0.917   3.837   3.678  0.9954  0.2278  0.1108
18391TIP3   OH276587   3.507   2.371  13.281  0.4722 -0.4106 -0.0964
18391TIP3    H176588   3.527   2.300  13.220 -0.7496 -0.1639 -0.8168
18391TIP3    H276589   3.518   2.332  13.368  0.9920 -1.1295 -0.4793
18392TIP3   OH276590   6.681   6.725   4.239  0.4580 -0.4678 -0.6588
18392TIP3    H176591   6.605   6.667   4.247 -0.2120  0.4537 -0.2603
18392TIP3    H276592   6.751   6.678   4.285 -0.4131 -0.3930  0.8066
18393TIP3   OH276593   2.647   1.052   2.048 -0.4023 -0.3187  0.0040
18393TIP3    H176594   2.725   1.103   2.025 -0.8631  0.2140 -0.3861
18393TIP3    H276595   2.677   0.992   2.116 -0.1532  1.3839  1.4581
18394TIP3   OH276596   2.817   6.726   3.296 -0.1941 -0.3677  0.5097
18394TIP3    H176597   2.798   6.680   3.379  0.6349 -0.0558  0.8777
18394TIP3    H276598   2.795   6.662   3.229 -0.6168 -0.7272  0.9788
18395TIP3   OH276599   3.039   2.521  11.297  0.8739 -0.0029 -0.2746
18395TIP3    H176600   3.029   2.568  11.214 -0.7525  1.7769  0.8670
18395TIP3    H276601   2.979   2.447  11.290  0.5321  0.2987 -0.5650
18396TIP3   OH276602   3.958   6.626  15.303  0.2965 -0.3489 -0.1644
18396TIP3    H176603   3.997   6.708  15.335  1.0604 -0.7197 -0.1403
18396TIP3    H276604   3.991   6.617  15.214  1.0420 -1.1572  0.1859
18397TIP3   OH276605   5.120   0.966   2.630  0.5676  0.1334  0.6821
18397TIP3    H176606   5.126   0.919   2.713  1.3955 -1.6062 -0.3095
18397TIP3    H276607   5.146   0.902   2.564 -0.8431  1.2322 -1.0205
18398TIP3   OH276608   0.041   3.500   0.189 -0.3593 -0.0975 -0.3106
18398TIP3    H176609   0.047   3.552   0.269  2.5767 -0.3404 -0.2407
18398TIP3    H276610  -0.016   3.427   0.212  0.7909 -0.4253  1.7673
18399TIP3   OH276611   6.589   4.539   1.864 -0.1293  0.3434  0.0241
18399TIP3    H176612   6.494   4.528   1.873  0.1041 -0.1621  3.6371
18399TIP3    H276613   6.622   4.450   1.850 -0.0796  0.2006  0.9843
18400TIP3   OH276614   1.325   0.300   2.793 -0.4154  0.1068  0.0485
18400TIP3    H176615   1.319   0.283   2.887 -0.4658 -1.9545 -0.2811
18400TIP3    H276616   1.244   0.346   2.772 -0.2881  0.8239  1.0392
18401TIP3   OH276617   0.273   5.391  13.470  0.0834 -0.0701 -0.1611
18401TIP3    H176618   0.307   5.353  13.389 -1.8732 -0.4113 -0.8816
18401TIP3    H276619   0.181   5.410  13.451  0.0290  1.5166  1.4266
18402TIP3   OH276620   6.743   1.354  14.339 -0.3283  0.5934  0.1360
18402TIP3    H176621   6.771   1.443  14.320  1.7120 -0.0808 -0.3123
18402TIP3    H276622   6.817   1.314  14.384 -1.6473 -0.5523  1.4061
18403TIP3   OH276623   0.377   2.084   6.292  0.0484 -0.0591 -0.1391
18403TIP3    H176624   0.291   2.069   6.254  0.1605 -1.3422  0.0931
18403TIP3    H276625   0.402   2.000   6.331  1.6569  0.1021 -0.7352
18404TIP3   OH276626   0.666   2.320  12.231  0.0639  0.7696 -0.2574
18404TIP3    H176627   0.760   2.324  12.214  0.0855 -0.2643 -0.4117
18404TIP3    H276628   0.628   2.389  12.176  0.8840  2.3062  1.0269
18405TIP3   OH276629   3.469   5.485  11.678  0.4146 -0.1906  0.2449
18405TIP3    H176630   3.539   5.542  11.711  0.2026 -1.3687  2.9994
18405TIP3    H276631   3.512   5.430  11.613  1.7315  0.0582  0.8563
18406TIP3   OH276632   1.389   0.377   1.864  0.3969 -0.3285 -0.4778
18406TIP3    H176633   1.369   0.293   1.822  0.2523 -0.4372 -0.1942
18406TIP3    H276634   1.332   0.379   1.941  0.9228 -0.2923 -0.0856
18407TIP3   OH276635   5.742   1.856   3.140 -0.0302 -0.3444  0.0541
18407TIP3    H176636   5.748   1.901   3.056  1.7233  0.3827  0.5438
18407TIP3    H276637   5.794   1.776   3.129 -2.4779 -1.9761 -0.5554
18408TIP3   OH276638   1.220   3.313  12.325 -0.6695 -0.2722 -0.5339
18408TIP3    H176639   1.165   3.376  12.371 -0.4054 -0.3570 -0.0927
18408TIP3    H276640   1.161   3.243  12.300 -1.1761  0.6159 -1.9491
18409TIP3   OH276641   3.908   4.579   2.635 -0.2647 -0.4791  0.1062
18409TIP3    H176642   3.909   4.492   2.595 -0.9530 -0.0014 -0.9790
18409TIP3    H276643   4.000   4.599   2.649 -0.0117 -0.7460 -1.0660
18410TIP3   OH276644   2.379   5.073  13.328  0.3171  0.4891 -0.1704
18410TIP3    H176645   2.284   5.060  13.325  0.2962  0.2748  0.9545
18410TIP3    H276646   2.415   4.984  13.330  0.6680  0.5000 -2.4897
18411TIP3   OH276647   3.022   5.887   5.271  0.2328  0.5109  0.7248
18411TIP3    H176648   3.103   5.927   5.240  0.5218 -1.4770 -1.3718
18411TIP3    H276649   3.045   5.852   5.357  1.4126  0.5608  0.4561
18412TIP3   OH276650   3.557   3.345  17.084 -0.0210 -0.0919 -0.1933
18412TIP3    H176651   3.546   3.264  17.035  2.7649 -0.0481 -1.0199
18412TIP3    H276652   3.605   3.320  17.162 -3.0475  0.1186  1.9294
18413TIP3   OH276653   5.537   5.737   3.978 -0.0195 -0.1467  0.4680
18413TIP3    H176654   5.482   5.795   3.925  0.9660 -0.1182 -0.5905
18413TIP3    H276655   5.587   5.797   4.034  1.0834  0.0874 -0.7078
18414TIP3   OH276656   4.279   3.160   5.965  0.2061 -1.2231 -0.7004
18414TIP3    H176657   4.370   3.178   5.945 -0.2309  0.4799 -1.3072
18414TIP3    H276658   4.264   3.200   6.051 -0.2362 -0.5230 -1.0962
18415TIP3   OH276659   1.064   0.532  11.979 -0.1103 -0.3960 -0.3589
18415TIP3    H176660   1.105   0.538  12.065  2.1381 -1.4556 -1.2904
18415TIP3    H276661   1.016   0.449  11.981  2.2581 -1.8615 -0.9894
18416TIP3   OH276662   1.431   0.099  15.587 -0.2114 -0.5038 -0.1321
18416TIP3    H176663   1.359   0.161  15.579  0.6956  0.3315 -4.2478
18416TIP3    H276664   1.389   0.013  15.589 -1.3686  0.0524 -0.0455
18417TIP3   OH276665   1.151   3.706  13.501 -0.1053 -0.2121  0.5553
18417TIP3    H176666   1.109   3.625  13.473  0.5242 -0.3850  0.0871
18417TIP3    H276667   1.080   3.758  13.538 -0.8188 -0.3361 -0.5801
18418TIP3   OH276668   4.867   0.101  16.363  0.6791 -0.2311  0.2341
18418TIP3    H176669   4.911   0.176  16.401 -0.2720 -0.0762  1.0528
18418TIP3    H276670   4.938   0.040  16.341  1.2623 -0.4764  2.5681
18419TIP3   OH276671   4.822   4.599   2.838  0.5935  0.7742 -0.0956
18419TIP3    H176672   4.863   4.622   2.921 -0.5532  1.4549  0.3075
18419TIP3    H276673   4.849   4.669   2.778 -0.3325  1.4831  0.2936
18420TIP3   OH276674   1.218   6.541  12.187  0.4032 -0.2526 -0.1338
18420TIP3    H176675   1.258   6.459  12.157 -2.5693 -0.8847 -2.9479
18420TIP3    H276676   1.141   6.513  12.236  0.9029  0.9260  1.3981
18421TIP3   OH276677   3.681   1.898   3.637 -0.2555  0.2549 -0.1003
18421TIP3    H176678   3.754   1.886   3.698 -1.1877 -0.0358  0.9842
18421TIP3    H276679   3.704   1.844   3.562  0.5861  0.0658  0.2788
18422TIP3   OH276680   4.732   2.998   0.355 -0.7297 -0.1070  0.0170
18422TIP3    H176681   4.818   3.002   0.396 -0.7760 -0.7043  0.1886
18422TIP3    H276682   4.730   2.912   0.313 -1.7818 -0.7181  1.2493
18423TIP3   OH276683   3.266   5.342  17.051  0.3923 -0.2272 -0.1378
18423TIP3    H176684   3.321   5.387  17.115  1.4191 -0.8780 -0.5245
18423TIP3    H276685   3.329   5.299  16.993 -0.5096  0.2458 -1.5139
18424TIP3   OH276686   3.950   3.309   2.985 -0.5356  0.3804 -0.5553
18424TIP3    H176687   3.955   3.265   3.070 -0.8336 -0.8539 -1.1570
18424TIP3    H276688   3.881   3.375   2.997  0.4924  1.2791  0.6054
18425TIP3   OH276689   0.723   5.105  14.873  0.1111  0.0646 -0.2200
18425TIP3    H176690   0.816   5.083  14.870  0.1431  0.1820 -0.0858
18425TIP3    H276691   0.678   5.020  14.882  0.1513 -0.0783 -1.2366
18426TIP3   OH276692   6.000   2.168   5.164  0.4105 -0.2411  0.0127
18426TIP3    H176693   6.034   2.248   5.204 -0.9606 -0.5430  1.9009
18426TIP3    H276694   6.006   2.102   5.232 -1.5473 -0.9077 -0.3919
18427TIP3   OH276695   1.097   0.802   6.530  0.0342 -0.1476  0.4111
18427TIP3    H176696   1.118   0.884   6.484 -3.0559  0.4674 -0.1003
18427TIP3    H276697   1.163   0.740   6.499  1.0497  1.5433 -1.0066
18428TIP3   OH276698   0.207   6.479   2.014 -0.1598  0.0928 -0.3623
18428TIP3    H176699   0.136   6.515   1.962 -0.6243 -1.1500 -0.6226
18428TIP3    H276700   0.184   6.501   2.105 -0.1563  0.8949 -0.5556
18429TIP3   OH276701   1.157   1.845   3.686  0.7490  0.3152  0.3553
18429TIP3    H176702   1.249   1.818   3.685 -0.0666 -2.9241  0.8448
18429TIP3    H276703   1.151   1.915   3.621  3.5440  0.6157  0.3335
18430TIP3   OH276704   4.434   2.413   5.086 -0.1530  0.5705 -0.5508
18430TIP3    H176705   4.360   2.463   5.051  0.1160  1.1984 -0.2308
18430TIP3    H276706   4.485   2.477   5.135  0.7535  0.1966 -0.9884
18431TIP3   OH276707   1.150   0.239   6.121 -0.0031  0.8379  0.0806
18431TIP3    H176708   1.151   0.149   6.154  0.9395  0.1443 -1.6876
18431TIP3    H276709   1.151   0.294   6.199  0.5584 -0.6927  1.1954
18432TIP3   OH276710   4.305   3.525   3.982  0.5586 -0.1773 -0.0657
18432TIP3    H176711   4.292   3.438   4.020  0.8965 -0.3458 -0.3228
18432TIP3    H276712   4.228   3.538   3.926  0.0267  0.1017  0.7143
18433TIP3   OH276713   3.985   5.563   1.072  0.0222  0.3969 -0.5196
18433TIP3    H176714   4.060   5.560   1.012 -0.4183 -1.0452 -1.0515
18433TIP3    H276715   3.994   5.484   1.125 -0.9150  0.4121 -0.3258
18434TIP3   OH276716   4.540   6.801  14.143  0.2146 -0.2009 -0.1635
18434TIP3    H176717   4.562   6.757  14.225  1.0550  1.8726  0.8235
18434TIP3    H276718   4.448   6.825  14.152  0.7275  1.5502  1.0294
18435TIP3   OH276719   2.996   2.613  17.059 -0.5678  0.0326  0.2144
18435TIP3    H176720   3.079   2.580  17.025 -0.0112 -0.4641  1.9480
18435TIP3    H276721   3.014   2.705  17.080 -0.6299  0.0809  0.0572
18436TIP3   OH276722   5.956   6.548  12.978  0.5217 -0.1361  0.2889
18436TIP3    H176723   5.969   6.528  13.071  1.9523 -0.1076  0.1142
18436TIP3    H276724   6.003   6.479  12.932 -1.6871 -1.1913 -0.4763
18437TIP3   OH276725   3.533   0.669   3.615  0.4020  0.0047  0.5150
18437TIP3    H176726   3.499   0.593   3.661  2.4578 -1.5432 -0.3615
18437TIP3    H276727   3.502   0.744   3.665 -2.7330 -1.2941  0.7070
18438TIP3   OH276728   2.925   6.137   0.866 -0.0650 -0.1698 -0.5509
18438TIP3    H176729   2.850   6.167   0.916 -0.1522  1.2548 -1.4950
18438TIP3    H276730   2.887   6.095   0.788  0.1110 -0.7372 -0.3421
18439TIP3   OH276731   2.064   6.723  15.304  0.7874  0.1955  0.3445
18439TIP3    H176732   2.050   6.645  15.358 -4.0474  0.6462  0.2077
18439TIP3    H276733   2.051   6.693  15.214  1.5423  0.7208  0.0523
18440TIP3   OH276734   5.389   5.264   5.425 -0.4935  0.5823 -0.0324
18440TIP3    H176735   5.350   5.313   5.353  0.5837 -1.1472 -1.9254
18440TIP3    H276736   5.318   5.250   5.487 -0.7193  5.0217  1.0311
18441TIP3   OH276737   5.774   3.840  13.705 -0.0104 -0.1312 -0.2113
18441TIP3    H176738   5.789   3.819  13.797 -1.5173  0.2017  0.1296
18441TIP3    H276739   5.730   3.925  13.707 -1.9379 -1.0623 -1.1173
18442TIP3   OH276740   1.859   4.832   5.717 -0.1061 -0.3040 -0.6970
18442TIP3    H176741   1.865   4.742   5.748 -0.1483 -0.0692 -0.0030
18442TIP3    H276742   1.839   4.824   5.624  0.1448 -1.0142 -0.6948
18443TIP3   OH276743   4.262   5.884   2.934  0.5113 -0.6078  0.7575
18443TIP3    H176744   4.262   5.917   3.024  0.0009 -3.0682  1.7373
18443TIP3    H276745   4.203   5.943   2.887 -0.5814 -0.2774  2.4483
18444TIP3   OH276746   0.326   2.473   2.086 -0.4788  0.0516 -0.3857
18444TIP3    H176747   0.350   2.471   2.179  1.5792  0.0955 -0.8777
18444TIP3    H276748   0.230   2.479   2.087 -0.5064  0.2006  1.7243
18445TIP3   OH276749   3.159   5.887   2.296 -0.3189  0.6230 -0.5591
18445TIP3    H176750   3.161   5.940   2.217  1.9751  0.1700 -0.8798
18445TIP3    H276751   3.201   5.805   2.271  0.9184  0.6611  1.2233
18446TIP3   OH276752   0.924   4.742   1.111  0.1785 -0.7327 -0.5243
18446TIP3    H176753   0.992   4.808   1.102  0.9770 -1.6317 -1.4207
18446TIP3    H276754   0.860   4.763   1.043 -0.7605  0.4234  0.6548
18447TIP3   OH276755   5.341   6.039  13.625 -0.2248  0.0136  0.2756
18447TIP3    H176756   5.331   6.134  13.613  0.5453  0.0513 -0.1283
18447TIP3    H276757   5.258   6.003  13.596  0.0194  0.4567 -1.0615
18448TIP3   OH276758   0.237   5.717  13.445 -0.0915  0.3782  0.1964
18448TIP3    H176759   0.331   5.697  13.443  0.1223  1.3870 -0.8559
18448TIP3    H276760   0.232   5.807  13.477 -0.7114  0.3098  0.3040
18449TIP3   OH276761   0.036   6.255   0.619 -0.4213  0.2794 -0.4125
18449TIP3    H176762   0.117   6.280   0.664  0.3704 -0.7232 -1.2223
18449TIP3    H276763  -0.030   6.250   0.688  1.5152 -4.9378  1.5414
18450TIP3   OH276764   5.921   2.071  13.132 -0.1658  0.1673 -0.3860
18450TIP3    H176765   5.922   2.167  13.122  0.6612  0.2230  0.1477
18450TIP3    H276766   6.003   2.043  13.091  1.2023  0.0004  2.2457
18451TIP3   OH276767   2.675   0.513   4.937 -0.2513  0.1136 -0.0468
18451TIP3    H176768   2.761   0.546   4.962  0.1314 -1.6558  1.1948
18451TIP3    H276769   2.687   0.418   4.931 -2.9493 -0.8148  4.4162
18452TIP3   OH276770   5.385   1.630  12.977  0.3988  0.9485 -0.7244
18452TIP3    H176771   5.481   1.633  12.985  0.2391  1.0356  2.5072
18452TIP3    H276772   5.369   1.563  12.912  2.6543  0.4200 -0.8336
18453TIP3   OH276773   3.181   3.765  16.157  0.7294 -0.2265  0.6576
18453TIP3    H176774   3.138   3.831  16.102  1.5609 -0.6768 -0.5808
18453TIP3    H276775   3.166   3.794  16.247 -0.3771  0.7185  0.1848
18454TIP3   OH276776   4.811   5.948  14.104  0.2201 -0.5419 -0.0800
18454TIP3    H176777   4.773   5.931  14.018 -0.0414  2.5120 -0.6754
18454TIP3    H276778   4.905   5.953  14.088  0.1358  0.4635 -0.2936
18455TIP3   OH276779   4.577   0.805  12.483  0.1265  0.6026 -0.1178
18455TIP3    H176780   4.602   0.868  12.551  0.0599  0.0506  0.4305
18455TIP3    H276781   4.580   0.720  12.527  2.8534 -0.1321 -1.4814
18456TIP3   OH276782   3.911   0.960  16.232 -0.0692 -0.4161  0.2503
18456TIP3    H176783   3.856   0.905  16.177  1.3335 -1.3710 -0.2432
18456TIP3    H276784   3.915   1.044  16.186 -0.4679 -0.5843 -0.0913
18457TIP3   OH276785   5.146   1.309   0.741 -0.3114  0.5705 -0.5862
18457TIP3    H176786   5.083   1.323   0.671 -0.1974  2.1658 -0.4052
18457TIP3    H276787   5.093   1.285   0.817 -0.5818  0.5452 -0.7841
18458TIP3   OH276788   6.076   4.805  13.529  0.0325  0.9567  0.5582
18458TIP3    H176789   6.144   4.739  13.540 -0.3052  0.8330  1.9873
18458TIP3    H276790   6.073   4.851  13.613  1.0031  3.5303 -0.7024
18459TIP3   OH276791   4.732   4.379  15.577 -0.0512 -0.1950  0.7494
18459TIP3    H176792   4.795   4.447  15.555  0.3237 -0.9224 -0.5848
18459TIP3    H276793   4.768   4.300  15.537 -2.2872 -0.4288 -1.0281
18460TIP3   OH276794   3.436   6.792   2.650  0.4773  0.0321 -0.0939
18460TIP3    H176795   3.475   6.761   2.568 -1.4121  1.1876 -1.4974
18460TIP3    H276796   3.477   6.737   2.717  0.4084 -2.5978 -2.0162
18461TIP3   OH276797   6.584   2.207   1.795  0.7471  0.0772 -0.1141
18461TIP3    H176798   6.542   2.264   1.730  1.4383 -0.2091 -0.8421
18461TIP3    H276799   6.566   2.249   1.879 -0.4436  0.2871 -0.4533
18462TIP3   OH276800   3.919   3.795  11.065 -0.0248 -0.3368 -0.5070
18462TIP3    H176801   3.933   3.888  11.083  0.0602 -0.1071 -1.6895
18462TIP3    H276802   3.988   3.772  11.002 -1.5937 -0.5387 -2.2341
18463TIP3   OH276803   0.592   4.210  16.860  0.1572 -0.4564 -0.2783
18463TIP3    H176804   0.498   4.199  16.870  0.5297 -2.4111  2.1826
18463TIP3    H276805   0.625   4.217  16.950  2.1376  3.2284 -1.0640
18464TIP3   OH276806   6.138   2.910  14.131  0.1861  0.2442  0.2610
18464TIP3    H176807   6.048   2.882  14.149  0.8193 -0.9919  1.6655
18464TIP3    H276808   6.154   2.981  14.193  0.5348 -0.2982  0.8046
18465TIP3   OH276809   3.379   1.349   4.075  0.7586  0.1600  0.1315
18465TIP3    H176810   3.397   1.402   3.997  1.6064  1.7101  1.3279
18465TIP3    H276811   3.319   1.403   4.126  1.2434 -0.2499  1.1432
18466TIP3   OH276812   5.278   2.473  13.838 -0.0791  0.1289  0.5932
18466TIP3    H176813   5.280   2.455  13.932  1.7802 -0.6364  0.4596
18466TIP3    H276814   5.195   2.434  13.808  0.4241 -1.8361  1.5435
18467TIP3   OH276815   4.547   6.428   5.573 -0.4770 -0.7267 -0.0626
18467TIP3    H176816   4.581   6.351   5.527  0.3851 -0.6879  0.4908
18467TIP3    H276817   4.619   6.492   5.569  0.2079 -1.2042  2.5115
18468TIP3   OH276818   0.781   3.492  16.675  0.4177  0.2325  0.1612
18468TIP3    H176819   0.726   3.520  16.748 -1.7438 -0.9623 -0.9064
18468TIP3    H276820   0.786   3.568  16.618  1.8646  1.0759  1.3472
18469TIP3   OH276821   3.910   3.983  13.837  0.3322 -0.3286 -0.4485
18469TIP3    H176822   3.905   4.049  13.768  1.5689 -1.1069 -1.3449
18469TIP3    H276823   3.857   3.910  13.805 -0.3552 -0.0996  0.1536
18470TIP3   OH276824   3.427   2.745   5.312  0.0796  0.0097  0.0720
18470TIP3    H176825   3.378   2.820   5.279 -0.2409  1.1839  2.9188
18470TIP3    H276826   3.467   2.776   5.393  1.0161 -2.5403  0.6842
18471TIP3   OH276827   0.301   2.327  12.355  0.1812  0.1636 -0.4759
18471TIP3    H176828   0.262   2.261  12.412  1.0568 -0.3545 -0.4638
18471TIP3    H276829   0.306   2.285  12.269  0.4177  0.3345 -0.5472
18472TIP3   OH276830   0.997   3.289   2.284  0.7097  0.1804 -0.1041
18472TIP3    H176831   0.985   3.383   2.302  1.4437  0.0913  0.9158
18472TIP3    H276832   0.926   3.247   2.333  2.7944 -0.0737  2.9245
18473TIP3   OH276833   5.684   6.374   2.899 -0.4160 -0.2887 -0.4929
18473TIP3    H176834   5.677   6.469   2.892  0.9654 -0.2015 -1.0117
18473TIP3    H276835   5.601   6.341   2.864 -1.0882  0.7246  0.0964
18474TIP3   OH276836   6.098   4.848  14.370 -0.2098  0.5196 -0.3305
18474TIP3    H176837   6.149   4.841  14.451  0.6053  3.0850 -0.5275
18474TIP3    H276838   6.108   4.763  14.328 -1.0925 -1.0856  2.4630
18475TIP3   OH276839   4.209   3.117   4.525 -0.1661 -0.2397 -0.6212
18475TIP3    H176840   4.238   3.152   4.441  0.3712  2.0962  0.4802
18475TIP3    H276841   4.113   3.120   4.520 -0.1315  0.8611 -0.7829
18476TIP3   OH276842   5.448   4.062   5.642  0.0690  0.0694 -1.3746
18476TIP3    H176843   5.357   4.086   5.627 -0.1161  0.1593 -0.1732
18476TIP3    H276844   5.470   4.100   5.727  0.8560 -0.9948 -1.0749
18477TIP3   OH276845   3.990   5.915  13.050  0.0377 -0.1838  0.1930
18477TIP3    H176846   4.002   5.901  12.956  0.6586 -0.1967  0.2724
18477TIP3    H276847   4.078   5.927  13.084 -0.2120  0.1646  0.7234
18478TIP3   OH276848   6.661   4.860  12.832 -0.5763 -0.0998  0.2370
18478TIP3    H176849   6.588   4.829  12.778 -0.1575 -1.0614  0.1941
18478TIP3    H276850   6.714   4.914  12.772  0.3005 -1.7794 -0.5831
18479TIP3   OH276851   0.534   6.226   0.682  0.1634 -0.1144  0.5203
18479TIP3    H176852   0.593   6.153   0.663 -0.2345 -0.2157 -0.3979
18479TIP3    H276853   0.491   6.202   0.764 -2.8470 -2.8344 -1.6159
18480TIP3   OH276854   4.715   3.704   1.261 -0.1421  0.0574 -0.5210
18480TIP3    H176855   4.674   3.682   1.177  0.0795  1.9444 -1.1606
18480TIP3    H276856   4.802   3.664   1.256 -0.6896 -1.1985 -0.4973
18481TIP3   OH276857   6.241   1.766   4.834 -0.1422 -0.2114 -0.2746
18481TIP3    H176858   6.174   1.834   4.826 -2.8193 -2.6175 -0.1826
18481TIP3    H276859   6.278   1.758   4.746 -0.4824  0.7097 -0.5070
18482TIP3   OH276860   0.902   1.862  11.212  0.3377  0.1475 -0.1639
18482TIP3    H176861   0.866   1.859  11.301  0.1917  1.5674 -0.1536
18482TIP3    H276862   0.837   1.817  11.159 -1.1867  2.0322 -0.0259
18483TIP3   OH276863   0.527   6.151   2.116 -0.2013 -0.1219  0.4708
18483TIP3    H176864   0.479   6.218   2.068  0.4138 -0.3091 -0.4179
18483TIP3    H276865   0.460   6.091   2.147 -0.8326  1.1672  1.7493
18484TIP3   OH276866   0.946   3.432  12.413  0.5977  0.3683 -0.2030
18484TIP3    H176867   0.851   3.438  12.424  0.8023 -1.2230  4.5071
18484TIP3    H276868   0.974   3.522  12.398 -1.5244  1.1323  0.1126
18485TIP3   OH276869   3.751   2.548   1.797  1.0808  0.5771 -0.1392
18485TIP3    H176870   3.823   2.600   1.832  0.3557  0.8943  0.9353
18485TIP3    H276871   3.686   2.612   1.768  0.6715  0.2920  0.1287
18486TIP3   OH276872   5.316   3.200  15.438 -0.4176  0.2749  0.2291
18486TIP3    H176873   5.282   3.203  15.527  0.4649  0.6839  0.5594
18486TIP3    H276874   5.411   3.198  15.448 -0.3190 -1.0047 -0.6691
18487TIP3   OH276875   3.782   0.700  16.109  0.5778 -0.2307  0.3646
18487TIP3    H176876   3.824   0.614  16.108 -0.3971 -0.7230 -0.0479
18487TIP3    H276877   3.748   0.709  16.198  1.4003  0.1022  0.6541
18488TIP3   OH276878   5.700   3.939   3.347  0.5046 -0.4335 -0.6561
18488TIP3    H176879   5.794   3.949   3.358  0.7929 -1.9672 -1.3907
18488TIP3    H276880   5.688   3.847   3.323 -1.0974 -0.0414 -1.5211
18489TIP3   OH276881   6.613   5.431  13.829  0.2365 -0.0778  0.4992
18489TIP3    H176882   6.562   5.454  13.907  0.4667 -0.3096  0.7183
18489TIP3    H276883   6.594   5.338  13.815 -1.0082  0.3078 -0.6197
18490TIP3   OH276884   0.504   2.046   0.890 -0.5398 -0.5624 -0.0824
18490TIP3    H176885   0.481   2.138   0.901 -0.3879 -0.3608 -1.3227
18490TIP3    H276886   0.445   1.999   0.949 -2.0993  0.1608 -1.0302
18491TIP3   OH276887   5.882   2.564  13.841  0.4646 -0.1788  0.3205
18491TIP3    H176888   5.947   2.632  13.826  1.1882 -0.8716  0.2465
18491TIP3    H276889   5.874   2.519  13.757  1.1534 -1.1659  0.7576
18492TIP3   OH276890   4.931   2.919   5.011 -0.3785 -0.7553 -0.1460
18492TIP3    H176891   4.858   2.864   4.984 -1.3439  0.2577  0.3315
18492TIP3    H276892   4.906   2.952   5.097 -0.6422  1.7904 -1.1229
18493TIP3   OH276893   0.674   6.450  12.647  0.3913  0.5045  0.6480
18493TIP3    H176894   0.716   6.421  12.565  0.8607  0.5317  0.8735
18493TIP3    H276895   0.743   6.442  12.713 -0.5092 -1.3981  1.4483
18494TIP3   OH276896   5.406   3.061  16.683  0.2093 -0.3201  0.1231
18494TIP3    H176897   5.335   3.098  16.630  0.7793  0.3266 -0.2014
18494TIP3    H276898   5.469   3.029  16.619  0.5643 -0.1980  0.4110
18495TIP3   OH276899   6.376   3.079   1.249 -0.1027  0.0497  0.1161
18495TIP3    H176900   6.331   3.013   1.302  2.2879 -2.4045 -0.6539
18495TIP3    H276901   6.379   3.041   1.161  1.3319  1.1732 -0.3659
18496TIP3   OH276902   3.846   6.211  12.275  0.1329  0.5357  0.2597
18496TIP3    H176903   3.813   6.289  12.319  0.9145  0.5079  0.9149
18496TIP3    H276904   3.905   6.244  12.207  1.0606  0.5116  1.0331
18497TIP3   OH276905   2.523   0.842   3.285 -0.6360 -0.1613 -0.5883
18497TIP3    H176906   2.557   0.806   3.366 -0.3712 -0.2692 -0.7466
18497TIP3    H276907   2.494   0.766   3.235 -1.9724 -0.0205 -0.0785
18498TIP3   OH276908   2.894   4.700   4.253  0.7162 -0.1946  0.0873
18498TIP3    H176909   2.963   4.735   4.196  0.2260 -1.5030 -1.3660
18498TIP3    H276910   2.815   4.745   4.224  0.5863 -0.3370  0.2243
18499TIP3   OH276911   5.820   1.516   4.984  0.0537  0.2000 -0.5747
18499TIP3    H176912   5.851   1.550   5.067  1.0531 -1.1751 -0.3410
18499TIP3    H276913   5.882   1.549   4.919 -0.6258  1.1306 -0.7665
18500TIP3   OH276914   4.388   5.025  16.673  0.4680 -0.0792 -0.3823
18500TIP3    H176915   4.375   5.104  16.725  1.7641  0.4763 -0.8374
18500TIP3    H276916   4.327   4.961  16.708  0.7773  0.5191  1.3027
18501TIP3   OH276917   2.513   4.762  10.957 -0.4162 -0.2141 -0.4762
18501TIP3    H176918   2.506   4.715  10.874 -1.1607  0.7187 -0.9458
18501TIP3    H276919   2.590   4.818  10.947  0.6047 -1.4384  0.1650
18502TIP3   OH276920   5.677   6.231  16.089 -0.0244  0.1790 -0.1336
18502TIP3    H176921   5.591   6.253  16.051 -0.5574 -0.7979  0.4582
18502TIP3    H276922   5.678   6.275  16.174 -0.5626 -0.9772  0.4937
18503TIP3   OH276923   3.066   2.508   1.778 -0.0377  0.2775  0.0751
18503TIP3    H176924   3.112   2.447   1.835 -0.1453 -0.1594 -0.3011
18503TIP3    H276925   3.135   2.550   1.726 -0.1141 -1.2476 -1.3501
18504TIP3   OH276926   3.297   1.172   5.176  0.2159 -0.1847 -0.0581
18504TIP3    H176927   3.203   1.192   5.180  0.4728  1.1524 -0.3859
18504TIP3    H276928   3.306   1.091   5.226 -0.7687  0.9314  2.0674
18505TIP3   OH276929   2.002   2.781  15.326 -0.3372  0.1666 -0.3266
18505TIP3    H176930   2.055   2.787  15.246  0.9823  0.6444  0.5604
18505TIP3    H276931   1.939   2.852  15.318  0.4070  0.8127 -0.5105
18506TIP3   OH276932   1.048   6.664   1.668  0.4717  0.1901 -0.0493
18506TIP3    H176933   1.006   6.747   1.647 -0.9206 -0.0493  1.5259
18506TIP3    H276934   1.089   6.679   1.754  0.0672 -0.7820  0.3299
18507TIP3   OH276935   4.186   4.232  11.525  0.2342  0.1192 -0.0483
18507TIP3    H176936   4.094   4.254  11.511  0.1095 -1.1772 -1.4220
18507TIP3    H276937   4.190   4.207  11.618 -0.7585  0.3360  0.0697
18508TIP3   OH276938   2.701   6.310   0.675 -0.1566  0.1480  0.1432
18508TIP3    H176939   2.766   6.240   0.677  1.8399  1.7981 -1.6427
18508TIP3    H276940   2.674   6.315   0.584  0.8873  2.5865 -0.1042
18509TIP3   OH276941   6.611   2.734   2.739  0.3242 -0.0922  0.3639
18509TIP3    H176942   6.686   2.687   2.705 -0.9982 -0.7506 -1.8233
18509TIP3    H276943   6.615   2.820   2.697 -0.4683 -0.3486 -0.2539
18510TIP3   OH276944   6.816   2.892  10.952 -0.6392 -0.7097  0.2642
18510TIP3    H176945   6.907   2.862  10.943  0.2557  2.1017 -1.2072
18510TIP3    H276946   6.767   2.836  10.891  0.4794 -0.8946 -0.5073
18511TIP3   OH276947   2.351   0.138   2.280  0.1502  0.3860  0.4340
18511TIP3    H176948   2.374   0.189   2.202  0.0995 -0.5856 -0.2260
18511TIP3    H276949   2.435   0.108   2.314  0.0348 -1.7268 -1.0004
18512TIP3   OH276950   2.339   4.708   0.858 -0.1091  0.1395 -0.0017
18512TIP3    H176951   2.409   4.672   0.914  0.3885  2.9177  1.2996
18512TIP3    H276952   2.354   4.667   0.772  2.2530 -0.4356  0.6160
18513TIP3   OH276953   4.152   2.456   3.892 -0.2738  0.1186 -1.1104
18513TIP3    H176954   4.176   2.447   3.800  0.5816 -0.4633 -0.8498
18513TIP3    H276955   4.057   2.456   3.892 -0.2845 -0.1817 -1.9715
18514TIP3   OH276956   2.862   4.571   1.271  0.1630  0.1760  0.1681
18514TIP3    H176957   2.873   4.662   1.244 -0.2898 -0.2664 -1.5877
18514TIP3    H276958   2.775   4.547   1.240  1.1681 -1.5432 -1.4906
18515TIP3   OH276959   5.162   1.604   1.172  0.0031 -0.1804  0.3072
18515TIP3    H176960   5.115   1.685   1.191  0.3190 -0.2348  1.3637
18515TIP3    H276961   5.095   1.536   1.173  0.0014 -0.1661  1.1463
18516TIP3   OH276962   5.947   0.427   0.930 -0.3998 -0.2120  1.0533
18516TIP3    H176963   5.866   0.385   0.958 -0.9639  0.9752  1.3102
18516TIP3    H276964   5.921   0.482   0.856  0.2595 -0.1775  0.8455
18517TIP3   OH276965   0.870   3.587  13.539  0.1956  0.4490 -0.4849
18517TIP3    H176966   0.876   3.682  13.548 -1.7300  0.5011  0.8428
18517TIP3    H276967   0.804   3.574  13.470 -1.2538  0.1490  0.8905
18518TIP3   OH276968   3.406   2.921   0.429  0.0409  0.0064 -0.0963
18518TIP3    H176969   3.437   2.902   0.340  0.5952 -0.4742  0.1936
18518TIP3    H276970   3.475   2.974   0.467  0.0616 -0.2516  0.2282
18519TIP3   OH276971   2.463   4.039   4.876  0.2567  0.4725  0.1075
18519TIP3    H176972   2.529   4.102   4.906 -0.3582  1.5154 -0.6981
18519TIP3    H276973   2.426   4.003   4.957  1.4612  0.2140  0.5706
18520TIP3   OH276974   1.176   2.429   3.979  0.0016 -0.2443  0.0836
18520TIP3    H176975   1.103   2.402   4.035  1.0589 -0.1248  1.5822
18520TIP3    H276976   1.182   2.524   3.990 -0.5073 -0.0415 -1.1887
18521TIP3   OH276977   0.362   6.237  11.299 -0.6382  0.2519  0.3987
18521TIP3    H176978   0.339   6.320  11.341 -0.2470 -0.0534  1.2417
18521TIP3    H276979   0.406   6.187  11.368  0.5007 -0.0528 -0.5314
18522TIP3   OH276980   5.621   1.232  14.025  0.8094  0.1364 -0.4397
18522TIP3    H176981   5.659   1.147  14.001  1.6406 -0.5325  2.7408
18522TIP3    H276982   5.527   1.218  14.018  0.9624 -0.5345 -1.4391
18523TIP3   OH276983   4.610   0.641   5.251 -0.4186 -0.3451 -0.0226
18523TIP3    H176984   4.693   0.602   5.279  0.1484  0.4601 -0.4939
18523TIP3    H276985   4.555   0.567   5.227 -1.4540 -1.2596  4.2759
18524TIP3   OH276986   4.427   5.726   5.747 -0.4970  0.2529 -0.0081
18524TIP3    H176987   4.349   5.693   5.791 -0.5529  0.9667  0.4464
18524TIP3    H276988   4.472   5.777   5.814  0.6994 -0.6622 -0.0702
18525TIP3   OH276989   2.401   2.652  15.850  0.4627 -0.2531  0.6250
18525TIP3    H176990   2.324   2.610  15.812  1.4749 -0.1233 -1.7768
18525TIP3    H276991   2.473   2.590  15.833  1.0365 -0.0275  2.1184
18526TIP3   OH276992   2.181   5.307  12.979 -0.1174 -0.1996 -0.3959
18526TIP3    H176993   2.108   5.260  13.020 -1.4021 -0.3457 -2.6918
18526TIP3    H276994   2.143   5.390  12.952  1.1027  0.5225  0.0405
18527TIP3   OH276995   0.707   3.435   4.897  0.2422  0.0785  0.2530
18527TIP3    H176996   0.716   3.497   4.970  0.8491 -0.6798  0.8471
18527TIP3    H276997   0.613   3.422   4.888  0.1481  0.3723  0.7384
18528TIP3   OH276998   5.511   5.446   3.475  0.0989 -0.4201 -0.2477
18528TIP3    H176999   5.444   5.510   3.499 -0.7634 -1.5102  0.3177
18528TIP3    H277000   5.518   5.389   3.551  1.4106 -0.5596 -0.4481
18529TIP3   OH277001   3.115   1.109   4.766  0.2745 -0.2547  0.1334
18529TIP3    H177002   3.174   1.184   4.779  1.4879 -1.4337  1.8633
18529TIP3    H277003   3.043   1.124   4.827 -0.3391  0.2881 -0.6996
18530TIP3   OH277004   0.463   4.224  11.434  0.0817 -0.0152  0.0458
18530TIP3    H177005   0.393   4.259  11.380 -0.8376 -0.0595  1.1575
18530TIP3    H277006   0.437   4.134  11.453  0.9981 -0.3945 -0.4394
18531TIP3   OH277007   0.876   1.559  15.913  0.2636 -0.1364 -0.3530
18531TIP3    H177008   0.925   1.604  15.844  1.5067 -0.5487  0.2346
18531TIP3    H277009   0.943   1.511  15.963 -0.6654 -0.2284  0.8478
18532TIP3   OH277010   6.390   6.735  13.883 -0.7494 -0.0383 -0.0748
18532TIP3    H177011   6.389   6.749  13.977 -1.0536  0.0415 -0.0884
18532TIP3    H277012   6.465   6.784  13.852 -0.4472 -0.3430  0.1672
18533TIP3   OH277013   5.534   4.255   3.609 -0.1001 -0.3623  0.3040
18533TIP3    H177014   5.471   4.204   3.559 -0.4995 -0.3320  0.7699
18533TIP3    H277015   5.575   4.313   3.545  0.5912 -1.4820 -0.2856
18534TIP3   OH277016   2.850   5.291   3.688 -0.0596  0.0198  0.1727
18534TIP3    H177017   2.798   5.255   3.616 -0.5937  1.7710 -0.3597
18534TIP3    H277018   2.787   5.340   3.741  0.9318  1.8840 -0.2896
18535TIP3   OH277019   2.889   3.806  13.305 -0.1420 -0.1641 -0.4217
18535TIP3    H177020   2.903   3.717  13.337 -0.4853 -0.4714 -1.0912
18535TIP3    H277021   2.829   3.845  13.368  0.3778 -0.2428  0.1350
18536TIP3   OH277022   2.921   0.623   2.946  0.6640  0.3764 -0.2266
18536TIP3    H177023   2.986   0.553   2.934  1.5020  0.9691  0.7190
18536TIP3    H277024   2.841   0.588   2.907  1.8204  0.0843 -2.5188
18537TIP3   OH277025   0.466   0.464  12.083 -0.0004 -0.0314 -0.4839
18537TIP3    H177026   0.427   0.522  12.017  0.3660  2.1642  1.1365
18537TIP3    H277027   0.391   0.430  12.132 -0.1927 -0.7164 -1.2236
18538TIP3   OH277028   3.802   2.661   3.618 -0.0681 -0.1558  0.2621
18538TIP3    H177029   3.750   2.724   3.568 -0.0753  0.5360  1.1061
18538TIP3    H277030   3.780   2.576   3.580 -1.0986  0.2182 -0.0169
18539TIP3   OH277031   2.439   1.289  12.874  0.0520 -0.6437 -0.6571
18539TIP3    H177032   2.517   1.250  12.835  0.8466  0.3879 -0.1587
18539TIP3    H277033   2.439   1.257  12.965  0.7471  0.5086 -0.2243
18540TIP3   OH277034   4.054   1.139   3.827  0.2905 -0.4556  0.1563
18540TIP3    H177035   4.069   1.044   3.823  1.6266 -0.2212 -1.1758
18540TIP3    H277036   3.978   1.148   3.885 -0.3990 -2.4049 -0.3312
18541TIP3   OH277037   3.211   1.787  13.058 -0.1558  0.6165  0.8759
18541TIP3    H177038   3.209   1.878  13.088  2.2531  1.7784 -2.0291
18541TIP3    H277039   3.304   1.764  13.056 -0.5180 -0.9721 -0.9567
18542TIP3   OH277040   6.572   5.934   3.499  0.0709 -0.0987 -0.0477
18542TIP3    H177041   6.656   5.972   3.527  1.4626 -1.9127 -1.4955
18542TIP3    H277042   6.513   5.949   3.573  2.1137 -0.1293  1.6913
18543TIP3   OH277043   2.117   4.600  13.606 -0.0364  0.1644  0.1151
18543TIP3    H177044   2.114   4.695  13.613  0.5884  0.2621 -0.8013
18543TIP3    H277045   2.048   4.578  13.544  1.0371  0.1952 -1.1197
18544TIP3   OH277046   2.502   2.852  16.200 -0.1147  0.4873  0.3579
18544TIP3    H177047   2.460   2.930  16.235 -0.4073  0.3535  0.3095
18544TIP3    H277048   2.490   2.786  16.268 -1.7949 -0.1376 -0.4843
18545TIP3   OH277049   0.635   3.893   3.870 -0.1123 -0.1190 -0.1052
18545TIP3    H177050   0.562   3.926   3.921 -0.5876  2.9649 -2.5018
18545TIP3    H277051   0.709   3.894   3.930 -1.3119  0.0111  1.4274
18546TIP3   OH277052   5.607   1.535   4.803  0.0185  0.2795 -0.1042
18546TIP3    H177053   5.682   1.537   4.862  1.0363 -0.0307 -1.3527
18546TIP3    H277054   5.589   1.626   4.783  0.6761  0.3139 -0.5484
18547TIP3   OH277055   5.765   0.528  11.372 -0.3073 -0.3178  0.5961
18547TIP3    H177056   5.752   0.623  11.364 -0.2194 -0.2019  1.7280
18547TIP3    H277057   5.678   0.494  11.390 -0.3535 -0.4707  0.0964
18548TIP3   OH277058   2.867   3.243  16.620  0.1972  0.3323  0.3624
18548TIP3    H177059   2.845   3.285  16.704  0.7454 -1.1276  1.2679
18548TIP3    H277060   2.791   3.188  16.601 -0.0847  0.9356 -0.3166
18549TIP3   OH277061   4.233   5.329   3.991 -0.0703  0.2759  0.2112
18549TIP3    H177062   4.152   5.281   3.973 -0.9048  1.0773  1.6282
18549TIP3    H277063   4.297   5.291   3.931 -1.3427 -0.7721 -0.5513
18550TIP3   OH277064   3.314   3.799  14.657  0.3396  0.4274  0.0578
18550TIP3    H177065   3.233   3.757  14.628  0.2163 -1.2991  2.5763
18550TIP3    H277066   3.291   3.892  14.666 -0.3003  0.5999 -2.6030
18551TIP3   OH277067   0.546   2.258  10.368  0.2383  0.0153 -0.2955
18551TIP3    H177068   0.482   2.267  10.439  1.3510 -0.8471  0.8706
18551TIP3    H277069   0.581   2.347  10.356 -0.5512  0.3251 -0.3511
18552TIP3   OH277070   1.420   3.249   0.333 -0.1657  1.0518  0.1420
18552TIP3    H177071   1.435   3.155   0.334 -0.0452  1.0684 -0.1444
18552TIP3    H277072   1.386   3.269   0.420 -0.7134  0.6564  0.0257
18553TIP3   OH277073   1.544   0.548  13.649  0.0053 -0.0338 -0.0724
18553TIP3    H177074   1.589   0.465  13.665  1.1591  0.1790 -1.9334
18553TIP3    H277075   1.491   0.532  13.571 -0.7432  0.6215  0.2930
18554TIP3   OH277076   3.009   5.115  13.525 -0.0545 -0.2205 -0.1330
18554TIP3    H177077   3.057   5.120  13.607  1.2341  0.4516 -0.9061
18554TIP3    H277078   2.935   5.057  13.544  1.3822 -1.8017  0.9425
18555TIP3   OH277079   6.010   0.330  15.889  0.0354  0.6387 -0.0339
18555TIP3    H177080   6.082   0.364  15.941  0.9159 -0.7062 -0.3109
18555TIP3    H277081   5.992   0.244  15.926 -0.2215  0.2188 -1.0868
18556TIP3   OH277082   4.108   5.018  15.114  0.0965  0.2229  0.4410
18556TIP3    H177083   4.110   4.942  15.056  1.3074  0.9591 -0.5281
18556TIP3    H277084   4.059   5.085  15.065  2.5973  1.4281 -0.5618
18557TIP3   OH277085   1.373   3.942  14.491 -0.1079 -0.1259 -0.5343
18557TIP3    H177086   1.436   3.949  14.564 -1.9081  1.3608  0.9932
18557TIP3    H277087   1.425   3.909  14.418  2.1958 -0.0155  0.9359
18558TIP3   OH277088   4.128   3.181   5.202 -0.6684  0.2246 -0.4715
18558TIP3    H177089   4.088   3.130   5.131 -0.2287 -0.1522 -0.4556
18558TIP3    H277090   4.196   3.233   5.159  0.4818 -0.9590 -0.1717
18559TIP3   OH277091   6.550   5.441  11.119 -0.0004  0.1988 -0.0872
18559TIP3    H177092   6.462   5.409  11.100  0.7761 -0.8865 -2.1393
18559TIP3    H277093   6.586   5.464  11.034  2.1468 -0.5703  0.5537
18560TIP3   OH277094   5.871   1.407  13.333 -0.2090 -0.1319 -0.1368
18560TIP3    H177095   5.825   1.331  13.298  1.5209 -1.0976 -0.4407
18560TIP3    H277096   5.824   1.430  13.413 -2.1264 -0.0650 -1.2234
18561TIP3   OH277097   2.263   5.849  14.784 -0.4995  0.2793 -0.8517
18561TIP3    H177098   2.246   5.756  14.770  1.1152 -0.4266  1.2959
18561TIP3    H277099   2.326   5.872  14.716  0.0983 -0.5728 -0.6082
18562TIP3   OH277100   4.871   4.436   2.436 -0.6423 -0.0588  0.0476
18562TIP3    H177101   4.816   4.501   2.480  0.8440  0.8784  0.6028
18562TIP3    H277102   4.940   4.488   2.394  2.2352 -1.3160  2.8102
18563TIP3   OH277103   5.756   3.608  16.687 -0.0767 -0.5344  0.3515
18563TIP3    H177104   5.702   3.528  16.688 -1.0866  0.1016 -0.4409
18563TIP3    H277105   5.703   3.672  16.733  0.1924 -0.0044 -0.0693
18564TIP3   OH277106   5.773   0.116   5.141  0.3483 -0.3118  0.6496
18564TIP3    H177107   5.793   0.035   5.094  1.0417 -0.3554  0.9968
18564TIP3    H277108   5.713   0.164   5.083  0.1937 -0.9254  0.2991
18565TIP3   OH277109   3.237   5.484  16.780 -0.3995 -0.4510  0.1664
18565TIP3    H177110   3.263   5.478  16.872 -0.6312 -1.1542  0.1922
18565TIP3    H277111   3.197   5.570  16.772  0.9698  0.2314  0.3621
18566TIP3   OH277112   3.618   0.868   2.993 -0.1770 -0.7716 -0.0167
18566TIP3    H177113   3.605   0.947   3.044  0.2373 -0.8613  0.2358
18566TIP3    H277114   3.710   0.845   3.008  0.2156 -0.2954 -1.5043
18567TIP3   OH277115   6.261   4.667   2.870  0.3467 -0.5453  0.2515
18567TIP3    H177116   6.223   4.623   2.946  2.5554 -0.7092  1.3250
18567TIP3    H277117   6.286   4.754   2.903 -0.2119  0.0177 -0.7595
18568TIP3   OH277118   3.261   0.580   3.437 -0.5368 -0.4296 -0.0781
18568TIP3    H177119   3.208   0.545   3.365  0.0737  0.9496 -1.2462
18568TIP3    H277120   3.319   0.508   3.461 -0.8452 -0.9629 -0.8779
18569TIP3   OH277121   6.791   2.169  15.505  0.2387  0.1963  0.3025
18569TIP3    H177122   6.709   2.120  15.498 -0.2486  1.0342 -0.0568
18569TIP3    H277123   6.782   2.220  15.585  0.7511 -0.2899  0.6833
18570TIP3   OH277124   4.077   0.515  13.453  0.5196 -0.6787 -0.3949
18570TIP3    H177125   4.172   0.510  13.453  0.6106  0.3748 -1.6932
18570TIP3    H277126   4.050   0.455  13.383  0.1954 -1.3818  0.3288
18571TIP3   OH277127   3.858   6.123   1.097 -0.0383  0.1994  0.1124
18571TIP3    H177128   3.854   6.041   1.048  0.5662 -0.1275  0.5997
18571TIP3    H277129   3.913   6.104   1.172 -0.3763  0.8942  0.5498
18572TIP3   OH277130   0.976   3.585  14.215 -0.4559  0.4170  0.1624
18572TIP3    H177131   0.977   3.576  14.310 -0.7172 -1.2511  0.0407
18572TIP3    H277132   0.883   3.583  14.192 -0.4103  1.2472 -0.0941
18573TIP3   OH277133   2.274   5.357   3.446 -0.1725 -0.0704  0.8445
18573TIP3    H177134   2.259   5.275   3.399  0.1531 -0.5599  1.5751
18573TIP3    H277135   2.225   5.422   3.397  1.9927 -0.0922 -1.5604
18574TIP3   OH277136   0.481   5.686  13.154  0.6581 -0.1256 -0.1885
18574TIP3    H177137   0.469   5.698  13.248 -0.7593 -1.2407 -0.1975
18574TIP3    H277138   0.547   5.617  13.146  0.5250 -0.2743 -0.0045
18575TIP3   OH277139   2.764   4.070  10.318  0.2018  0.3045 -0.6608
18575TIP3    H177140   2.794   4.131  10.250  0.1522  0.7294 -0.3028
18575TIP3    H277141   2.835   4.068  10.382 -0.1213  0.5790 -0.2903
18576TIP3   OH277142   6.791   5.052  14.446 -0.4928 -0.5416  0.5037
18576TIP3    H177143   6.701   5.080  14.430 -0.2011  0.3417  0.3438
18576TIP3    H277144   6.799   5.050  14.541  0.5565  3.7567  0.6894
18577TIP3   OH277145   1.269   1.237   2.018  0.2220 -0.3581  0.3452
18577TIP3    H177146   1.241   1.154   2.058 -0.2323  0.2800  1.3959
18577TIP3    H277147   1.187   1.278   1.990  0.4756 -0.4147 -0.5064
18578TIP3   OH277148   0.222   5.391  11.150  0.3906  0.0922  0.1837
18578TIP3    H177149   0.135   5.413  11.184  0.3285  0.8065 -0.3894
18578TIP3    H277150   0.239   5.459  11.084  2.0927  0.9817  1.4495
18579TIP3   OH277151   2.716   6.082   5.248 -0.5609  0.5188 -0.7054
18579TIP3    H177152   2.774   6.011   5.275 -0.4885  1.1159  0.7829
18579TIP3    H277153   2.629   6.055   5.278 -0.3406  1.5936  1.0276
18580TIP3   OH277154   4.271   0.922  12.500 -0.2656  0.5002  0.1006
18580TIP3    H177155   4.177   0.903  12.494 -0.6037  1.5583  1.5074
18580TIP3    H277156   4.310   0.838  12.524 -0.7019 -0.1812 -1.4565
18581TIP3   OH277157   2.186   6.356   4.205  0.5001  0.3960  0.2431
18581TIP3    H177158   2.247   6.408   4.153  0.1302  1.3765  0.7774
18581TIP3    H277159   2.111   6.342   4.147  0.7746  0.0962 -0.0432
18582TIP3   OH277160   0.168   2.502   4.764 -0.1436 -0.8229 -0.5306
18582TIP3    H177161   0.250   2.546   4.785 -0.5630 -0.0357 -0.4995
18582TIP3    H277162   0.116   2.509   4.845 -0.4317 -0.8592 -0.7124
18583TIP3   OH277163   3.137   3.577   0.904  0.4526 -0.2559 -1.0297
18583TIP3    H177164   3.154   3.625   0.823  1.0062 -1.2800 -1.5421
18583TIP3    H277165   3.055   3.613   0.937  1.1103  1.4016 -1.1029
18584TIP3   OH277166   6.465   6.353   1.785  0.2874  0.2685  0.5373
18584TIP3    H177167   6.378   6.392   1.774  0.7883  1.5209  0.8729
18584TIP3    H277168   6.448   6.274   1.837 -1.0088 -1.1956 -1.9496
18585TIP3   OH277169   0.499   1.529  10.614  0.5109  0.4213 -0.0644
18585TIP3    H177170   0.477   1.504  10.524  0.6527  1.2681 -0.3459
18585TIP3    H277171   0.414   1.543  10.656  0.4548  1.0349 -0.3698
18586TIP3   OH277172   2.356   5.081   3.730 -0.1139 -0.6287  0.3405
18586TIP3    H177173   2.273   5.129   3.733  0.3119  0.3737 -1.8415
18586TIP3    H277174   2.423   5.149   3.735  0.5254 -1.1292 -1.0660
18587TIP3   OH277175   3.644   5.007  13.519 -0.3786 -0.1437  0.0264
18587TIP3    H177176   3.609   4.922  13.491  0.6290 -0.5112 -0.1483
18587TIP3    H277177   3.738   5.001  13.502 -0.2804  0.9696  0.1203
18588TIP3   OH277178   3.946   2.297  14.417  0.3519  0.1207  0.2533
18588TIP3    H177179   3.902   2.243  14.352  2.5229 -0.4397 -0.8573
18588TIP3    H277180   3.985   2.235  14.478  1.1981  0.4867  0.1053
18589TIP3   OH277181   1.954   4.199  15.950 -0.3434 -0.1017  0.4568
18589TIP3    H177182   1.897   4.268  15.983 -0.3394 -0.7915  1.9582
18589TIP3    H277183   1.915   4.173  15.867 -1.2187  0.6334  0.6245
18590TIP3   OH277184   4.668   2.748  15.012  0.0066 -0.1129 -0.2546
18590TIP3    H177185   4.615   2.733  14.934  1.1197 -0.6722 -0.9307
18590TIP3    H277186   4.653   2.840  15.034 -0.3312  0.0488 -1.1161
18591TIP3   OH277187   6.625   3.924  12.880  0.0612  0.2844 -0.5151
18591TIP3    H177188   6.719   3.906  12.883  0.0188  0.2282  0.6201
18591TIP3    H277189   6.603   3.954  12.968 -1.3452 -1.5830 -0.1521
18592TIP3   OH277190   1.267   5.276   0.571  0.1810 -0.2305  0.0302
18592TIP3    H177191   1.219   5.213   0.516  0.8314 -0.9183  0.2279
18592TIP3    H277192   1.261   5.239   0.660  0.1073  0.2754  0.2389
18593TIP3   OH277193   2.949   4.104   1.974  0.0509 -0.6332  0.0288
18593TIP3    H177194   2.971   4.058   1.893 -1.5129  0.4773 -1.0805
18593TIP3    H277195   2.946   4.035   2.041 -0.6638 -1.9065 -1.2652
18594TIP3   OH277196   1.831   1.399  11.912  0.2307  0.4385 -0.1253
18594TIP3    H177197   1.803   1.486  11.885 -1.1241 -0.8883 -3.4705
18594TIP3    H277198   1.893   1.371  11.846  0.9025 -1.0422  1.0583
18595TIP3   OH277199   4.916   2.844  13.830 -0.6742  0.5607 -0.0019
18595TIP3    H177200   4.981   2.860  13.761 -1.9983 -1.3487 -1.8264
18595TIP3    H277201   4.866   2.925  13.836  1.5563  1.9532  1.1980
18596TIP3   OH277202   1.280   4.098   5.598 -0.5599  0.3053  0.1812
18596TIP3    H177203   1.227   4.155   5.655 -1.6438 -0.1799 -0.3098
18596TIP3    H277204   1.220   4.074   5.527  0.2524 -0.4823 -0.2485
18597TIP3   OH277205   5.780   3.025  16.155  0.7302  0.3060  0.2304
18597TIP3    H177206   5.797   2.939  16.193 -0.5767  0.7722  1.9881
18597TIP3    H277207   5.778   3.084  16.230  0.0606  1.6146 -0.7877
18598TIP3   OH277208   4.490   4.333  13.611  0.1374  0.0010 -0.1669
18598TIP3    H177209   4.540   4.319  13.692  0.0718  1.1310  0.0799
18598TIP3    H277210   4.536   4.405  13.567 -0.8626  0.5879 -0.2746
18599TIP3   OH277211   1.553   4.772  15.079 -0.4657  0.0921  0.0930
18599TIP3    H177212   1.549   4.866  15.095 -1.9959  0.0605  0.0450
18599TIP3    H277213   1.601   4.736  15.154 -0.8670  0.7901  0.6896
18600TIP3   OH277214   3.841   3.802  12.444 -0.7219 -0.3033 -0.4727
18600TIP3    H177215   3.759   3.852  12.442 -0.3828  0.2996  0.3584
18600TIP3    H277216   3.847   3.770  12.534  0.0354 -0.2095 -0.4843
18601TIP3   OH277217   0.862   6.741   3.302 -0.4099 -0.3583  0.3916
18601TIP3    H177218   0.776   6.705   3.280 -0.5971 -0.1605  0.7787
18601TIP3    H277219   0.923   6.669   3.285 -0.7215 -0.6930  0.6608
18602TIP3   OH277220   1.997   4.040   2.592  0.0597 -0.1830  0.1147
18602TIP3    H177221   2.047   4.089   2.527  1.2811 -1.5002  0.0016
18602TIP3    H277222   1.989   4.100   2.666 -2.9740  2.0518 -1.7899
18603TIP3   OH277223   0.217   1.254  17.105 -0.1256  0.1015 -0.2650
18603TIP3    H177224   0.289   1.199  17.074  0.5051  0.0408  1.2178
18603TIP3    H277225   0.243   1.343  17.081  0.3373  0.0574  0.0708
18604TIP3   OH277226   3.877   0.978   3.107 -0.3437  0.3013  0.3607
18604TIP3    H177227   3.877   1.025   3.190 -1.3645 -0.5235  0.8491
18604TIP3    H277228   3.943   0.909   3.118 -0.8240 -0.1127  0.6752
18605TIP3   OH277229   6.162   2.049  11.536  0.3396 -0.1574  0.0147
18605TIP3    H177230   6.188   2.130  11.492 -1.6231 -0.1171 -1.1867
18605TIP3    H277231   6.128   2.078  11.621 -1.5253  0.5039 -0.8869
18606TIP3   OH277232   5.723   0.917   5.446  0.0122 -0.5682  0.4501
18606TIP3    H177233   5.667   0.980   5.401  0.3544  0.7041  1.7328
18606TIP3    H277234   5.791   0.895   5.382  0.3257  0.9576  0.2361
18607TIP3   OH277235   1.740   6.646  15.539  0.3604 -0.3227  0.0559
18607TIP3    H177236   1.828   6.607  15.541  0.7237  0.4222  2.7715
18607TIP3    H277237   1.756   6.741  15.537 -0.4135 -0.2015 -0.8073
18608TIP3   OH277238   0.191   0.904  13.075 -0.4476  0.3944  0.4775
18608TIP3    H177239   0.122   0.965  13.046 -1.2995 -1.1171 -0.7939
18608TIP3    H277240   0.265   0.923  13.017 -0.7313  0.1868  0.0422
18609TIP3   OH277241   4.477   1.269   4.037  0.6784  0.0490  0.1017
18609TIP3    H177242   4.404   1.256   4.099  1.9530 -0.1337  1.6324
18609TIP3    H277243   4.435   1.270   3.951 -0.9155 -2.1141  0.7581
18610TIP3   OH277244   1.605   6.512  14.591  0.1753 -0.3529  0.1514
18610TIP3    H177245   1.622   6.513  14.686 -0.0546  1.4265  0.2111
18610TIP3    H277246   1.648   6.432  14.560  1.4242 -0.2747  1.5491
18611TIP3   OH277247   2.380   1.316   1.506  0.6391  0.0410 -0.3489
18611TIP3    H177248   2.377   1.282   1.417  1.6237  0.7068 -0.6634
18611TIP3    H277249   2.316   1.265   1.554 -1.9880  1.5272 -2.0589
18612TIP3   OH277250   1.050   5.939  15.682 -0.8474 -0.5073 -0.1542
18612TIP3    H177251   0.973   5.995  15.675 -0.9499 -0.6657 -0.2844
18612TIP3    H277252   1.108   5.970  15.612 -1.0344 -0.7671 -0.4268
18613TIP3   OH277253   4.629   3.360  11.788  0.3250 -0.0680  0.0414
18613TIP3    H177254   4.598   3.411  11.714  0.3412 -0.4875 -0.2544
18613TIP3    H277255   4.694   3.417  11.831  1.2975 -0.3309 -1.0337
18614TIP3   OH277256   0.033   1.050  14.019  0.5037  0.5000  0.1964
18614TIP3    H177257  -0.049   1.068  14.065 -0.2955  0.8876 -1.3198
18614TIP3    H277258   0.089   1.124  14.042  0.2241  0.5358  0.7862
18615TIP3   OH277259   5.998   1.590   5.752 -0.2317  0.2416 -0.5152
18615TIP3    H177260   6.014   1.657   5.818  0.8298 -0.3452 -0.1542
18615TIP3    H277261   6.003   1.507   5.800 -1.4431 -0.1144 -0.9709
18616TIP3   OH277262   5.086   2.081  14.004  0.2938 -0.1730  0.1722
18616TIP3    H177263   5.164   2.042  13.967 -0.6670 -1.4479 -0.5981
18616TIP3    H277264   5.091   2.061  14.098  1.4194  0.7460  0.3286
18617TIP3   OH277265   2.152   3.312  13.619 -0.1770  0.4871  0.0743
18617TIP3    H177266   2.084   3.369  13.582 -0.0167 -0.3749 -1.6621
18617TIP3    H277267   2.232   3.363  13.611 -0.4841  1.2718  1.5781
18618TIP3   OH277268   0.621   5.335   2.440  0.1685 -0.3249 -0.2278
18618TIP3    H177269   0.631   5.420   2.483 -3.3116 -0.2400  0.7271
18618TIP3    H277270   0.653   5.271   2.504  0.9583  0.1447 -0.1487
18619TIP3   OH277271   2.483   0.979   0.120 -0.2146  0.7454 -0.2977
18619TIP3    H177272   2.473   1.033   0.199 -0.6649  1.2158 -0.6638
18619TIP3    H277273   2.479   1.042   0.048 -1.4448  0.1647 -0.7700
18620TIP3   OH277274   0.806   4.952   5.461  0.2794 -0.0360 -0.3601
18620TIP3    H177275   0.769   4.967   5.548  2.6548  1.3327  0.5118
18620TIP3    H277276   0.795   5.035   5.415  1.7900  0.2551 -0.2375
18621TIP3   OH277277   5.547   0.683   1.261  0.6489 -0.0597  0.3592
18621TIP3    H177278   5.549   0.773   1.229 -0.3737  0.2325  1.0617
18621TIP3    H277279   5.464   0.648   1.230  0.4956 -0.3707  1.0959
18622TIP3   OH277280   2.973   4.213   0.407 -0.1902 -0.5306  0.2463
18622TIP3    H177281   3.041   4.246   0.348 -1.1014 -1.4194 -1.3845
18622TIP3    H277282   3.012   4.218   0.494  1.6589 -0.2717 -0.5503
18623TIP3   OH277283   5.951   2.383   4.010  0.3433  0.2536 -0.1549
18623TIP3    H177284   5.937   2.388   3.915  1.0733  0.9682 -0.2382
18623TIP3    H277285   5.977   2.292   4.025  0.8466  0.2906 -0.7395
18624TIP3   OH277286   5.705   4.161  14.999  0.2109  0.5509 -0.1290
18624TIP3    H177287   5.697   4.198  15.087 -0.4348  1.4217 -0.5403
18624TIP3    H277288   5.687   4.067  15.011 -0.1943  0.7129  0.6158
18625TIP3   OH277289   6.415   5.764  12.180  0.7885 -0.2985  0.0967
18625TIP3    H177290   6.475   5.740  12.110  0.2580 -0.1289 -0.4188
18625TIP3    H277291   6.464   5.829  12.232  1.4416 -0.9381  0.2947
18626TIP3   OH277292   2.239   6.633   2.161 -0.6584  0.2206 -0.0570
18626TIP3    H177293   2.235   6.685   2.242 -0.6543  1.2669 -0.7060
18626TIP3    H277294   2.239   6.542   2.191  0.2679  0.5906  1.1565
18627TIP3   OH277295   5.788   5.403   2.134 -0.2925 -0.2463  0.2651
18627TIP3    H177296   5.710   5.373   2.179  0.0496 -1.2557  0.1972
18627TIP3    H277297   5.812   5.484   2.179 -1.2699 -0.0049  0.3881
18628TIP3   OH277298   0.917   1.478  12.481 -0.2598 -0.0439 -0.4933
18628TIP3    H177299   0.879   1.393  12.457  0.8307 -1.6963  2.9762
18628TIP3    H277300   0.852   1.518  12.538  0.6013 -0.1506  0.6049
18629TIP3   OH277301   0.788   2.964   5.189  0.6470 -0.3146 -0.0546
18629TIP3    H177302   0.802   3.032   5.123  1.8609  1.0228  1.4774
18629TIP3    H277303   0.822   3.003   5.270 -0.8879 -1.8329  1.3901
18630TIP3   OH277304   2.663   3.575  11.557  0.3943 -1.1380  0.0223
18630TIP3    H177305   2.675   3.542  11.646 -0.8315 -1.3959  0.1113
18630TIP3    H277306   2.726   3.647  11.549  0.8026 -1.3880  0.9542
18631TIP3   OH277307   2.567   0.862   2.333 -0.0953  0.6279 -0.1912
18631TIP3    H177308   2.541   0.954   2.342 -1.0116  0.2140  2.4897
18631TIP3    H277309   2.549   0.824   2.419  3.4350 -1.2797 -0.0941
18632TIP3   OH277310   0.057   3.428  13.652 -0.4349 -0.4043  0.0174
18632TIP3    H177311   0.068   3.459  13.562 -1.1235 -0.7581 -0.1927
18632TIP3    H277312   0.111   3.349  13.657  0.0131 -0.1010  0.0724
18633TIP3   OH277313   5.413   2.349   5.689 -0.1072  0.5285  0.3379
18633TIP3    H177314   5.375   2.264   5.709 -0.2302  0.5418  0.1630
18633TIP3    H277315   5.362   2.411   5.741  0.2485  0.4537  0.7822
18634TIP3   OH277316   4.660   0.897   2.348 -0.2089  0.1077  0.3149
18634TIP3    H177317   4.600   0.962   2.311  0.1845 -0.4989 -1.4956
18634TIP3    H277318   4.746   0.923   2.316  0.4541  0.5910  2.3487
18635TIP3   OH277319   0.933   4.592  12.975 -0.3718 -0.1847  0.1827
18635TIP3    H177320   1.008   4.532  12.967  0.5129  0.9377 -0.1097
18635TIP3    H277321   0.928   4.612  13.069 -0.5504 -0.5344  0.2534
18636TIP3   OH277322   4.690   5.652   6.102 -0.3024 -0.0228 -0.4610
18636TIP3    H177323   4.611   5.638   6.154  1.2980  0.4783  2.2973
18636TIP3    H277324   4.679   5.739   6.063 -0.4747  0.7489  1.2259
18637TIP3   OH277325   6.543   6.200  14.346 -0.0890  0.2013 -0.2322
18637TIP3    H177326   6.576   6.290  14.353 -0.4160  0.2847  0.2774
18637TIP3    H277327   6.617   6.150  14.313 -0.1105  0.7831 -1.2179
18638TIP3   OH277328   1.741   0.065  11.750  0.5725 -0.0043  0.7813
18638TIP3    H177329   1.670   0.119  11.716  2.1830  1.2121 -0.8317
18638TIP3    H277330   1.747  -0.009  11.690  0.5245 -0.2276  1.0485
18639TIP3   OH277331   4.741   0.457   5.936 -0.7093 -0.1352  0.2296
18639TIP3    H177332   4.706   0.509   6.008 -2.0422 -1.1825  0.3835
18639TIP3    H277333   4.670   0.397   5.913  0.4118 -1.2148 -0.5860
18640TIP3   OH277334   4.513   5.205   4.449  0.2842  0.4131 -0.4052
18640TIP3    H177335   4.490   5.244   4.365 -0.5918 -0.3283 -0.5258
18640TIP3    H277336   4.514   5.111   4.433  0.8382  0.3030  0.2432
18641TIP3   OH277337   0.643   2.637   2.311 -0.0901  0.1993  0.2100
18641TIP3    H177338   0.729   2.672   2.284 -0.2901  2.5250  2.2324
18641TIP3    H277339   0.664   2.577   2.383 -0.1591  2.0715  1.8860
18642TIP3   OH277340   3.003   6.457   4.896 -0.1973 -0.5105 -0.1020
18642TIP3    H177341   3.074   6.420   4.845 -1.2360 -0.4920 -1.6236
18642TIP3    H277342   2.969   6.528   4.842  0.1569  1.0828  1.6645
18643TIP3   OH277343   0.021   1.153  13.701  0.1776  0.2706  0.2291
18643TIP3    H177344  -0.073   1.140  13.687 -0.1407  2.0053  0.4535
18643TIP3    H277345   0.030   1.248  13.712  1.8400  0.0408  1.1624
18644TIP3   OH277346   4.025   6.702   1.678  0.4609 -0.2418 -0.3969
18644TIP3    H177347   4.067   6.788   1.677 -0.1311  0.0630  0.2937
18644TIP3    H277348   3.932   6.721   1.664  0.2897 -0.7468  0.0245
18645TIP3   OH277349   0.579   6.406  13.629  0.9222 -0.1390  0.3611
18645TIP3    H177350   0.642   6.336  13.613  2.8392  1.6186 -0.1538
18645TIP3    H277351   0.632   6.481  13.656 -0.8327  1.7048 -0.9997
18646TIP3   OH277352   5.835   3.157  11.523  0.1914  0.2817 -0.4489
18646TIP3    H177353   5.901   3.206  11.473 -0.5856  1.7022 -0.1415
18646TIP3    H277354   5.762   3.145  11.462  0.3422 -0.4183 -0.4929
18647TIP3   OH277355   1.638   1.521   5.206 -0.5020 -0.2049 -0.0465
18647TIP3    H177356   1.590   1.598   5.174 -0.2508  1.0398  2.2910
18647TIP3    H277357   1.577   1.478   5.266  0.0694 -0.6559  0.2176
18648TIP3   OH277358   1.130   0.681  16.529 -0.2571  0.0789  0.0986
18648TIP3    H177359   1.112   0.616  16.462  2.1143  1.4018 -1.9982
18648TIP3    H277360   1.217   0.658  16.562  0.1298  1.4779  0.1295
18649TIP3   OH277361   2.572   3.817   5.922 -0.1418  0.2949 -0.4127
18649TIP3    H177362   2.481   3.847   5.923 -0.1636  0.2400 -0.5841
18649TIP3    H277363   2.623   3.894   5.946 -0.3198 -0.0254  1.0799
18650TIP3   OH277364   1.129   5.540   2.962 -0.2297 -0.0758  0.2839
18650TIP3    H177365   1.144   5.470   2.899 -1.8483 -0.3280  0.1404
18650TIP3    H277366   1.044   5.519   3.001  0.9692 -0.2367  2.9864
18651TIP3   OH277367   2.508   6.374  15.322  0.2382  0.0914 -0.0854
18651TIP3    H177368   2.482   6.339  15.238  1.1681  1.5366 -1.0244
18651TIP3    H277369   2.454   6.328  15.386 -0.1146 -1.4045 -1.4168
18652TIP3   OH277370   0.837   2.787  12.711  0.6067  0.3846 -0.2805
18652TIP3    H177371   0.765   2.726  12.723  1.3310 -0.8891 -1.9138
18652TIP3    H277372   0.833   2.810  12.618  1.4029  1.4692 -0.0622
18653TIP3   OH277373   5.660   5.151  13.855  0.0200  0.4121 -0.1088
18653TIP3    H177374   5.607   5.191  13.924 -0.9886  0.3871 -0.8380
18653TIP3    H277375   5.731   5.108  13.901 -0.1550  1.1141  0.8529
18654TIP3   OH277376   2.917   3.480   4.607  0.3202 -0.4609  0.1793
18654TIP3    H177377   2.834   3.452   4.568 -1.4417  2.1990  1.6608
18654TIP3    H277378   2.967   3.515   4.533 -1.1167  0.5125 -0.3901
18655TIP3   OH277379   2.220   5.841   3.990 -0.1050  0.1301  0.3781
18655TIP3    H177380   2.128   5.819   4.004 -0.6620  1.8202 -0.4099
18655TIP3    H277381   2.238   5.810   3.901 -0.5890  1.8123 -0.3319
18656TIP3   OH277382   2.560   1.518   4.475 -0.3301  0.1852  0.0197
18656TIP3    H177383   2.472   1.557   4.481 -0.1370  0.4239  1.8050
18656TIP3    H277384   2.619   1.592   4.487  0.1710  0.1768 -2.1172
18657TIP3   OH277385   0.216   6.630  14.368 -0.6342 -0.0724  0.3033
18657TIP3    H177386   0.214   6.535  14.377 -0.3321  0.0649  2.0560
18657TIP3    H277387   0.267   6.645  14.288 -1.4997 -1.3854 -0.5505
18658TIP3   OH277388   1.867   0.004  13.178 -0.3160  0.2148  0.2573
18658TIP3    H177389   1.865   0.089  13.134 -0.8644  0.2287  0.3003
18658TIP3    H277390   1.942   0.009  13.237 -1.4791  1.4454  1.7490
18659TIP3   OH277391   5.790   4.944   4.662  0.5003 -0.2300  0.3334
18659TIP3    H177392   5.728   4.948   4.735 -0.1553 -1.3277 -0.1361
18659TIP3    H277393   5.840   4.864   4.678  0.8446 -0.0922 -0.0416
18660TIP3   OH277394   5.027   2.767  13.089 -0.9122  0.0936  0.0827
18660TIP3    H177395   5.105   2.712  13.088 -0.7685  0.2866 -0.6163
18660TIP3    H277396   4.954   2.706  13.098 -0.6316  0.0225  2.4421
18661TIP3   OH277397   4.111   4.802  14.961  0.3184  0.2944 -0.2270
18661TIP3    H177398   4.049   4.856  14.911 -0.0007 -2.1212 -2.6844
18661TIP3    H277399   4.106   4.716  14.919  2.6673 -0.9707  1.8709
18662TIP3   OH277400   2.788   1.177   2.939  0.3657  0.2196 -0.0248
18662TIP3    H177401   2.714   1.139   2.988  0.0842  0.8723  0.0697
18662TIP3    H277402   2.864   1.126   2.968  0.1963  0.5373  1.0467
18663TIP3   OH277403   0.683   2.475  13.814  0.5900 -0.2156  0.3789
18663TIP3    H177404   0.688   2.516  13.901 -0.9338 -0.8593  0.8142
18663TIP3    H277405   0.773   2.473  13.783  0.9366  1.8842  1.0646
18664TIP3   OH277406   3.107   4.858  15.808 -0.0597 -0.0373 -0.1884
18664TIP3    H177407   3.089   4.951  15.814 -1.2335 -0.2127 -0.7324
18664TIP3    H277408   3.064   4.820  15.885  0.6100 -0.1167  0.1568
18665TIP3   OH277409   4.078   3.049   4.179 -0.2417 -0.0024  0.7180
18665TIP3    H177410   4.089   3.102   4.100 -1.3218 -1.1080 -0.2078
18665TIP3    H277411   4.024   3.103   4.237 -2.8995 -0.6982 -0.9366
18666TIP3   OH277412   0.514   3.379   3.879  0.4015 -0.4789  0.0891
18666TIP3    H177413   0.449   3.371   3.948  0.9756 -0.9046  0.5863
18666TIP3    H277414   0.463   3.373   3.798 -0.0486 -2.1925  0.4463
18667TIP3   OH277415   5.630   1.637   0.341 -1.0387 -0.1835 -0.4218
18667TIP3    H177416   5.639   1.664   0.250 -1.6533  2.4547  0.2162
18667TIP3    H277417   5.542   1.602   0.347 -0.9399 -0.5167 -0.8645
18668TIP3   OH277418   0.716   1.498  14.992  0.1544 -0.7805  0.3195
18668TIP3    H177419   0.716   1.589  15.019 -0.4044 -0.8620  0.6050
18668TIP3    H277420   0.798   1.463  15.027  0.1783 -0.4895  0.5639
18669TIP3   OH277421   2.978   2.973  12.883  0.5334 -0.2891  0.3836
18669TIP3    H177422   2.895   2.971  12.931  0.3964 -1.6032  0.1487
18669TIP3    H277423   2.959   2.927  12.801  1.2999  0.0864 -0.0153
18670TIP3   OH277424   1.072   2.506  11.317 -0.7399 -0.2416 -0.3294
18670TIP3    H177425   1.053   2.502  11.410  0.6924  0.3127  0.0057
18670TIP3    H277426   1.038   2.591  11.289 -1.6701 -0.6399 -0.4531
18671TIP3   OH277427   2.050   6.228   1.352  0.0494 -1.0896 -0.0961
18671TIP3    H177428   2.085   6.297   1.409 -3.0876  1.5936 -1.0856
18671TIP3    H277429   1.993   6.177   1.409  0.3048 -1.2091  0.0578
18672TIP3   OH277430   0.162   2.623   5.316 -0.0179  0.0764  0.1434
18672TIP3    H177431   0.250   2.626   5.277 -0.0836  0.6466  0.0299
18672TIP3    H277432   0.164   2.691   5.384 -0.6786  0.7928 -0.5263
18673TIP3   OH277433   4.663   1.415  16.814 -0.0053  0.3601  0.2292
18673TIP3    H177434   4.632   1.397  16.725 -1.7183 -2.3364  1.2498
18673TIP3    H277435   4.755   1.441  16.803 -0.5096  1.3343 -2.3754
18674TIP3   OH277436   3.382   1.228  16.072  0.1805 -0.4192  0.1280
18674TIP3    H177437   3.388   1.155  16.133 -0.2012  0.4397  1.2201
18674TIP3    H277438   3.342   1.298  16.122  1.4052  0.8547 -0.5983
18675TIP3   OH277439   5.992   0.986   2.135  0.5517  0.4502  0.4544
18675TIP3    H177440   5.953   0.941   2.210 -0.2296  0.7188  0.2169
18675TIP3    H277441   5.921   1.038   2.098  0.5073 -0.7688 -1.3292
18676TIP3   OH277442   1.289   4.153   3.697  0.0785  0.0784 -0.1483
18676TIP3    H177443   1.220   4.209   3.660  0.9071  2.1089  1.2004
18676TIP3    H277444   1.331   4.113   3.621 -0.2301  1.6974 -1.2279
18677TIP3   OH277445   6.214   3.701  13.316 -0.1525 -0.2700 -0.0817
18677TIP3    H177446   6.241   3.768  13.378  0.7106 -1.4027  0.8094
18677TIP3    H277447   6.180   3.630  13.371 -2.0988 -0.1559 -1.0444
18678TIP3   OH277448   2.107   6.117  16.570  0.2318  0.8969  0.4041
18678TIP3    H177449   2.132   6.050  16.633 -0.5013  0.0553 -0.1789
18678TIP3    H277450   2.043   6.171  16.616 -0.8002 -0.1093  0.1866
18679TIP3   OH277451   6.319   6.314  16.469 -0.3495  0.8586 -0.2412
18679TIP3    H177452   6.310   6.381  16.401 -0.2995 -0.2823 -1.3947
18679TIP3    H277453   6.394   6.344  16.522  0.7859  0.8451 -1.7819
18680TIP3   OH277454   0.710   4.218  10.954  0.5482 -0.6943 -0.5464
18680TIP3    H177455   0.654   4.211  11.032 -1.3607  0.2014 -1.7663
18680TIP3    H277456   0.653   4.190  10.882  1.6959  0.2418 -1.8509
18681TIP3   OH277457   6.026   1.101  16.556  0.7713  0.2565  0.2603
18681TIP3    H177458   6.064   1.158  16.490 -1.1685  0.2744 -0.9302
18681TIP3    H277459   5.980   1.161  16.615  0.9823  0.1143  0.5683
18682TIP3   OH277460   2.865   2.548   5.904  0.1486  0.2791 -0.1369
18682TIP3    H177461   2.873   2.576   5.995 -2.0658  0.7800 -0.0467
18682TIP3    H277462   2.798   2.479   5.906  1.6811 -1.3498 -1.1155
18683TIP3   OH277463   1.180   4.999   3.894  0.3266 -0.7001  0.2107
18683TIP3    H177464   1.109   4.936   3.891  2.5063 -3.4089  1.0485
18683TIP3    H277465   1.155   5.067   3.832 -2.2411 -2.3246 -0.6685
18684TIP3   OH277466   5.124   4.906   1.327  0.4700 -0.0190  0.5355
18684TIP3    H177467   5.211   4.873   1.348  0.4534 -1.9506 -2.0134
18684TIP3    H277468   5.134   5.001   1.325  2.1322 -0.1278  1.6448
18685TIP3   OH277469   5.451   0.175  14.209 -0.6392  0.0159  0.4074
18685TIP3    H177470   5.507   0.198  14.283 -3.3325  1.4740  2.1411
18685TIP3    H277471   5.493   0.217  14.133  0.4340  1.3198  1.6626
18686TIP3   OH277472   2.108   2.971  13.180 -0.5169 -0.0920  0.2757
18686TIP3    H177473   2.050   2.896  13.169  0.9770 -1.2752  0.2384
18686TIP3    H277474   2.167   2.968  13.104  1.1786 -0.3947  1.5361
18687TIP3   OH277475   6.308   0.677  11.408  0.4866 -0.2727  0.0074
18687TIP3    H177476   6.384   0.668  11.466 -0.3757 -0.2912  1.1891
18687TIP3    H277477   6.324   0.757  11.358  0.9521  0.1265  0.7748
18688TIP3   OH277478   5.186   2.691   2.506  0.1728  0.0441  0.1985
18688TIP3    H177479   5.127   2.741   2.450  2.4170  2.4154 -0.2039
18688TIP3    H277480   5.190   2.741   2.587  0.9644 -0.5693  0.5434
18689TIP3   OH277481   3.834   5.840  16.815 -0.1693  0.1367 -0.3826
18689TIP3    H177482   3.826   5.914  16.755 -0.6787 -0.9509 -1.7175
18689TIP3    H277483   3.912   5.793  16.785 -0.5995 -0.5874 -0.4002
18690TIP3   OH277484   0.757   0.372   4.232  0.7874 -0.4673 -0.0131
18690TIP3    H177485   0.780   0.320   4.155  2.8733 -0.6884  0.7094
18690TIP3    H277486   0.837   0.420   4.254 -0.2595  0.8996  1.0193
18691TIP3   OH277487   3.878   4.728   3.035  0.6860  0.3191  0.2239
18691TIP3    H177488   3.785   4.707   3.032  0.6412  0.5959 -1.3972
18691TIP3    H277489   3.919   4.648   3.069 -0.2835  0.9324  3.1205
18692TIP3   OH277490   2.388   3.555   3.716  0.6067  0.2058  0.2049
18692TIP3    H177491   2.476   3.567   3.751  0.6216 -0.1054  0.2793
18692TIP3    H277492   2.330   3.566   3.791  0.5831  0.4128  0.1553
18693TIP3   OH277493   2.834   0.686   3.824 -0.6315 -0.4682 -0.0022
18693TIP3    H177494   2.918   0.696   3.869 -0.4460 -0.7850 -0.2715
18693TIP3    H277495   2.779   0.757   3.858  0.5523  1.3616 -1.6655
18694TIP3   OH277496   2.810   2.122  10.183 -0.5658 -0.3040 -0.2820
18694TIP3    H177497   2.903   2.124  10.159 -0.1938 -3.3917  0.5458
18694TIP3    H277498   2.797   2.204  10.232  1.3706  0.7925 -1.4572
18695TIP3   OH277499   1.359   5.608   5.369 -0.3960 -0.3024 -0.1384
18695TIP3    H177500   1.450   5.609   5.398 -1.1168 -0.4810  2.3586
18695TIP3    H277501   1.358   5.665   5.292  1.6974  0.2301  0.1719
18696TIP3   OH277502   5.495   3.228   0.056  0.2517 -0.1772 -0.0913
18696TIP3    H177503   5.487   3.139   0.023  0.0947  0.3369 -1.5069
18696TIP3    H277504   5.464   3.284  -0.015 -0.4913  0.9905  1.0756
18697TIP3   OH277505   1.721   1.781   2.873 -0.0593 -0.1526 -0.1043
18697TIP3    H177506   1.685   1.706   2.827  0.6766  0.4161 -1.6608
18697TIP3    H277507   1.760   1.836   2.805  1.3536  0.5771  1.2044
18698TIP3   OH277508   4.038   5.534   1.902 -0.8772  0.3468 -0.5413
18698TIP3    H177509   4.008   5.612   1.949 -1.1114  0.3502 -0.6913
18698TIP3    H277510   4.092   5.568   1.831  0.0072  0.3085  0.1037
18699TIP3   OH277511   4.330   6.101  16.531 -0.1146 -0.5427  0.3589
18699TIP3    H177512   4.284   6.079  16.450 -2.6918  0.6774  1.3721
18699TIP3    H277513   4.300   6.035  16.594  2.4422 -1.9420  0.2428
18700TIP3   OH277514   5.893   4.094   3.652  0.4541  0.3177 -0.0576
18700TIP3    H177515   5.939   4.075   3.734  0.8844  0.3956 -0.2779
18700TIP3    H277516   5.822   4.030   3.649 -0.1416  0.9163  0.8344
18701TIP3   OH277517   2.120   0.911   3.442 -0.3122 -0.4723 -0.1725
18701TIP3    H177518   2.072   0.888   3.521 -1.7792 -2.6026 -1.5724
18701TIP3    H277519   2.203   0.864   3.449 -1.3936 -2.6002 -0.8790
18702TIP3   OH277520   3.876   0.642   2.934  0.0391  0.4584  0.7706
18702TIP3    H177521   3.780   0.636   2.930  0.0104  0.1729  1.7223
18702TIP3    H277522   3.896   0.652   3.027  1.0347 -1.7717  0.8720
18703TIP3   OH277523   3.360   1.734  13.618 -0.2717 -0.2936 -0.1471
18703TIP3    H177524   3.360   1.745  13.522 -0.3842  1.9266  0.0605
18703TIP3    H277525   3.382   1.821  13.652  0.6709 -1.2578  1.8541
18704TIP3   OH277526   4.258   3.560   2.097  0.2003  0.1186 -0.3229
18704TIP3    H177527   4.334   3.598   2.140 -0.8067  0.1576  1.5518
18704TIP3    H277528   4.292   3.485   2.048  1.4138  0.0473  0.5912
18705TIP3   OH277529   4.407   1.252  15.066 -0.3718  0.1080  0.3865
18705TIP3    H177530   4.474   1.190  15.037  0.6354  1.3264  0.0109
18705TIP3    H277531   4.390   1.306  14.989 -2.2134 -0.5248  0.3153
18706TIP3   OH277532   5.699   1.825   0.652  0.4514  0.2131 -0.4590
18706TIP3    H177533   5.761   1.890   0.618 -1.1461  2.3420  0.4279
18706TIP3    H277534   5.619   1.876   0.670 -1.5823 -2.3740 -1.5383
18707TIP3   OH277535   2.530   3.141  12.355 -0.3296  0.4112  0.0358
18707TIP3    H177536   2.532   3.152  12.260 -1.6162 -2.6397 -0.4704
18707TIP3    H277537   2.457   3.195  12.384 -2.3743 -1.4462 -1.3155
18708TIP3   OH277538   6.575   4.619   4.876  0.2242 -0.1981 -0.6919
18708TIP3    H177539   6.669   4.631   4.868  0.2559  0.9660  1.0161
18708TIP3    H277540   6.537   4.701   4.843 -0.0887  0.0388  0.2147
18709TIP3   OH277541   0.577   1.370   0.413 -0.3784 -0.5234  0.3611
18709TIP3    H177542   0.641   1.301   0.397  0.5662  0.8097 -2.1830
18709TIP3    H277543   0.578   1.383   0.508  2.6956 -0.9460  0.4706
18710TIP3   OH277544   3.608   5.149  11.760 -0.4285  0.1932  0.0479
18710TIP3    H177545   3.596   5.055  11.772  0.6354 -0.0253 -0.3923
18710TIP3    H277546   3.575   5.166  11.672 -0.9374  0.2939  0.2594
18711TIP3   OH277547   3.249   0.510   5.614 -0.3806 -0.1287  0.8497
18711TIP3    H177548   3.270   0.425   5.574  0.1572 -0.6089  2.1135
18711TIP3    H277549   3.165   0.495   5.657 -0.7674  0.2812  0.2624
18712TIP3   OH277550   5.204   1.807   5.261 -0.0806  0.3174  0.0156
18712TIP3    H177551   5.163   1.792   5.346  0.3567  0.2485  0.2179
18712TIP3    H277552   5.298   1.816   5.281  0.0263  0.2759 -0.4599
18713TIP3   OH277553   6.071   5.249   6.433  0.4266 -0.2742  0.4100
18713TIP3    H177554   5.978   5.227   6.430 -0.2133  1.9523  1.6123
18713TIP3    H277555   6.088   5.267   6.525  1.5455  1.2916 -0.0747
18714TIP3   OH277556   1.947   6.281   6.776 -0.1430  0.6274  0.0409
18714TIP3    H177557   1.984   6.274   6.864 -0.9631  1.7917  0.5125
18714TIP3    H277558   1.853   6.288   6.791 -0.1697  2.7323 -0.7615
18715TIP3   OH277559   3.894   2.541  12.535 -0.0703  0.1231 -0.2492
18715TIP3    H177560   3.868   2.476  12.601 -1.2552  0.6928 -0.1424
18715TIP3    H277561   3.984   2.516  12.512  0.0935 -0.5523  1.0093
18716TIP3   OH277562   3.007   6.175  16.986 -0.4949  0.1994  0.1568
18716TIP3    H177563   2.950   6.230  16.933  0.0545 -0.9052 -1.6574
18716TIP3    H277564   3.089   6.224  16.993 -0.7228  0.5492  0.3693
18717TIP3   OH277565   0.684   3.183  10.266 -0.0254  0.4910  0.1213
18717TIP3    H177566   0.726   3.218  10.345 -0.2161 -1.3816  1.1049
18717TIP3    H277567   0.757   3.157  10.210  0.1105  1.3795 -0.1255
18718TIP3   OH277568   2.451   5.971   6.526  0.2249  0.4869 -0.0748
18718TIP3    H177569   2.412   5.892   6.490 -2.1377  0.7825  1.6464
18718TIP3    H277570   2.404   6.043   6.484  0.3470  0.9135  0.4978
18719TIP3   OH277571   5.801   2.244   3.071 -0.7389  0.1429 -0.8133
18719TIP3    H177572   5.842   2.181   3.131 -2.4618 -0.2557  0.0109
18719TIP3    H277573   5.842   2.327   3.093  0.5807 -0.4373 -0.9614
18720TIP3   OH277574   2.852   1.684   2.082  0.0905 -1.1886 -0.0953
18720TIP3    H177575   2.762   1.653   2.085  0.1786 -1.4146  2.3844
18720TIP3    H277576   2.900   1.623   2.138  1.6556 -0.6187 -0.7584
18721TIP3   OH277577   0.024   1.846  12.404  0.1347 -0.3269  0.0377
18721TIP3    H177578  -0.061   1.867  12.441  0.3368 -0.9304  0.8763
18721TIP3    H277579   0.004   1.811  12.317 -0.5871 -1.6956  0.7271
18722TIP3   OH277580   2.103   3.900   1.059 -0.4798  0.0124  0.0320
18722TIP3    H177581   2.087   3.822   1.006  0.3286 -1.7760  2.2507
18722TIP3    H277582   2.194   3.922   1.043  0.3352 -1.6510  1.8935
18723TIP3   OH277583   5.140   6.450  11.246  0.0976 -0.5395 -0.1733
18723TIP3    H177584   5.157   6.360  11.220  0.2365 -0.2417 -1.1583
18723TIP3    H277585   5.078   6.483  11.181  1.3495  0.5878 -0.8597
18724TIP3   OH277586   2.762   5.030   4.454  0.6347  0.1115 -0.2237
18724TIP3    H177587   2.699   4.961   4.474 -0.0481 -0.0564 -2.6706
18724TIP3    H277588   2.798   5.007   4.369  2.5864  1.2529  0.2311
18725TIP3   OH277589   1.292   0.183   2.537 -0.0534  0.2350 -0.1548
18725TIP3    H177590   1.307   0.214   2.626  1.2873  0.3404 -0.4024
18725TIP3    H277591   1.271   0.090   2.547  1.0186  0.0226  0.2081
18726TIP3   OH277592   2.790   3.118  12.422  0.0745  0.0407 -0.4225
18726TIP3    H177593   2.697   3.122  12.402 -0.7400 -1.7724  2.2992
18726TIP3    H277594   2.815   3.208  12.440 -2.0742  0.2769  1.9559
18727TIP3   OH277595   3.251   5.154   5.695  0.0027  0.0978  0.5252
18727TIP3    H177596   3.241   5.161   5.790  2.0632  1.4417  0.6945
18727TIP3    H277597   3.174   5.104   5.667  0.4544 -2.3746  3.1362
18728TIP3   OH277598   5.845   1.102  13.100 -0.2102  0.2165  0.1424
18728TIP3    H177599   5.831   1.016  13.140  0.7986 -0.0496 -0.0497
18728TIP3    H277600   5.791   1.162  13.153  0.7135 -0.1964  1.6165
18729TIP3   OH277601   0.793   2.915   3.255 -0.4560  0.6111 -1.0424
18729TIP3    H177602   0.834   2.937   3.339  0.3655  0.6432 -1.4324
18729TIP3    H277603   0.800   2.820   3.250  1.5440  0.7467 -2.0328
18730TIP3   OH277604   5.882   2.046   3.785 -0.7957  0.3148 -0.6151
18730TIP3    H177605   5.827   2.106   3.834 -0.1291  0.5067 -0.0825
18730TIP3    H277606   5.825   1.972   3.765 -0.6404 -0.6491  2.0950
18731TIP3   OH277607   2.231   3.008  15.407  0.5467 -0.4432  0.1488
18731TIP3    H177608   2.160   3.073  15.414  1.5829  0.6934  0.5497
18731TIP3    H277609   2.233   2.985  15.314 -1.2227 -1.5341  0.3502
18732TIP3   OH277610   0.355   3.861  13.384  0.1234 -0.1681 -0.2466
18732TIP3    H177611   0.365   3.944  13.337  0.4595  0.2913  0.6279
18732TIP3    H277612   0.367   3.794  13.316 -1.0840  0.4868 -1.1511
18733TIP3   OH277613   3.389   4.875   5.868  0.1668 -0.0914  0.2585
18733TIP3    H177614   3.431   4.961   5.863 -0.3579  0.1070 -1.1807
18733TIP3    H277615   3.419   4.839   5.951  0.8922  1.2230  0.6028
18734TIP3   OH277616   1.436   3.669  12.662  0.0036  0.2755  0.2051
18734TIP3    H177617   1.355   3.617  12.665 -0.1208  0.3172 -1.2968
18734TIP3    H277618   1.410   3.755  12.693 -0.0864 -0.1983  1.4978
18735TIP3   OH277619   1.444   4.105   0.769 -0.3977 -0.4888  0.0675
18735TIP3    H177620   1.404   4.107   0.682 -0.5404 -1.0106  0.1178
18735TIP3    H277621   1.519   4.164   0.761 -1.6959  1.2490  0.2555
18736TIP3   OH277622   0.683   0.130  11.562  0.0285 -0.6735  0.5766
18736TIP3    H177623   0.691   0.102  11.471 -0.9262 -2.7202  1.0711
18736TIP3    H277624   0.748   0.200  11.571 -1.1488  0.9431 -2.1446
18737TIP3   OH277625   4.534   1.187  16.097 -0.2772  0.0482 -0.2152
18737TIP3    H177626   4.466   1.209  16.160  0.6450 -0.4453  0.9921
18737TIP3    H277627   4.486   1.148  16.023 -1.3522  0.4033  0.2738
18738TIP3   OH277628   3.917   3.162   0.431 -0.1101 -0.5497 -0.2387
18738TIP3    H177629   3.882   3.072   0.431 -0.3022 -0.4804 -0.9618
18738TIP3    H277630   4.002   3.155   0.474 -0.0760 -1.1058 -0.3886
18739TIP3   OH277631   3.021   5.974   2.725  0.1850  0.1136 -0.0479
18739TIP3    H177632   2.937   5.942   2.756  0.5906 -0.8539  0.0956
18739TIP3    H277633   3.001   6.018   2.642 -0.5228  0.3138  0.2292
18740TIP3   OH277634   6.526   3.170   5.675  0.4389 -0.3453  0.1795
18740TIP3    H177635   6.461   3.145   5.740  1.1097 -0.2236  0.8993
18740TIP3    H277636   6.475   3.181   5.594 -0.0867 -2.6505  0.1310
18741TIP3   OH277637   2.053   6.003   4.282 -0.3058  0.1582  0.8439
18741TIP3    H177638   2.008   5.926   4.317 -0.6184 -0.1901 -0.2983
18741TIP3    H277639   2.145   5.979   4.281 -0.3986 -0.1915  0.5250
18742TIP3   OH277640   0.554   2.941   6.213 -0.2768 -0.4265  0.1610
18742TIP3    H177641   0.511   2.909   6.133  0.2262  0.2036 -0.3696
18742TIP3    H277642   0.646   2.947   6.189 -0.2623  0.7269  0.4739
18743TIP3   OH277643   2.542   2.457  12.062 -0.2214  0.2615 -0.0262
18743TIP3    H177644   2.578   2.490  11.979  0.4347  1.8506  0.8624
18743TIP3    H277645   2.448   2.470  12.054  0.0559  3.3716  0.6484
18744TIP3   OH277646   1.052   4.904   3.036  0.2159  0.2154  0.1415
18744TIP3    H177647   0.998   4.981   3.053  0.1012  0.5483 -1.6273
18744TIP3    H277648   1.119   4.907   3.105  0.0823  1.7623  0.2403
18745TIP3   OH277649   3.291   5.119   5.236  0.0936  0.1281  0.1172
18745TIP3    H177650   3.360   5.142   5.174  2.2504 -1.9806  1.5483
18745TIP3    H277651   3.338   5.102   5.318 -2.0111 -2.3274  0.9369
18746TIP3   OH277652   0.019   4.604   4.764  0.0340  0.2553 -0.2645
18746TIP3    H177653   0.010   4.509   4.775 -0.2690  0.2483 -0.5370
18746TIP3    H277654   0.029   4.616   4.670  1.2522  0.4104 -0.1315
18747TIP3   OH277655   0.487   5.646  11.407  0.0980  0.3268  0.6740
18747TIP3    H177656   0.452   5.565  11.369 -3.0355  0.6381  2.5970
18747TIP3    H277657   0.444   5.716  11.359  1.1479  0.8511  0.4681
18748TIP3   OH277658   0.235   4.916   3.807  0.0269  0.3134  0.5981
18748TIP3    H177659   0.284   4.907   3.889 -1.5619 -0.1792  1.5522
18748TIP3    H277660   0.167   4.981   3.827 -1.3508 -0.9375  0.1973
18749TIP3   OH277661   0.658   4.991   5.683  0.0793 -0.9049  0.6731
18749TIP3    H177662   0.701   5.028   5.761 -0.9399  1.1224  0.3434
18749TIP3    H277663   0.568   5.024   5.688  0.2084  0.0610 -1.8043
18750TIP3   OH277664   0.416   6.689  11.870  0.2049  0.0497  0.2769
18750TIP3    H177665   0.502   6.691  11.911  0.6010  2.2332 -0.5058
18750TIP3    H277666   0.400   6.780  11.845 -2.8553 -0.0373  1.4699
18751TIP3   OH277667   1.321   0.137   3.488  0.3043  0.4480 -0.6028
18751TIP3    H177668   1.408   0.164   3.519 -0.0066  0.7670  0.0012
18751TIP3    H277669   1.261   0.197   3.531 -0.2061  0.3656 -1.1899
18752TIP3   OH277670   5.900   0.917   3.482 -0.0038  0.0936 -0.2850
18752TIP3    H177671   5.966   0.923   3.412 -0.6177  0.5762 -0.8323
18752TIP3    H277672   5.950   0.896   3.560  0.5933 -1.6780 -1.0758
18753TIP3   OH277673   6.068   2.992  13.598 -0.5312  0.2920  0.1394
18753TIP3    H177674   6.100   2.986  13.688 -0.2236  0.0910  0.0178
18753TIP3    H277675   5.982   2.950  13.600 -0.5585  0.3598  0.3570
18754TIP3   OH277676   0.365   6.223  12.300  0.2512 -0.4182  0.8352
18754TIP3    H177677   0.418   6.215  12.379  0.2223 -0.3012  0.8666
18754TIP3    H277678   0.380   6.141  12.253  1.9258  0.3360 -0.0563
18755TIP3   OH277679   0.940   6.339  15.726 -0.0336 -0.1613  0.0686
18755TIP3    H177680   1.009   6.313  15.787 -2.9402 -1.6041  3.0440
18755TIP3    H277681   0.933   6.434  15.736  1.3354 -0.0099 -0.1929
18756TIP3   OH277682   4.217   2.914   5.823 -0.6937 -0.7488  0.1258
18756TIP3    H177683   4.241   3.000   5.858  2.8513 -1.7374  0.4653
18756TIP3    H277684   4.132   2.895   5.863 -0.0694  1.2104  2.6262
18757TIP3   OH277685   0.758   1.889   5.751 -0.3136 -0.1545 -0.1098
18757TIP3    H177686   0.783   1.884   5.843  0.8937 -1.3994 -0.4756
18757TIP3    H277687   0.696   1.817   5.739 -0.5869  0.0996 -0.2443
18758TIP3   OH277688   2.229   6.814  13.088  0.7473 -0.6996 -0.1207
18758TIP3    H177689   2.187   6.886  13.136  0.3800 -2.2109  1.9186
18758TIP3    H277690   2.304   6.790  13.142  0.8429 -1.8830 -0.7528
18759TIP3   OH277691   4.538   2.302   5.415  0.1215 -0.6452  0.5676
18759TIP3    H177692   4.492   2.244   5.354 -0.4563 -0.2854  0.6538
18759TIP3    H277693   4.471   2.328   5.478 -0.1872  1.8096 -0.6810
18760TIP3   OH277694   5.601   0.073  15.470 -0.6135 -0.2819 -0.0229
18760TIP3    H177695   5.655   0.149  15.491  1.0922 -1.7128  1.1161
18760TIP3    H277696   5.592   0.075  15.375 -0.1678  1.0509 -0.0524
18761TIP3   OH277697   3.056   6.684   0.140  0.1556  0.1708 -0.1533
18761TIP3    H177698   3.053   6.653   0.231  0.2390  1.2118  0.2237
18761TIP3    H277699   3.144   6.662   0.111  0.8345  1.6198  0.7050
18762TIP3   OH277700   6.469   1.396   5.929  0.9581  0.3195  0.5523
18762TIP3    H177701   6.486   1.400   6.023  0.1279 -0.2074  0.7397
18762TIP3    H277702   6.500   1.309   5.903  1.2795  0.5043  0.3198
18763TIP3   OH277703   0.036   4.367   6.060  0.3332  0.1467 -0.3157
18763TIP3    H177704   0.026   4.280   6.099 -0.1613  1.0517  1.6936
18763TIP3    H277705   0.097   4.412   6.117 -0.4165  1.5514 -0.5772
18764TIP3   OH277706   0.384   4.486  16.217  0.6024  0.1511  0.2989
18764TIP3    H177707   0.372   4.580  16.201  0.7900  0.3721  1.4113
18764TIP3    H277708   0.475   4.478  16.248  0.2968 -0.2664  1.1199
18765TIP3   OH277709   5.887   0.114  14.651  0.2962  0.4299  0.0805
18765TIP3    H177710   5.825   0.069  14.592  0.5666 -1.5368  1.2133
18765TIP3    H277711   5.969   0.066  14.640  0.2906 -0.1548  2.1877
18766TIP3   OH277712   1.407   5.373  15.892 -0.0867 -0.1791  0.1333
18766TIP3    H177713   1.320   5.410  15.878 -0.0007  0.3468  0.8917
18766TIP3    H277714   1.461   5.413  15.824 -0.4329 -0.4937 -0.3267
18767TIP3   OH277715   0.124   1.766  14.925 -0.0941  0.3241 -0.3283
18767TIP3    H177716   0.191   1.697  14.921  1.0943  1.4302 -0.1559
18767TIP3    H277717   0.090   1.771  14.836 -0.0388 -0.3361 -0.3910
18768TIP3   OH277718   2.567   3.572   5.021  0.4136  0.1807  0.7858
18768TIP3    H177719   2.572   3.667   5.035 -1.2380  0.1451  1.9533
18768TIP3    H277720   2.565   3.535   5.109 -0.2598 -0.8340  0.3629
18769TIP3   OH277721   5.197   3.985   5.301 -0.3347 -0.2767 -0.3276
18769TIP3    H177722   5.174   4.062   5.352  0.1138  0.2499 -0.8993
18769TIP3    H277723   5.191   4.014   5.210 -1.5387 -1.3107 -0.6074
18770TIP3   OH277724   1.892   5.966  16.789 -0.0798 -0.0344 -0.0797
18770TIP3    H177725   1.869   5.909  16.862 -4.5980  0.3247 -0.9053
18770TIP3    H277726   1.874   5.914  16.711 -0.4138  1.2005 -0.8694
18771TIP3   OH277727   3.213   0.914   6.146  0.8053 -0.0162  0.3621
18771TIP3    H177728   3.282   0.862   6.104  1.8269  1.7731 -0.2622
18771TIP3    H277729   3.256   0.997   6.168 -1.1399  1.1475 -0.0335
18772TIP3   OH277730   2.531   2.467   5.288  0.4478  0.2939 -0.1525
18772TIP3    H177731   2.475   2.534   5.327 -0.9361 -1.9046  1.8936
18772TIP3    H277732   2.579   2.430   5.361  1.4074 -0.7719 -1.2683
18773TIP3   OH277733   3.462   1.627   1.183  0.1036 -0.3514 -0.4464
18773TIP3    H177734   3.456   1.570   1.106 -1.2466 -0.7360 -0.0801
18773TIP3    H277735   3.538   1.593   1.232  1.2513  0.1789 -1.8050
18774TIP3   OH277736   3.852   1.019  12.364 -0.2683 -0.5190  0.2533
18774TIP3    H177737   3.898   0.964  12.428  0.7435 -0.6222 -0.5440
18774TIP3    H277738   3.922   1.060  12.314 -1.0427 -1.1627 -1.4142
18775TIP3   OH277739   4.449   2.985   2.556 -0.1335 -0.6007  0.8362
18775TIP3    H177740   4.453   3.080   2.553 -0.0626 -0.6211  0.1473
18775TIP3    H277741   4.390   2.961   2.484  2.2116 -1.2202 -1.0232
18776TIP3   OH277742   5.771   3.246   5.333 -0.1651 -0.3177 -0.2943
18776TIP3    H177743   5.726   3.171   5.295 -0.0688 -0.1070 -0.8410
18776TIP3    H277744   5.759   3.316   5.269  0.1756 -0.0096 -0.0277
18777TIP3   OH277745   2.177   4.957   3.008 -0.1905 -0.0563 -0.0856
18777TIP3    H177746   2.237   4.885   3.029  1.2073  0.7896 -1.0241
18777TIP3    H277747   2.097   4.913   2.979 -0.4060 -1.2128  2.0141
18778TIP3   OH277748   2.882   3.940   0.459 -0.2023 -0.0044  0.7642
18778TIP3    H177749   2.788   3.937   0.441 -0.4252 -0.5023  1.8887
18778TIP3    H277750   2.910   4.025   0.426 -0.8893 -0.1575 -0.2713
18779TIP3   OH277751   5.345   5.761   5.724 -0.5262  0.0794  0.5843
18779TIP3    H177752   5.430   5.756   5.767 -0.3162 -0.3604  0.1398
18779TIP3    H277753   5.291   5.816   5.780 -0.0609  0.0420  1.0649
18780TIP3   OH277754   6.740   3.252   0.207 -0.1853  0.3164 -0.3118
18780TIP3    H177755   6.648   3.232   0.195 -0.0182 -0.9257  0.3181
18780TIP3    H277756   6.774   3.179   0.259  2.1516 -1.6934 -4.2094
18781TIP3   OH277757   3.255   0.226  11.286 -0.3928  0.5028 -0.5066
18781TIP3    H177758   3.315   0.232  11.212 -0.4739 -0.1391 -0.6251
18781TIP3    H277759   3.292   0.158  11.342  0.0298  1.4361  0.3799
18782TIP3   OH277760   2.385   3.817  16.202  0.0996 -0.1736  0.2674
18782TIP3    H177761   2.410   3.749  16.265 -0.2005 -0.8813 -0.3626
18782TIP3    H277762   2.448   3.888  16.217  0.0568 -0.3434  1.3323
18783TIP3   OH277763   6.617   5.433   3.317  0.1975  0.2575 -0.0530
18783TIP3    H177764   6.604   5.360   3.257 -1.8702 -1.6495  2.4644
18783TIP3    H277765   6.618   5.510   3.261  2.0729 -1.5667 -2.8151
18784TIP3   OH277766   5.019   6.387   3.222  0.5281  0.0959  0.0498
18784TIP3    H177767   4.996   6.426   3.307 -0.6953  0.9645 -0.6411
18784TIP3    H277768   5.087   6.445   3.188  0.6605  0.0370  0.2098
18785TIP3   OH277769   2.029   3.522   0.225  0.4556  0.5729  0.2508
18785TIP3    H177770   2.084   3.549   0.299 -1.3835  1.0316  1.5102
18785TIP3    H277771   2.036   3.595   0.163  1.6516  0.3951  0.1544
18786TIP3   OH277772   3.370   1.364  15.348  0.1397 -0.5322  0.2691
18786TIP3    H177773   3.451   1.316  15.367  1.3091  1.0488 -0.5529
18786TIP3    H277774   3.397   1.455  15.338 -1.7643  0.0586  0.0396
18787TIP3   OH277775   5.605   1.614   1.113 -0.8836  0.5013 -0.3112
18787TIP3    H177776   5.669   1.632   1.182 -2.2413  1.9830  0.6380
18787TIP3    H277777   5.646   1.647   1.033  1.3062 -2.5017 -0.5748
18788TIP3   OH277778   3.242   4.984   1.419 -0.6327 -0.5206  0.0691
18788TIP3    H177779   3.183   4.931   1.473 -1.7898  0.2428 -0.4210
18788TIP3    H277780   3.330   4.959   1.449 -1.1975 -1.4069  1.0698
18789TIP3   OH277781   1.146   2.105  12.529  0.1839 -0.3330 -0.8191
18789TIP3    H177782   1.086   2.176  12.550 -1.2664 -2.0568  1.3675
18789TIP3    H277783   1.208   2.102  12.601 -1.6920 -3.1062  0.8934
18790TIP3   OH277784   3.342   6.196  13.365  0.2829  0.0884 -0.2352
18790TIP3    H177785   3.406   6.235  13.306 -1.0635 -0.7626 -2.3491
18790TIP3    H277786   3.381   6.113  13.391  0.7330  0.3112 -0.1909
18791TIP3   OH277787   1.737   3.288  10.768  0.2981 -0.1538  0.1350
18791TIP3    H177788   1.653   3.275  10.812  0.6006 -0.4671  0.6291
18791TIP3    H277789   1.759   3.380  10.786  0.0806 -0.0816  0.0353
18792TIP3   OH277790   2.746   4.484  12.692 -0.3398 -0.3164 -0.6056
18792TIP3    H177791   2.746   4.432  12.772  0.2358 -0.9837 -1.0274
18792TIP3    H277792   2.815   4.548  12.705 -1.6039  0.9213  0.2614
18793TIP3   OH277793   4.936   0.507  12.693 -0.6417 -0.4473  0.3229
18793TIP3    H177794   4.867   0.443  12.710  1.0787 -2.2683  0.7379
18793TIP3    H277795   5.018   0.460  12.708  0.7531  1.3195 -1.2263
18794TIP3   OH277796   6.407   4.117  15.701 -0.7258  0.0773 -0.2435
18794TIP3    H177797   6.371   4.037  15.740 -0.7382  0.2065  0.0116
18794TIP3    H277798   6.368   4.188  15.752  0.2374  0.2137  0.3378
18795TIP3   OH277799   0.676   4.718   5.393 -0.6807 -0.2014 -0.3587
18795TIP3    H177800   0.753   4.667   5.417 -1.4016 -0.6050  1.2865
18795TIP3    H277801   0.700   4.809   5.414 -0.0001 -0.0538 -1.6828
18796TIP3   OH277802   6.637   6.535  10.914  0.1072  0.0931  0.2124
18796TIP3    H177803   6.628   6.629  10.930  1.5973  0.3991 -0.5789
18796TIP3    H277804   6.639   6.495  11.001  1.9033  1.0640  0.6495
18797TIP3   OH277805   0.276   6.232   3.007  0.1503 -0.0501 -0.0407
18797TIP3    H177806   0.332   6.267   3.076  2.9883 -1.9585 -1.1963
18797TIP3    H277807   0.196   6.285   3.012  1.0952  1.3272  3.1951
18798TIP3   OH277808   6.571   0.029  14.301  0.0390  0.4857  0.5541
18798TIP3    H177809   6.484   0.047  14.336 -0.8467 -3.0893  0.5127
18798TIP3    H277810   6.629   0.032  14.377 -0.0429  2.7712  0.5966
18799TIP3   OH277811   6.261   2.644  15.379 -0.3233  0.2546  0.1714
18799TIP3    H177812   6.267   2.719  15.438 -1.1167  1.7436 -1.5518
18799TIP3    H277813   6.338   2.651  15.322  0.8774 -1.6247  1.4586
18800TIP3   OH277814   4.260   0.479   3.708 -0.6166  0.4872 -0.3743
18800TIP3    H177815   4.263   0.574   3.715 -0.9433  0.3879  2.6486
18800TIP3    H277816   4.187   0.461   3.648  0.1699  2.0945 -1.8886
18801TIP3   OH277817   6.321   2.207   6.039  0.3847  0.1441 -0.2684
18801TIP3    H177818   6.250   2.148   6.062  1.0108 -0.4175  0.2322
18801TIP3    H277819   6.316   2.278   6.103  1.0739 -0.5611  0.5978
18802TIP3   OH277820   0.485   2.935   3.479  0.2726  0.6541 -0.3825
18802TIP3    H177821   0.479   3.029   3.461  0.0763  0.7718  0.2785
18802TIP3    H277822   0.538   2.928   3.558  0.9920  0.1495 -0.8996
18803TIP3   OH277823   6.297   0.205  15.808 -0.9706 -0.7210 -0.7917
18803TIP3    H177824   6.323   0.113  15.805  1.0699 -0.3191  1.5803
18803TIP3    H277825   6.266   0.223  15.719  0.8357 -3.0622 -2.0292
18804TIP3   OH277826   4.375   3.437  11.081  0.0052  0.1150 -0.1688
18804TIP3    H177827   4.309   3.380  11.040 -1.5814  0.6769  1.4585
18804TIP3    H277828   4.444   3.377  11.110 -1.2247 -0.9089  0.7367
18805TIP3   OH277829   4.346   3.470   5.644  0.1967  0.1294  0.1811
18805TIP3    H177830   4.405   3.416   5.697  0.1428  0.5709  0.7093
18805TIP3    H277831   4.298   3.408   5.589 -0.2534 -0.4229  1.1671
18806TIP3   OH277832   5.348   0.641  11.727 -0.2742  0.4927  0.4708
18806TIP3    H177833   5.322   0.585  11.801  0.6261  1.0965  1.2674
18806TIP3    H277834   5.390   0.581  11.665  0.7646  0.2717  1.3520
18807TIP3   OH277835   2.871   1.338  12.959 -0.4274 -0.4762  0.1634
18807TIP3    H177836   2.882   1.295  13.044 -1.6706  0.2020  0.7006
18807TIP3    H277837   2.833   1.423  12.980 -0.3220 -0.1111 -1.0493
18808TIP3   OH277838   1.318   2.058   2.508 -0.6093  0.0072  0.5308
18808TIP3    H177839   1.291   2.028   2.595 -0.6247 -0.2529  0.4390
18808TIP3    H277840   1.368   2.138   2.525 -0.0465 -0.3957  0.8375
18809TIP3   OH277841   6.782   6.546   0.766 -0.0027  0.2775 -0.0266
18809TIP3    H177842   6.845   6.502   0.824 -1.1911 -0.4155  0.7693
18809TIP3    H277843   6.787   6.638   0.792 -0.1883  0.0433  0.8799
18810TIP3   OH277844   5.866   6.105  14.732 -0.3012  0.2341 -0.3758
18810TIP3    H177845   5.774   6.080  14.721 -0.5171  1.0675 -0.5406
18810TIP3    H277846   5.862   6.198  14.756  0.4536  0.0133  0.6332
18811TIP3   OH277847   2.555   1.016   2.784  0.0921  0.8806  0.0354
18811TIP3    H177848   2.477   0.964   2.804  0.9621 -0.6508 -0.3820
18811TIP3    H277849   2.558   1.082   2.852 -1.2948  0.6553  0.3435
18812TIP3   OH277850   1.278   1.359  16.788  0.6731 -0.1802  0.4288
18812TIP3    H177851   1.241   1.327  16.870  1.2815 -1.0209  0.3843
18812TIP3    H277852   1.372   1.361  16.803  0.7313  0.4647  0.0250
18813TIP3   OH277853   5.198   5.408  12.904 -0.2214 -0.3590 -0.1923
18813TIP3    H177854   5.169   5.446  12.987 -1.1844  0.4784 -0.8820
18813TIP3    H277855   5.134   5.340  12.885 -1.4532  1.0399 -1.3820
18814TIP3   OH277856   6.718   4.913  15.733 -0.2612 -0.0864 -0.2257
18814TIP3    H177857   6.636   4.877  15.698  0.0542 -1.5889  0.5005
18814TIP3    H277858   6.779   4.909  15.659 -0.2643 -0.9612 -0.1887
18815TIP3   OH277859   5.456   2.211   0.516 -0.1681  0.0880 -0.3555
18815TIP3    H177860   5.532   2.222   0.573 -0.3871 -1.6072  0.3084
18815TIP3    H277861   5.397   2.281   0.542  0.7279  0.8088 -0.1890
18816TIP3   OH277862   3.815   3.295  16.319  0.0831  0.0204 -0.0088
18816TIP3    H177863   3.792   3.349  16.395  1.2127  0.6164 -0.0663
18816TIP3    H277864   3.880   3.233  16.352  1.5839  1.1466 -0.7553
18817TIP3   OH277865   4.684   6.522   4.841  0.3503 -0.2579  0.0531
18817TIP3    H177866   4.761   6.491   4.888 -0.4213 -0.1701  1.4324
18817TIP3    H277867   4.624   6.447   4.841 -0.5493  0.4109  1.2638
18818TIP3   OH277868   1.064   3.172  15.593 -0.2469 -0.4618  0.6485
18818TIP3    H177869   0.972   3.156  15.572 -0.7056  1.5967  0.9063
18818TIP3    H277870   1.062   3.229  15.670  1.2892 -1.6130  1.5882
18819TIP3   OH277871   5.149   5.844   6.099 -0.0647  0.1205 -0.1884
18819TIP3    H177872   5.233   5.887   6.085  0.2164 -0.2642  0.3002
18819TIP3    H277873   5.145   5.776   6.031 -0.3245  0.6327 -0.6959
18820TIP3   OH277874   6.774   0.878   4.283 -0.1276 -0.3599  0.0388
18820TIP3    H177875   6.798   0.790   4.255  1.2711  0.0442 -0.0810
18820TIP3    H277876   6.788   0.932   4.206  2.7570  0.5941  1.1294
18821TIP3   OH277877   4.048   1.210   6.212  0.4104 -0.2382 -0.6487
18821TIP3    H177878   3.975   1.231   6.271  1.3050  0.1695  0.3469
18821TIP3    H277879   4.015   1.232   6.125 -1.3892 -1.9954 -0.4958
18822TIP3   OH277880   3.638   1.739  16.404 -0.7233 -0.2450 -0.2318
18822TIP3    H177881   3.628   1.646  16.380  2.1414 -1.1769  1.6508
18822TIP3    H277882   3.674   1.737  16.492 -3.7125  2.8326  1.2733
18823TIP3   OH277883   5.944   4.517   5.662  0.2136 -0.3723  0.1361
18823TIP3    H177884   6.028   4.476   5.682  0.1876 -0.2333  0.5337
18823TIP3    H277885   5.967   4.603   5.627  0.3094 -1.0482 -1.5815
18824TIP3   OH277886   4.838   2.263   3.150  0.2149  0.1523 -0.2439
18824TIP3    H177887   4.766   2.204   3.131 -0.5296  1.5273 -1.9371
18824TIP3    H277888   4.909   2.206   3.182 -0.8268 -1.4806 -0.7533
18825TIP3   OH277889   4.129   4.118  15.034 -0.3168 -0.4702 -0.5147
18825TIP3    H177890   4.129   4.207  14.999  1.9572 -0.3204 -0.3326
18825TIP3    H277891   4.037   4.093  15.037 -0.8483  0.7323 -3.4306
18826TIP3   OH277892   1.023   2.616   1.011 -0.2502  0.0954 -0.1495
18826TIP3    H177893   1.070   2.667   1.077  0.5188 -0.2815 -0.3901
18826TIP3    H277894   1.003   2.534   1.055 -1.3964  0.5518  0.2044
18827TIP3   OH277895   4.508   1.466  16.553  0.2408  0.3904 -0.4447
18827TIP3    H177896   4.566   1.395  16.528  1.3015  1.2474 -0.4903
18827TIP3    H277897   4.527   1.535  16.489 -1.4743  0.3747 -1.0198
18828TIP3   OH277898   5.538   4.847  11.048  0.1590 -0.2894  0.3082
18828TIP3    H177899   5.458   4.895  11.070 -0.9028 -1.0846 -1.6439
18828TIP3    H277900   5.596   4.914  11.012  0.1783  0.1995  1.2256
18829TIP3   OH277901   6.347   6.649   0.888  0.3746  0.2165  0.3769
18829TIP3    H177902   6.340   6.576   0.948  0.9723 -1.9365 -1.9900
18829TIP3    H277903   6.259   6.687   0.886  0.0579 -0.4097  1.6776
18830TIP3   OH277904   0.217   3.306   3.130  0.1912 -0.3838 -0.3219
18830TIP3    H177905   0.167   3.344   3.203 -0.1850 -1.9247  0.2530
18830TIP3    H277906   0.234   3.380   3.072 -0.3863  0.6882  0.8316
18831TIP3   OH277907   5.877   3.966   0.120 -0.3258 -0.5057  0.2784
18831TIP3    H177908   5.895   4.056   0.090  0.4342 -0.7720 -0.1074
18831TIP3    H277909   5.863   3.917   0.039  2.2702 -1.3435  0.2503
18832TIP3   OH277910   1.488   0.935  13.483 -0.2365  0.7122 -0.0094
18832TIP3    H177911   1.540   1.014  13.499 -0.0050  0.2615  1.6316
18832TIP3    H277912   1.553   0.865  13.476 -0.5641  0.3125  0.9275
18833TIP3   OH277913   0.795   4.457  11.464  0.6347 -0.3674 -0.2346
18833TIP3    H177914   0.724   4.478  11.403  0.2920  2.0319  0.8916
18833TIP3    H277915   0.847   4.537  11.469  1.2753 -0.8561  1.7979
18834TIP3   OH277916   5.987   1.074  13.760 -0.0553 -0.1285 -0.1953
18834TIP3    H177917   6.077   1.075  13.730  0.4063  0.1031  1.1027
18834TIP3    H277918   5.984   1.139  13.830 -1.6417  1.0714 -1.2935
18835TIP3   OH277919   0.269   4.484   0.121  0.2034 -0.1757  0.2162
18835TIP3    H177920   0.255   4.502   0.028 -1.5822  1.8155  0.8016
18835TIP3    H277921   0.361   4.460   0.127  0.8440  1.5102 -1.8084
18836TIP3   OH277922   1.213   1.608   3.918 -1.0153 -0.2769  0.0654
18836TIP3    H177923   1.156   1.682   3.939 -0.4881  0.3022 -0.5209
18836TIP3    H277924   1.240   1.574   4.004 -1.0464  0.3832  0.3428
18837TIP3   OH277925   1.137   4.382   0.339 -0.6047  0.0316  0.0956
18837TIP3    H177926   1.220   4.378   0.292 -0.9904 -0.8453 -0.5422
18837TIP3    H277927   1.100   4.467   0.316 -0.7576 -0.3526 -1.1663
18838TIP3   OH277928   1.083   1.833   3.999 -0.2041 -0.1105  0.4709
18838TIP3    H177929   1.025   1.808   4.070 -1.5391 -2.2728 -1.2428
18838TIP3    H277930   1.035   1.900   3.951  0.0702  0.2989  0.7585
18839TIP3   OH277931   2.499   0.314   4.467  0.2353  0.3139 -0.0959
18839TIP3    H177932   2.420   0.310   4.414 -0.9997  1.6973  1.5113
18839TIP3    H277933   2.571   0.318   4.404 -1.1211  1.3719 -1.6408
18840TIP3   OH277934   2.854   5.666   2.169  0.1134  0.5035 -0.0992
18840TIP3    H177935   2.864   5.574   2.192  3.4359  0.1602 -2.2003
18840TIP3    H277936   2.787   5.666   2.101  0.2636 -0.4169 -0.2648
18841TIP3   OH277937   4.455   4.683   3.964  0.1726 -0.0675  0.7581
18841TIP3    H177938   4.447   4.708   4.056 -0.6865 -0.2217  0.7358
18841TIP3    H277939   4.549   4.683   3.947  0.4850 -1.8349  2.1550
18842TIP3   OH277940   5.472   0.124  12.064  0.3600 -0.0143  0.2564
18842TIP3    H177941   5.516   0.179  12.000 -0.2617 -0.1194 -0.2667
18842TIP3    H277942   5.380   0.127  12.039  0.3808 -1.7296 -0.1103
18843TIP3   OH277943   6.543   3.308  12.238  0.1330 -0.4810  0.3563
18843TIP3    H177944   6.576   3.221  12.214 -0.0620 -0.5760  0.4343
18843TIP3    H277945   6.489   3.334  12.164 -0.3945 -0.7346  0.6467
18844TIP3   OH277946   0.591   2.251   2.964 -0.3318 -0.4739 -0.2713
18844TIP3    H177947   0.541   2.177   2.999 -0.1585  0.0861  1.2620
18844TIP3    H277948   0.528   2.301   2.913 -1.7124  0.7630  2.4228
18845TIP3   OH277949   6.693   1.735  15.272  0.1626  0.1571 -0.5107
18845TIP3    H177950   6.770   1.790  15.258 -0.1652  0.5207 -0.9435
18845TIP3    H277951   6.619   1.791  15.245 -0.2017 -0.3826 -0.6498
18846TIP3   OH277952   0.846   3.686   5.617  0.1228  0.2599 -0.3654
18846TIP3    H177953   0.915   3.748   5.592  1.5892 -1.2849 -0.3618
18846TIP3    H277954   0.880   3.600   5.590 -1.2406 -0.7056  0.8143
18847TIP3   OH277955   4.902   3.954   0.530 -0.4108 -0.0549  0.6253
18847TIP3    H177956   4.944   3.991   0.451  0.6666 -0.8067  0.8267
18847TIP3    H277957   4.954   3.988   0.602 -0.4641 -0.5967  0.9184
18848TIP3   OH277958   3.296   3.363   0.541  0.0349  0.8185 -0.2453
18848TIP3    H177959   3.303   3.393   0.450  0.7047  0.4169 -0.3285
18848TIP3    H277960   3.251   3.279   0.535  2.1507 -0.3827 -0.4656
18849TIP3   OH277961   6.121   5.883  12.222  0.7213 -0.2365  0.3910
18849TIP3    H177962   6.155   5.972  12.223  0.9122 -0.3065  1.7127
18849TIP3    H277963   6.165   5.841  12.148 -0.5351  1.1783 -1.2415
18850TIP3   OH277964   5.764   0.031   4.671 -0.4279 -0.1232  0.6520
18850TIP3    H177965   5.810  -0.045   4.707 -2.6392 -1.0388  1.6888
18850TIP3    H277966   5.707  -0.005   4.603 -0.6482  0.7842  0.3339
18851TIP3   OH277967   6.608   0.502   4.417  0.2890  0.1142  0.4295
18851TIP3    H177968   6.588   0.594   4.398 -0.3237 -0.3578 -1.4539
18851TIP3    H277969   6.610   0.497   4.512 -0.1698  1.9755  0.5751
18852TIP3   OH277970   2.706   4.314   0.639 -0.4794  0.5432  0.1299
18852TIP3    H177971   2.663   4.247   0.586  0.3324  0.1016  0.0126
18852TIP3    H277972   2.781   4.269   0.678  0.2001  1.4311 -0.1245
18853TIP3   OH277973   5.375   2.572   3.269 -0.0381 -0.4449  0.2597
18853TIP3    H177974   5.402   2.562   3.360 -0.3096  1.0075  0.5275
18853TIP3    H277975   5.280   2.580   3.274  0.0214  0.5380 -0.0512
18854TIP3   OH277976   5.061   1.818   0.184 -0.4778 -0.6242 -0.2549
18854TIP3    H177977   5.078   1.892   0.126 -1.3863 -1.0408 -1.0913
18854TIP3    H277978   5.095   1.845   0.269  0.5739  0.1447 -0.8962
18855TIP3   OH277979   0.724   1.978   2.548 -0.0011  0.4829 -0.4527
18855TIP3    H177980   0.720   2.070   2.520 -0.2095  0.2756 -1.1362
18855TIP3    H277981   0.648   1.937   2.506 -0.1697  0.0913  0.2153
18856TIP3   OH277982   6.016   0.571  13.335 -0.0064  0.7770  1.0758
18856TIP3    H177983   6.069   0.542  13.261 -3.4105  1.7044 -1.9899
18856TIP3    H277984   6.052   0.656  13.359  0.4125  1.0265 -0.3673
18857TIP3   OH277985   1.638   3.318   5.198  0.3853 -0.1890  0.5563
18857TIP3    H177986   1.689   3.363   5.130 -0.8217 -0.4475 -0.5682
18857TIP3    H277987   1.547   3.339   5.176 -0.0583 -0.8853  1.6780
18858TIP3   OH277988   4.984   6.041  16.834 -0.0823  0.1622  0.0209
18858TIP3    H177989   4.944   5.975  16.777 -0.7999  0.6976 -0.1075
18858TIP3    H277990   5.075   6.044  16.805 -0.3438  0.1482 -0.8515
18859TIP3   OH277991   3.826   5.094  14.930  0.2705 -0.6078 -0.0596
18859TIP3    H177992   3.824   5.101  14.834  0.4908 -2.9281 -0.2999
18859TIP3    H277993   3.748   5.043  14.952  0.1399  0.0364  1.0307
18860TIP3   OH277994   6.041   6.136  14.030  0.1098 -0.3255 -0.2212
18860TIP3    H177995   6.011   6.203  14.091  1.7918  0.3788 -0.0950
18860TIP3    H277996   6.069   6.064  14.085  0.6902 -0.0887 -0.1954
18861TIP3   OH277997   3.082   5.561   4.446 -0.0651 -0.2102 -0.0898
18861TIP3    H177998   3.151   5.601   4.394  1.4091 -1.1488  1.0832
18861TIP3    H277999   3.036   5.635   4.486  1.5769  0.3792  0.7549
18862TIP3   OH278000   2.567   5.990  11.587 -0.2886  0.2995 -0.3069
18862TIP3    H178001   2.489   5.956  11.543 -0.0974 -0.7377  0.1273
18862TIP3    H278002   2.551   6.084  11.593 -1.2398  0.1856 -0.7540
18863TIP3   OH278003   6.199   4.947   4.700 -0.3306 -0.3123  0.0452
18863TIP3    H178004   6.107   4.941   4.674 -0.6483 -1.6185  1.2857
18863TIP3    H278005   6.212   4.870   4.756  2.0798 -1.3579 -1.7560
18864TIP3   OH278006   5.498   2.501  14.157  0.3969  0.0561 -0.0588
18864TIP3    H178007   5.408   2.469  14.156  0.2407  0.4668  0.5522
18864TIP3    H278008   5.495   2.584  14.108  0.4371  0.0870 -0.0090
18865TIP3   OH278009   3.035   4.044  14.079 -0.0699  0.1971  0.9640
18865TIP3    H178010   2.990   4.123  14.111 -0.7356 -0.6659  2.2420
18865TIP3    H278011   2.978   3.972  14.106  0.1938 -0.7001 -0.7897
18866TIP3   OH278012   4.665   2.857   3.642  0.5487  0.2677 -0.6300
18866TIP3    H178013   4.668   2.951   3.623 -3.1002  0.9042  1.1101
18866TIP3    H278014   4.572   2.835   3.640  0.9810 -2.5374  2.4366
18867TIP3   OH278015   5.676   1.866   3.735 -0.9215  0.1348 -0.2178
18867TIP3    H178016   5.671   1.828   3.647  0.3675  0.0167 -0.2680
18867TIP3    H278017   5.650   1.795   3.793  1.6442 -1.0165 -0.2959
18868TIP3   OH278018   4.476   5.720  16.766  0.0491 -0.3636 -0.0882
18868TIP3    H178019   4.459   5.710  16.673  0.3903 -0.6253 -0.1258
18868TIP3    H278020   4.416   5.658  16.808  0.1001 -0.4568 -0.1519
18869TIP3   OH278021   1.266   6.797  16.437 -0.8570 -0.2009  0.1372
18869TIP3    H178022   1.331   6.868  16.441 -0.5334 -0.3082 -1.8964
18869TIP3    H278023   1.317   6.719  16.414 -1.5654 -0.4816 -0.5433
18870TIP3   OH278024   3.574   6.301  11.307 -0.0181  0.6750 -0.3532
18870TIP3    H178025   3.608   6.303  11.218 -1.5462  2.5793 -0.9650
18870TIP3    H278026   3.633   6.357  11.357  0.3862  0.2389 -0.3377
18871TIP3   OH278027   3.226   2.188  13.846  0.1970  0.3983  0.5042
18871TIP3    H178028   3.160   2.125  13.816  1.0555  0.7402 -2.3168
18871TIP3    H278029   3.177   2.248  13.903 -1.8979  0.4356 -1.2085
18872TIP3   OH278030   1.850   1.368   0.278  0.7895  0.2067  0.8245
18872TIP3    H178031   1.824   1.307   0.209 -0.6065 -0.9387  2.2762
18872TIP3    H278032   1.834   1.455   0.241  1.4852 -0.3003 -0.7816
18873TIP3   OH278033   1.581   3.897   4.179 -0.7757 -0.3127  0.0853
18873TIP3    H178034   1.505   3.956   4.174 -1.8438 -1.6860 -0.4756
18873TIP3    H278035   1.630   3.914   4.099 -0.0205  1.1515  0.8232
18874TIP3   OH278036   5.587   3.674   4.610  0.2752 -0.4206 -0.0193
18874TIP3    H178037   5.633   3.713   4.685  0.4475  0.9001 -0.7889
18874TIP3    H278038   5.654   3.666   4.542 -0.2873  0.1154 -0.6469
18875TIP3   OH278039   6.692   2.339  17.070 -0.6023  0.1441 -0.6608
18875TIP3    H178040   6.784   2.315  17.060 -0.7243 -0.2358 -0.8669
18875TIP3    H278041   6.651   2.314  16.987 -1.3417 -1.7340  0.2261
18876TIP3   OH278042   4.345   5.739  13.657  0.4697  0.3404  0.9434
18876TIP3    H178043   4.280   5.805  13.632 -0.8398 -0.4497  2.0983
18876TIP3    H278044   4.390   5.778  13.732  1.0824  0.7229  0.3895
18877TIP3   OH278045   0.701   1.024   1.428 -0.0903  0.4182 -0.0716
18877TIP3    H178046   0.689   0.995   1.519  2.2617 -0.9953 -0.1389
18877TIP3    H278047   0.752   1.105   1.436 -0.1935  0.4896 -0.1343
18878TIP3   OH278048   3.729   4.928   1.481  0.5604  0.1507  0.0297
18878TIP3    H178049   3.761   4.858   1.425 -0.5765 -0.6156  0.3029
18878TIP3    H278050   3.793   4.933   1.552  0.2434 -1.1974  0.4480
18879TIP3   OH278051   2.793   0.822  11.643 -0.6913 -0.2364 -0.0539
18879TIP3    H178052   2.767   0.779  11.562  0.1828 -0.3170 -0.2987
18879TIP3    H278053   2.720   0.804  11.703 -2.1528  1.2215 -1.2729
18880TIP3   OH278054   6.216   1.183   2.041 -0.4635 -0.0783  0.3753
18880TIP3    H178055   6.238   1.092   2.023 -3.6592 -0.9447  0.2581
18880TIP3    H278056   6.136   1.199   1.990 -0.0520  2.7903  0.4455
18881TIP3   OH278057   6.439   3.754  16.968  0.1241  0.1341 -0.2386
18881TIP3    H178058   6.415   3.831  16.916  1.6645  0.7130 -0.1458
18881TIP3    H278059   6.443   3.786  17.058 -0.8520 -0.4684  0.0330
18882TIP3   OH278060   0.528   6.490   0.624 -0.3670  0.4192 -0.3873
18882TIP3    H178061   0.461   6.473   0.559 -0.5844 -0.2345  0.0069
18882TIP3    H278062   0.559   6.404   0.652 -0.7991  0.6601  0.9117
18883TIP3   OH278063   2.286   1.447  15.331 -0.0582  0.0997 -0.4707
18883TIP3    H178064   2.203   1.471  15.290 -0.9385  0.0907  1.2174
18883TIP3    H278065   2.325   1.530  15.356 -1.2831  0.0543  1.8990
18884TIP3   OH278066   4.789   5.125  16.817 -0.1044  0.2793  0.2146
18884TIP3    H178067   4.735   5.082  16.884  0.0983  0.6556  0.6322
18884TIP3    H278068   4.732   5.131  16.740 -0.0256 -1.0342  0.0290
18885TIP3   OH278069   2.458   2.036   1.121  0.6448 -0.2714  0.2502
18885TIP3    H178070   2.423   1.983   1.050 -1.7914 -0.3754  1.4225
18885TIP3    H278071   2.451   2.126   1.089 -0.7661 -0.2918  0.4472
18886TIP3   OH278072   3.679   3.473   2.544  0.2422  0.1648 -0.3538
18886TIP3    H178073   3.689   3.441   2.634 -1.3100 -0.1437 -0.2548
18886TIP3    H278074   3.751   3.434   2.496  0.2718 -0.8298  0.4707
18887TIP3   OH278075   1.803   3.357   3.006  0.6517  0.1983  0.1841
18887TIP3    H178076   1.729   3.418   3.001  0.5453 -0.0355 -1.8857
18887TIP3    H278077   1.776   3.294   3.073 -1.3146 -0.2114 -0.8999
18888TIP3   OH278078   4.535   3.820  13.547  0.5967  0.1357  0.1096
18888TIP3    H178079   4.473   3.884  13.581  0.2027 -0.0847 -0.1854
18888TIP3    H278080   4.559   3.768  13.624  1.4769  1.0830  0.4940
18889TIP3   OH278081   1.244   2.519  14.885 -0.0235  0.1283  0.4105
18889TIP3    H178082   1.318   2.574  14.908 -0.1016  0.9163 -1.1344
18889TIP3    H278083   1.279   2.430  14.886  0.8148  0.4512  0.1900
18890TIP3   OH278084   3.939   4.354  15.669  0.4743 -0.1159 -0.0234
18890TIP3    H178085   3.912   4.431  15.618 -1.0321  0.1840  1.1464
18890TIP3    H278086   4.008   4.386  15.727  1.3923 -0.1945 -1.0329
18891TIP3   OH278087   3.981   1.858  16.751 -0.3305  0.9242 -0.2791
18891TIP3    H178088   4.035   1.929  16.786 -1.2938  1.3133  0.4770
18891TIP3    H278089   3.892   1.882  16.777 -0.5804 -1.0792  0.9182
18892TIP3   OH278090   5.341   5.547  16.937  0.1307 -0.2148  0.3666
18892TIP3    H178091   5.327   5.452  16.934  0.3149 -0.2378  0.1678
18892TIP3    H278092   5.276   5.583  16.878  0.7035 -0.2978 -0.3236
18893TIP3   OH278093   5.317   6.405  16.543 -0.3861  0.2413  0.3439
18893TIP3    H178094   5.318   6.501  16.546 -0.6937  0.2410  0.5165
18893TIP3    H278095   5.233   6.384  16.501 -0.5977  0.0336  0.8673
18894TIP3   OH278096   2.082   1.235  11.869  0.2536 -0.0095 -0.3213
18894TIP3    H178097   2.051   1.303  11.928 -1.3603 -0.5770 -0.4771
18894TIP3    H278098   2.093   1.158  11.925  0.5447 -0.0589 -0.4409
18895TIP3   OH278099   2.695   0.831   0.359  0.7306 -0.4528  0.5929
18895TIP3    H178100   2.744   0.832   0.277  0.9492  0.0320  0.7268
18895TIP3    H278101   2.742   0.767   0.414  1.1794 -0.0434  0.6947
18896TIP3   OH278102   2.977   1.637   0.788  0.6934  0.9060 -0.3469
18896TIP3    H178103   2.992   1.590   0.706  2.0535 -1.0389  0.9399
18896TIP3    H278104   3.058   1.685   0.803  0.4316  1.2872 -0.1282
18897TIP3   OH278105   6.450   5.748   0.463  0.1248 -0.3097  0.0331
18897TIP3    H178106   6.413   5.679   0.408 -0.9510  0.7311 -0.6061
18897TIP3    H278107   6.415   5.730   0.550  0.0397 -0.7073 -0.0802
18898TIP3   OH278108   3.573   6.654   2.850 -0.2211 -1.1593 -0.1055
18898TIP3    H178109   3.633   6.604   2.794  0.3430  0.8472 -1.4142
18898TIP3    H278110   3.628   6.687   2.921 -0.4623 -1.8183  0.4038
18899TIP3   OH278111   1.634   6.627  12.304  0.4447 -0.1611  0.1274
18899TIP3    H178112   1.574   6.586  12.366  0.0783 -0.5379 -0.4720
18899TIP3    H278113   1.615   6.721  12.311  0.2651 -0.2203  0.4388
18900TIP3   OH278114   1.070   0.367   3.193 -0.0778  0.0662 -0.0059
18900TIP3    H178115   1.057   0.272   3.186 -1.3039  0.2610 -0.6359
18900TIP3    H278116   1.128   0.378   3.268 -1.5913 -1.0718  1.3905
18901TIP3   OH278117   3.364   5.825   3.274  0.3050 -0.0836  0.5267
18901TIP3    H178118   3.304   5.753   3.292  0.6107 -0.5658 -0.3411
18901TIP3    H278119   3.307   5.899   3.253 -0.0344 -0.7896 -1.2742
18902TIP3   OH278120   1.605   4.706   5.865 -0.3788  0.1060  0.2604
18902TIP3    H178121   1.662   4.658   5.924 -0.7234  0.8131  1.1925
18902TIP3    H278122   1.629   4.798   5.878  1.9820  0.1872 -3.2403
18903TIP3   OH278123   0.721   1.918   1.287  0.7678 -0.2256  0.5094
18903TIP3    H178124   0.645   1.866   1.313 -0.0253 -0.2858 -1.7161
18903TIP3    H278125   0.780   1.855   1.245  1.1919  0.1446  0.5447
18904TIP3   OH278126   6.135   4.757   1.717 -0.1261  0.3911 -0.0136
18904TIP3    H178127   6.188   4.829   1.683  1.1635 -0.1525  0.7683
18904TIP3    H278128   6.063   4.801   1.763  0.7592  1.2177  0.6415
18905TIP3   OH278129   6.816   4.398  16.020  0.2714 -0.7800  1.0314
18905TIP3    H178130   6.733   4.351  16.027 -0.3928  0.2888  0.4769
18905TIP3    H278131   6.798   4.471  15.961  2.2787 -1.9914 -1.2700
18906TIP3   OH278132   5.494   3.423  12.828 -0.6365  0.8698  0.3250
18906TIP3    H178133   5.547   3.343  12.829 -2.2286 -0.2322  0.4717
18906TIP3    H278134   5.550   3.489  12.787  0.3621 -0.5783 -0.7362
18907TIP3   OH278135   3.459   2.412  15.819 -0.2032 -0.2135 -0.2764
18907TIP3    H178136   3.389   2.459  15.865 -0.0988  0.3554 -0.6899
18907TIP3    H278137   3.437   2.319  15.831 -1.2141 -0.0369 -0.6816
18908TIP3   OH278138   3.408   1.732  14.175 -0.3497 -0.1421  0.9632
18908TIP3    H178139   3.476   1.665  14.166  1.7585  1.8279  1.3376
18908TIP3    H278140   3.400   1.770  14.087 -0.1637  0.3419  1.1505
18909TIP3   OH278141   3.008   3.054  13.419 -0.1566 -0.0775 -0.9768
18909TIP3    H178142   3.058   2.987  13.467  0.6599  3.3412  3.6412
18909TIP3    H278143   3.075   3.105  13.373 -0.1775  0.2215 -0.6864
18910TIP3   OH278144   3.790   3.270  12.870 -0.1207  0.1347  0.3806
18910TIP3    H178145   3.809   3.293  12.779 -0.5442  0.2482  0.3190
18910TIP3    H278146   3.867   3.220  12.899  1.2345  2.3294  0.7958
18911TIP3   OH278147   2.265   0.567  15.401 -0.1337  0.1624  0.3370
18911TIP3    H178148   2.257   0.472  15.413 -0.5625  0.1426 -0.1042
18911TIP3    H278149   2.211   0.605  15.471 -1.0086  0.0649 -0.2718
18912TIP3   OH278150   4.690   4.831  12.267  0.2719  0.4862  0.3842
18912TIP3    H178151   4.608   4.793  12.296 -0.9218  2.4394 -0.2315
18912TIP3    H278152   4.739   4.846  12.348  0.1843 -0.9357  0.7353
18913TIP3   OH278153   5.153   4.344   3.582 -0.1924 -0.3586  0.6746
18913TIP3    H178154   5.144   4.423   3.528 -1.1876 -0.5741  0.5138
18913TIP3    H278155   5.090   4.282   3.546  0.1089 -0.9998  1.2223
18914TIP3   OH278156   4.476   3.651   5.917 -0.3521  0.8247  0.3065
18914TIP3    H178157   4.504   3.692   5.998  0.9611 -0.7145  0.7072
18914TIP3    H278158   4.383   3.634   5.929 -0.3329  1.2860  1.1913
18915TIP3   OH278159   2.575   1.554   4.782  0.4579 -0.1046  0.2630
18915TIP3    H178160   2.596   1.624   4.721  0.2232 -0.0268  0.2729
18915TIP3    H278161   2.480   1.547   4.780  0.4809 -0.4433  0.2404
18916TIP3   OH278162   3.158   6.816   4.931 -0.0770  0.0471  0.4041
18916TIP3    H178163   3.118   6.756   4.867  0.7157  0.2955 -0.3348
18916TIP3    H278164   3.252   6.804   4.920  0.0889  1.1254  0.5502
18917TIP3   OH278165   4.006   4.144   4.676 -0.1721 -0.5850  0.3566
18917TIP3    H178166   4.025   4.080   4.745 -0.4223 -1.3408 -0.2564
18917TIP3    H278167   4.092   4.181   4.654  0.1125 -1.3697  0.1021
18918TIP3   OH278168   4.449   1.451  13.495 -0.7798  0.0789 -0.1230
18918TIP3    H178169   4.361   1.484  13.514 -1.2986 -0.0728 -2.0637
18918TIP3    H278170   4.502   1.529  13.481 -0.9287  0.1479 -0.2962
18919TIP3   OH278171   6.071   4.975  15.216  0.1576  0.1646  0.7479
18919TIP3    H178172   6.160   4.976  15.180  0.0755  0.7643  0.5560
18919TIP3    H278173   6.065   5.056  15.267  0.0955 -0.4126  1.6892
18920TIP3   OH278174   6.591   3.241   2.810  0.4640  0.5381 -0.4684
18920TIP3    H178175   6.604   3.156   2.852  0.1148  0.3218 -0.7923
18920TIP3    H278176   6.679   3.279   2.806  0.7756 -0.2101 -1.1671
18921TIP3   OH278177   0.901   4.170   4.317  0.0701 -0.2502  0.1124
18921TIP3    H178178   0.936   4.085   4.345 -0.5828 -0.4046  0.4913
18921TIP3    H278179   0.943   4.234   4.375 -0.1450 -0.4183  0.4604
18922TIP3   OH278180   4.716   4.738   3.854 -0.1444 -0.2910 -0.2641
18922TIP3    H178181   4.754   4.651   3.858  0.7567  0.0537 -0.9047
18922TIP3    H278182   4.669   4.739   3.770  0.4191  0.0564 -0.5800
18923TIP3   OH278183   2.136   4.602   6.052 -0.3087 -0.3594  0.1296
18923TIP3    H178184   2.067   4.595   6.118  0.1885 -1.1192  0.5830
18923TIP3    H278185   2.188   4.677   6.079 -0.1646 -0.6098  0.5508
18924TIP3   OH278186   0.273   3.305   2.110  0.3860  0.1821 -0.9243
18924TIP3    H178187   0.274   3.225   2.163 -0.1652  0.3780 -0.6142
18924TIP3    H278188   0.349   3.355   2.140  1.7544 -0.9828 -2.3109
18925TIP3   OH278189   0.846   1.916  15.225  0.1732  0.2205  0.2878
18925TIP3    H178190   0.877   1.999  15.261 -1.3252  0.7093  0.4841
18925TIP3    H278191   0.903   1.900  15.150  1.7300  0.4357  1.3659
18926TIP3   OH278192   4.873   0.223   0.671  0.6024  0.9017 -0.2348
18926TIP3    H178193   4.964   0.253   0.673  1.9625 -2.7642  0.9933
18926TIP3    H278194   4.822   0.302   0.687  3.6103  2.8980  0.4010
18927TIP3   OH278195   4.858   3.409   5.190  0.3893  0.2737  0.1892
18927TIP3    H178196   4.941   3.383   5.230 -0.2973 -2.6237 -0.0392
18927TIP3    H278197   4.863   3.374   5.101  0.1649  2.9109 -0.9645
18928TIP3   OH278198   3.998   2.117  13.580 -0.1894  0.1366  0.4757
18928TIP3    H178199   4.085   2.081  13.594 -0.9668 -1.5241  1.3140
18928TIP3    H278200   3.989   2.185  13.647  0.1347 -0.3218  0.9938
18929TIP3   OH278201   4.269   4.624   0.913 -0.0317  0.5649  0.2672
18929TIP3    H178202   4.337   4.583   0.966 -1.8105 -0.0575  2.1733
18929TIP3    H278203   4.315   4.695   0.867  2.8857 -2.5047 -2.1022
18930TIP3   OH278204   1.068   1.896   1.819  0.1113  0.2203 -0.2582
18930TIP3    H178205   1.017   1.890   1.739  1.0073 -0.1423 -0.8139
18930TIP3    H278206   1.073   1.990   1.838  0.3575  0.3505 -0.9396
18931TIP3   OH278207   0.400   1.178   0.906  0.5913  0.2635 -0.4227
18931TIP3    H178208   0.373   1.097   0.864  0.9657  0.3201 -0.7767
18931TIP3    H278209   0.435   1.150   0.991  3.8440 -0.3756 -1.8172
18932TIP3   OH278210   2.205   5.834   1.960 -0.4085 -0.5499 -0.2495
18932TIP3    H178211   2.283   5.888   1.968 -0.0547 -0.6896 -2.2001
18932TIP3    H278212   2.133   5.891   1.987 -0.0226  0.9037 -2.0731
18933TIP3   OH278213   1.730   2.634   4.260 -0.1253  0.3436 -0.1387
18933TIP3    H178214   1.687   2.595   4.336  0.2498 -0.3077 -0.2514
18933TIP3    H278215   1.661   2.642   4.195 -0.1705 -0.3156 -0.1779
18934TIP3   OH278216   4.453   1.614   0.703  0.0920  0.1344  0.0834
18934TIP3    H178217   4.501   1.576   0.776  0.3254 -0.9863 -0.6265
18934TIP3    H278218   4.453   1.708   0.720  1.2515  0.0078  0.8637
18935TIP3   OH278219   3.639   4.279  12.906 -0.4485  0.2288 -0.2951
18935TIP3    H178220   3.684   4.256  12.987 -0.3755  0.8384 -0.1582
18935TIP3    H278221   3.687   4.354  12.872  0.0014 -0.5006 -1.3182
18936TIP3   OH278222   2.506   1.141   4.154 -0.4287  0.4790  0.5468
18936TIP3    H178223   2.420   1.116   4.120 -0.4914  1.7917 -0.3070
18936TIP3    H278224   2.568   1.100   4.093 -0.3311 -1.9550  2.1449
18937TIP3   OH278225   0.631   5.058   1.779  0.0558  0.1701 -0.5537
18937TIP3    H178226   0.592   5.015   1.703  0.2769 -0.2002 -0.4602
18937TIP3    H278227   0.690   5.124   1.742 -0.8265  0.9056 -0.6973
18938TIP3   OH278228   6.572   3.433   2.594  1.2881 -0.0354 -0.4626
18938TIP3    H178229   6.585   3.374   2.668  2.5757  0.3741 -0.3492
18938TIP3    H278230   6.631   3.401   2.526 -0.0627 -0.5627 -1.4416
18939TIP3   OH278231   4.254   5.344   0.512 -0.0851 -0.0866  0.4789
18939TIP3    H178232   4.214   5.258   0.521 -0.7405  0.0744 -0.7099
18939TIP3    H278233   4.191   5.395   0.462  1.8255 -0.0474 -2.1344
18940TIP3   OH278234   5.083   2.971   1.473  0.2193 -0.2870 -0.4377
18940TIP3    H178235   5.130   3.001   1.550  3.5106  1.9349 -3.0444
18940TIP3    H278236   5.138   2.902   1.435 -1.6111 -1.7528 -0.6333
18941TIP3   OH278237   5.235   5.178   2.959 -0.1526 -0.1820 -0.5644
18941TIP3    H178238   5.242   5.213   3.047  0.5753  0.6237 -0.9330
18941TIP3    H278239   5.308   5.116   2.951 -0.3852 -0.4667 -0.5121
18942TIP3   OH278240   5.912   2.130  16.324  0.0275 -0.1966 -0.9338
18942TIP3    H178241   5.970   2.058  16.347 -2.1204 -2.1265 -1.1430
18942TIP3    H278242   5.827   2.088  16.308 -1.8040  2.5460  0.6676
18943TIP3   OH278243   2.652   3.784  11.938  0.0343 -0.1207 -0.5163
18943TIP3    H178244   2.642   3.690  11.922 -0.4588 -0.0790 -0.4901
18943TIP3    H278245   2.593   3.824  11.874 -0.1258  0.1466 -0.2018
18944TIP3   OH278246   2.491   2.616   6.424  0.2090  0.0219 -0.3835
18944TIP3    H178247   2.444   2.535   6.443 -0.0627 -0.1351 -1.6296
18944TIP3    H278248   2.482   2.668   6.504  0.5577 -1.2430  0.5062
18945TIP3   OH278249   5.300   3.719   5.707 -0.0850 -0.2941 -0.3133
18945TIP3    H178250   5.236   3.753   5.771 -1.7886  0.9438 -2.5293
18945TIP3    H278251   5.382   3.760   5.732 -0.6113 -0.1032  1.2635
18946TIP3   OH278252   0.849   0.250  14.452 -0.0686  0.2709 -0.5797
18946TIP3    H178253   0.817   0.322  14.506  0.4025  0.2291 -0.2388
18946TIP3    H278254   0.904   0.198  14.511 -2.5507 -1.9549 -0.0423
18947TIP3   OH278255   2.478   4.305  12.071  0.6399  0.0648  0.5322
18947TIP3    H178256   2.459   4.228  12.019 -1.3345 -0.2272  1.5993
18947TIP3    H278257   2.543   4.276  12.135  0.7351 -0.4056  0.2216
18948TIP3   OH278258   4.050   5.465   3.136 -0.5559 -0.3035  0.0870
18948TIP3    H178259   4.063   5.386   3.084  0.3911 -0.5475  0.6814
18948TIP3    H278260   3.967   5.500   3.105  0.1035 -0.2790 -1.8250
18949TIP3   OH278261   3.239   1.852   1.173  1.0858  0.3133 -0.8457
18949TIP3    H178262   3.248   1.927   1.232  1.1862  0.5033 -1.0965
18949TIP3    H278263   3.329   1.826   1.153  1.0576 -0.4069 -0.1070
18950TIP3   OH278264   0.444   4.963   4.020 -0.2947  0.6741 -0.3445
18950TIP3    H178265   0.462   4.873   4.048 -1.5176 -0.7255 -3.6181
18950TIP3    H278266   0.522   4.988   3.971 -0.8794  0.4380 -1.4372
18951TIP3   OH278267   5.828   6.725  13.154  0.0641 -0.2530 -0.0203
18951TIP3    H178268   5.840   6.689  13.067 -2.4916 -1.1720 -0.0775
18951TIP3    H278269   5.857   6.816  13.147 -0.3378 -0.2373 -1.8921
18952TIP3   OH278270   4.955   6.311  16.805  0.5549  0.1744  0.0838
18952TIP3    H178271   4.861   6.310  16.787  0.5579 -0.9181  0.0689
18952TIP3    H278272   4.976   6.220  16.825  1.7069  0.3270 -0.4040
18953TIP3   OH278273   5.340   2.054  13.359 -0.1255  0.3900  0.2493
18953TIP3    H178274   5.289   2.111  13.302 -2.3593 -1.3735  0.3515
18953TIP3    H278275   5.326   2.088  13.447  0.1566  0.8196  0.1303
18954TIP3   OH278276   1.782   3.679  15.956 -0.4837 -0.6107  0.2208
18954TIP3    H178277   1.720   3.739  15.915 -0.3899  0.6715  1.8753
18954TIP3    H278278   1.782   3.703  16.049  0.8971 -1.9963  0.6289
18955TIP3   OH278279   3.172   2.504  15.292  0.9348  0.6705  0.2283
18955TIP3    H178280   3.191   2.591  15.327  2.1752  0.8023 -0.7283
18955TIP3    H278281   3.226   2.497  15.214  0.1112 -0.5918 -0.2549
18956TIP3   OH278282   1.672   2.983  15.925  0.5072  0.3996 -0.1207
18956TIP3    H178283   1.735   2.977  15.853  0.6031 -0.2744  0.0108
18956TIP3    H278284   1.588   2.962  15.885  0.8052 -1.8743  0.2862
18957TIP3   OH278285   5.393   0.629   0.285 -0.5921 -0.0764 -0.1064
18957TIP3    H178286   5.362   0.567   0.351  0.1968 -1.5798 -1.0918
18957TIP3    H278287   5.486   0.609   0.275 -0.5642  0.5329 -1.2338
18958TIP3   OH278288   5.758   3.992  11.888  0.0696 -0.4052  0.0885
18958TIP3    H178289   5.799   3.972  11.804  2.4884  1.2069  0.7439
18958TIP3    H278290   5.811   4.064  11.923 -2.9209  1.3354  1.4773
18959TIP3   OH278291   1.827   0.726  16.457  0.6256  0.0089 -0.0280
18959TIP3    H178292   1.852   0.763  16.373  0.2932  0.9880  0.2891
18959TIP3    H278293   1.807   0.802  16.512  1.7401 -0.5685  1.2335
18960TIP3   OH278294   3.448   3.658   5.079 -0.1331  0.4260 -0.3111
18960TIP3    H178295   3.486   3.592   5.138 -3.1547  0.3163  1.7185
18960TIP3    H278296   3.453   3.618   4.992 -0.6499 -1.9287  0.6646
18961TIP3   OH278297   5.651   3.943  13.946 -0.7186 -0.7113 -0.3128
18961TIP3    H178298   5.684   3.888  14.017  1.4914  0.0262 -0.6798
18961TIP3    H278299   5.607   3.883  13.886  1.7938 -2.1757 -0.7983
18962TIP3   OH278300   1.706   0.799   2.823  0.2670 -0.1607  0.0251
18962TIP3    H178301   1.794   0.766   2.803 -0.2835 -1.5791 -0.1120
18962TIP3    H278302   1.649   0.754   2.761 -0.7438 -0.2958  1.0396
18963TIP3   OH278303   3.322   0.294  11.608 -0.0325 -0.2380  0.2762
18963TIP3    H178304   3.300   0.201  11.616 -1.5209 -0.1328 -1.8091
18963TIP3    H278305   3.260   0.338  11.666  1.1670 -0.5347  1.8576
18964TIP3   OH278306   3.756   4.552  16.405  0.1460 -0.2860 -0.0256
18964TIP3    H178307   3.809   4.574  16.482  1.0281  1.8404 -1.1644
18964TIP3    H278308   3.771   4.624  16.345 -2.1972 -0.8471 -1.3746
18965TIP3   OH278309   6.738   3.904  15.561 -0.0326  0.3788 -0.3901
18965TIP3    H178310   6.754   3.844  15.489  0.0828  0.6654 -0.6037
18965TIP3    H278311   6.740   3.848  15.639 -4.5021 -0.8210 -0.8159
18966TIP3   OH278312   1.442   6.321   2.772  0.0272  0.0552  0.2854
18966TIP3    H178313   1.365   6.327   2.715  0.1767  0.2493  0.1000
18966TIP3    H278314   1.516   6.320   2.711  0.2274  1.0048  0.4946
18967TIP3   OH278315   3.196   0.720   0.847  0.0858 -0.5481  0.2054
18967TIP3    H178316   3.201   0.815   0.861 -1.6309 -0.2919 -0.6418
18967TIP3    H278317   3.150   0.711   0.763  2.5997 -2.1099 -1.1184
18968TIP3   OH278318   1.226   2.929   4.848 -0.1908 -0.5828  0.0881
18968TIP3    H178319   1.133   2.914   4.861 -0.1806  0.4807  1.7719
18968TIP3    H278320   1.256   2.968   4.931  0.9065  3.0164 -1.7751
18969TIP3   OH278321   1.914   1.637  15.766 -0.5692 -0.0423 -0.3891
18969TIP3    H178322   1.965   1.635  15.847  0.1160 -0.7203 -0.8314
18969TIP3    H278323   1.882   1.728  15.760  2.2015  0.9861 -1.0822
18970TIP3   OH278324   4.299   1.160   6.103  0.1049  0.1762  0.2088
18970TIP3    H178325   4.376   1.172   6.158  1.4647 -1.0802 -1.3241
18970TIP3    H278326   4.227   1.198   6.154  2.2035  4.9163  0.1895
18971TIP3   OH278327   6.032   0.118   4.224  0.3449  0.3336 -0.0433
18971TIP3    H178328   6.055   0.143   4.314  0.0821 -0.3853  0.2359
18971TIP3    H278329   6.075   0.033   4.212 -0.1838  0.1104 -0.3589
18972TIP3   OH278330   4.382   6.192  16.128  0.1277 -0.0124  0.5167
18972TIP3    H178331   4.337   6.270  16.093  0.4456  0.9142  2.0659
18972TIP3    H278332   4.312   6.139  16.165 -0.0910 -0.4908 -0.5459
18973TIP3   OH278333   2.613   3.964   4.553 -0.0667 -0.1235  0.6096
18973TIP3    H178334   2.668   3.954   4.631 -2.1878 -1.9612  1.9736
18973TIP3    H278335   2.611   3.877   4.514  0.8706  0.7510 -1.5281
18974TIP3   OH278336   4.761   5.625  15.878  0.2068 -0.8064 -0.3416
18974TIP3    H178337   4.702   5.587  15.813 -0.1882  2.1092 -1.8889
18974TIP3    H278338   4.825   5.557  15.896 -0.4649 -2.2061 -2.8017
18975TIP3   OH278339   1.921   1.493   2.304 -0.0387  0.0173  0.2388
18975TIP3    H178340   1.905   1.563   2.241  3.0296 -0.7682 -1.6812
18975TIP3    H278341   1.850   1.430   2.288 -0.7383  0.9934 -0.6581
18976TIP3   OH278342   1.214   0.659   0.303  0.1282 -0.1697 -0.2155
18976TIP3    H178343   1.203   0.583   0.360  1.5229 -0.4351 -0.2570
18976TIP3    H278344   1.303   0.650   0.269 -0.5944  0.0790 -2.3041
18977TIP3   OH278345   0.171   0.330   4.487  0.2425  0.7181 -0.3261
18977TIP3    H178346   0.255   0.347   4.529 -0.3205 -0.2255  1.2696
18977TIP3    H278347   0.106   0.353   4.553 -0.7487  0.9674 -1.3568
18978TIP3   OH278348   3.479   5.701  13.297  0.0580 -0.4342  0.0246
18978TIP3    H178349   3.480   5.752  13.216  1.4287  2.8958  1.9188
18978TIP3    H278350   3.552   5.639  13.287  0.6935  0.4336 -1.0160
18979TIP3   OH278351   1.844   2.012  17.019  0.4970 -0.1125 -0.0525
18979TIP3    H178352   1.928   2.020  17.063  0.4956  0.4336 -0.1445
18979TIP3    H278353   1.834   2.093  16.970  0.4930 -0.7006 -1.0595
18980TIP3   OH278354   2.572   4.917   6.290  0.4787 -0.2817  0.0669
18980TIP3    H178355   2.635   4.920   6.362  1.7092 -0.2882 -0.9596
18980TIP3    H278356   2.577   4.827   6.257 -0.0782 -0.2843 -0.0154
18981TIP3   OH278357   3.737   3.591  17.028  0.2456 -0.2949 -0.5309
18981TIP3    H178358   3.788   3.643  17.090 -1.6556  2.0208 -0.7592
18981TIP3    H278359   3.672   3.546  17.082  1.0782 -1.4705 -0.4763
18982TIP3   OH278360   3.010   5.980   4.335  0.6665  0.3631 -0.3014
18982TIP3    H178361   2.942   5.963   4.270  0.0795 -0.4998  0.4992
18982TIP3    H278362   3.051   5.894   4.349  0.6487  0.4899  0.6009
18983TIP3   OH278363   0.175   4.341   1.561 -0.2790 -0.3693  0.2577
18983TIP3    H178364   0.149   4.421   1.606  1.1365  0.7352 -0.7915
18983TIP3    H278365   0.171   4.273   1.628  1.0390  1.0703  1.8732
18984TIP3   OH278366   1.988   3.976  16.102  0.1319 -0.1552  0.3115
18984TIP3    H178367   2.065   4.017  16.141  0.1958  0.3244 -0.3090
18984TIP3    H278368   1.966   4.031  16.027 -0.3129 -0.7615 -0.0155
18985TIP3   OH278369   6.158   3.489   3.048  0.2818 -0.3797  0.4350
18985TIP3    H178370   6.094   3.418   3.050 -0.1165 -0.0204  2.1505
18985TIP3    H278371   6.105   3.569   3.055  0.8928 -0.0912  2.3963
18986TIP3   OH278372   4.666   6.222  14.966 -0.4867  0.2447 -0.5287
18986TIP3    H178373   4.756   6.242  14.939 -0.0139 -1.9776 -0.8694
18986TIP3    H278374   4.629   6.306  14.991  2.4059  1.0153  1.8115
18987TIP3   OH278375   0.164   4.765  11.614  0.2144  0.3085 -0.4492
18987TIP3    H178376   0.208   4.728  11.690 -1.1900 -1.7413 -0.5669
18987TIP3    H278377   0.234   4.781  11.551  1.1332 -0.0560  0.4639
18988TIP3   OH278378   5.594   4.553  12.766 -0.1657 -0.2600  0.2179
18988TIP3    H178379   5.537   4.477  12.779 -1.4048  0.5434 -0.3547
18988TIP3    H278380   5.574   4.610  12.840 -0.2334  0.0913 -0.0677
18989TIP3   OH278381   2.440   2.730  12.853  0.0508  0.8606  0.7819
18989TIP3    H178382   2.493   2.702  12.928  0.8487  0.2785  0.0218
18989TIP3    H278383   2.448   2.659  12.790 -0.2690  1.5242 -0.0281
18990TIP3   OH278384   4.314   6.433   3.253 -0.4990 -0.8523  0.6853
18990TIP3    H178385   4.272   6.515   3.228 -0.9751 -1.9910 -2.7668
18990TIP3    H278386   4.332   6.443   3.347 -0.7530  3.0395  0.4922
18991TIP3   OH278387   5.983   1.444  14.506 -0.3512  0.3647  0.0857
18991TIP3    H178388   5.948   1.373  14.559  0.2031  0.0683  0.0712
18991TIP3    H278389   6.022   1.504  14.569  0.8115 -0.2698  0.0007
18992TIP3   OH278390   6.651   3.257  17.047 -0.1093  0.5362  0.1620
18992TIP3    H178391   6.663   3.203  16.969  0.2447  1.5539 -0.5039
18992TIP3    H278392   6.716   3.224  17.109  1.1329  1.1740 -0.7759
18993TIP3   OH278393   2.374   6.571  15.759  0.2766  0.2928 -0.3520
18993TIP3    H178394   2.330   6.637  15.705  0.1437 -0.2234 -0.8924
18993TIP3    H278395   2.464   6.570  15.727  0.1861 -0.0482 -0.6042
18994TIP3   OH278396   3.449   1.010   3.219 -0.4836 -0.0208 -0.1699
18994TIP3    H178397   3.376   1.067   3.195 -1.3900 -0.1158  2.1570
18994TIP3    H278398   3.415   0.921   3.209 -0.0002 -0.1289 -1.0045
18995TIP3   OH278399   6.077   0.644   6.005  0.3465 -0.3057 -0.1423
18995TIP3    H178400   6.147   0.710   6.004  0.4623 -0.4233  0.0889
18995TIP3    H278401   6.091   0.596   6.087 -1.1829  0.9165  0.8776
18996TIP3   OH278402   1.908   1.195   4.010 -0.0488  0.2837 -0.0322
18996TIP3    H178403   1.814   1.204   4.029  0.3488  1.6649  1.5736
18996TIP3    H278404   1.932   1.279   3.969  0.1690 -0.7508 -2.1859
18997TIP3   OH278405   6.782   4.275   1.974  0.5210 -0.3049 -0.3827
18997TIP3    H178406   6.817   4.337   2.038 -0.0862 -0.9306  0.5901
18997TIP3    H278407   6.692   4.259   2.003 -0.0443  0.0088 -1.8672
18998TIP3   OH278408   1.717   1.671  14.298  0.0118 -0.2643  0.1389
18998TIP3    H178409   1.637   1.660  14.247 -0.4415  3.2359 -0.1925
18998TIP3    H278410   1.688   1.712  14.380  1.3944  1.3979 -0.1372
18999TIP3   OH278411   1.019   4.468  15.918 -0.3064 -0.1245  0.7261
18999TIP3    H178412   0.994   4.553  15.954 -0.0569  0.6466 -0.8478
18999TIP3    H278413   0.954   4.407  15.953 -0.1462  0.5995  2.3452
19000TIP3   OH278414   3.736   5.986  13.094  0.6555  0.1006 -0.0843
19000TIP3    H178415   3.759   6.034  13.173  0.4649  1.3076 -0.7415
19000TIP3    H278416   3.817   5.943  13.067  0.7707 -0.1563  0.6299
19001TIP3   OH278417   2.391   6.067  12.053 -0.3338  0.4751 -0.3546
19001TIP3    H178418   2.378   5.995  11.991 -0.3528 -0.1488  0.3549
19001TIP3    H278419   2.304   6.107  12.062 -0.0648  1.4621 -1.7651
19002TIP3   OH278420   6.693   4.007   5.059 -0.6176 -0.1832  0.3859
19002TIP3    H178421   6.662   3.939   5.119 -2.5989  1.3809  1.2629
19002TIP3    H278422   6.718   3.960   4.980  2.4589 -2.3960  2.4157
19003TIP3   OH278423   3.786   2.033   4.281 -0.1831  0.1356  0.2264
19003TIP3    H178424   3.770   1.939   4.279 -2.4382  0.4581  0.5670
19003TIP3    H278425   3.767   2.058   4.372  0.3692  0.9289  0.1302
19004TIP3   OH278426   1.063   1.456  13.941  0.1007 -0.2878 -0.2611
19004TIP3    H178427   1.082   1.548  13.924  0.0852  0.2963  2.4245
19004TIP3    H278428   0.969   1.448  13.928 -0.0287  0.3046  0.2451
19005TIP3   OH278429   0.037   6.393   2.969 -0.2754 -0.5382 -0.1713
19005TIP3    H178430   0.056   6.484   2.946 -0.2226 -0.5686 -0.2492
19005TIP3    H278431  -0.054   6.381   2.943 -0.2961 -0.4952 -0.1205
19006TIP3   OH278432   1.090   2.675  14.209  0.1037 -0.6839 -0.1546
19006TIP3    H178433   1.141   2.729  14.148  1.4561 -0.1404  1.3682
19006TIP3    H278434   1.103   2.586  14.178  1.5607 -0.5037 -0.1476
19007TIP3   OH278435   4.601   4.924  14.949  0.4870  0.5006  0.0476
19007TIP3    H178436   4.664   4.912  15.020  0.6284 -0.7780 -0.2619
19007TIP3    H278437   4.654   4.949  14.873  0.5697 -0.0300 -0.0749
19008TIP3   OH278438   3.368   4.413  14.492 -0.6187 -0.2017 -0.3122
19008TIP3    H178439   3.363   4.495  14.444  0.7475  0.3378  0.4073
19008TIP3    H278440   3.280   4.400  14.527 -1.8420 -0.9069 -3.3200
19009TIP3   OH278441   2.272   1.592  12.354 -0.4102 -0.0139  0.0062
19009TIP3    H178442   2.250   1.671  12.403 -0.9373  0.6192 -1.2375
19009TIP3    H278443   2.319   1.537  12.418  1.1414  1.8248  0.5281
19010TIP3   OH278444   3.570   4.904   0.806 -0.2500 -0.4493  0.0780
19010TIP3    H178445   3.628   4.944   0.870 -0.2121 -0.0887 -0.1724
19010TIP3    H278446   3.524   4.979   0.766 -0.9790 -0.7351  0.3643
19011TIP3   OH278447   5.277   5.798  13.395  0.4582  0.1657 -0.3915
19011TIP3    H178448   5.264   5.703  13.394 -0.2282  0.2535 -1.0740
19011TIP3    H278449   5.207   5.831  13.452  0.4212  0.3040 -0.5182
19012TIP3   OH278450   2.253   3.157   4.881 -0.3187  0.1916  0.2546
19012TIP3    H178451   2.266   3.190   4.969 -0.6688  0.9280  0.0387
19012TIP3    H278452   2.182   3.093   4.889 -0.1586  0.0498  0.5487
19013TIP3   OH278453   0.947   5.275   5.642 -0.2471  0.3851  0.4967
19013TIP3    H178454   0.969   5.225   5.564  0.2281  0.0559  0.8375
19013TIP3    H278455   0.886   5.218   5.690 -0.9415  0.7995  0.1283
19014TIP3   OH278456   1.506   5.750   5.137  0.1395 -0.1918 -0.0509
19014TIP3    H178457   1.553   5.814   5.083 -0.2388  0.1471  0.0096
19014TIP3    H278458   1.415   5.782   5.138  0.3944  0.6361  1.9555
19015TIP3   OH278459   2.637   5.985  16.425 -0.2536  0.6645 -0.2421
19015TIP3    H178460   2.728   5.991  16.395  0.1607  0.8974  0.9914
19015TIP3    H278461   2.595   6.065  16.391  0.4448  1.3915  0.5483
19016TIP3   OH278462   1.816   2.836  10.379  0.2486 -0.9539 -0.0114
19016TIP3    H178463   1.812   2.928  10.352  1.2837 -1.1678 -1.0118
19016TIP3    H278464   1.726   2.813  10.402  0.0566  0.4361  0.7288
19017TIP3   OH278465   0.259   6.777  10.904 -0.2592  0.0083 -0.0322
19017TIP3    H178466   0.228   6.694  10.939  0.1510  0.6039  1.8398
19017TIP3    H278467   0.329   6.804  10.963  0.8238  0.8329 -1.6364
19018TIP3   OH278468   2.080   2.960   2.527 -0.8868  0.3432 -0.2245
19018TIP3    H178469   2.008   2.899   2.511 -2.3759  1.6868  1.0105
19018TIP3    H278470   2.039   3.034   2.573  1.6739  0.1312  2.6689
19019TIP3   OH278471   4.245   4.217  14.144  0.1116 -0.4582 -0.1403
19019TIP3    H178472   4.240   4.162  14.065 -1.2821  0.3742 -0.6646
19019TIP3    H278473   4.155   4.223  14.174  0.5184 -0.0570  1.0458
19020TIP3   OH278474   4.209   2.333   1.109  0.6343  0.0822 -0.2553
19020TIP3    H178475   4.234   2.416   1.151  0.8575 -0.8391  1.5223
19020TIP3    H278476   4.245   2.339   1.021  3.6457  0.5047  0.8937
19021TIP3   OH278477   6.248   3.215  11.223 -0.1454 -0.1320 -0.1841
19021TIP3    H178478   6.331   3.261  11.231  0.7423 -1.5027 -1.0006
19021TIP3    H278479   6.217   3.236  11.135  0.5691 -1.4988 -0.7984
19022TIP3   OH278480   4.674   6.591   0.452 -0.1745  0.6697  0.9243
19022TIP3    H178481   4.722   6.509   0.459  0.4628  1.0439  1.0347
19022TIP3    H278482   4.741   6.657   0.433 -0.7595  1.0633  0.1725
19023TIP3   OH278483   5.563   1.937   6.614  0.5519 -0.5208  1.0525
19023TIP3    H178484   5.499   2.008   6.610  2.3991  1.1787 -1.3665
19023TIP3    H278485   5.521   1.863   6.571 -0.2057  0.1945  0.5377
19024TIP3   OH278486   2.889   5.882   2.337  0.7617  0.3018  0.3302
19024TIP3    H178487   2.982   5.862   2.352  0.5474 -1.2888 -0.2012
19024TIP3    H278488   2.864   5.822   2.266 -0.7175  0.5833  0.5938
19025TIP3   OH278489   0.640   4.473   4.755 -0.5876 -0.5572 -0.2791
19025TIP3    H178490   0.679   4.386   4.767 -0.4587 -0.2195  2.5206
19025TIP3    H278491   0.566   4.473   4.815 -0.8863  1.1070 -0.6202
19026TIP3   OH278492   3.498   4.782   6.455  0.2262 -0.2401 -0.4556
19026TIP3    H178493   3.494   4.870   6.493 -1.4755 -0.5418  0.1599
19026TIP3    H278494   3.503   4.724   6.531  2.0559 -0.6849 -0.8695
19027TIP3   OH278495   0.223   2.525   6.165 -0.5405 -0.1058  0.2536
19027TIP3    H178496   0.210   2.512   6.071 -0.6519  2.1296 -0.1136
19027TIP3    H278497   0.150   2.582   6.191  0.2387  0.4185  1.3831
19028TIP3   OH278498   5.617   6.634   4.311 -0.0714  0.2641 -0.0547
19028TIP3    H178499   5.712   6.620   4.306 -0.2082 -1.0949  0.6467
19028TIP3    H278500   5.607   6.714   4.362  0.6913 -0.3507  1.1046
19029TIP3   OH278501   4.565   0.380  11.818  0.1929  0.5171  0.6113
19029TIP3    H178502   4.515   0.332  11.752  1.2868  0.7894 -0.4316
19029TIP3    H278503   4.648   0.333  11.824  0.2591  0.7194  1.5425
19030TIP3   OH278504   5.405   0.059   0.596  0.0730 -0.1816  0.5149
19030TIP3    H178505   5.422   0.152   0.581  0.2923 -0.0936  1.3005
19030TIP3    H278506   5.433   0.043   0.686  0.1371 -1.0337  0.3530
19031TIP3   OH278507   0.436   4.697  11.128 -0.1219  0.0398 -0.1087
19031TIP3    H178508   0.440   4.793  11.123 -1.3056  0.0979 -0.1697
19031TIP3    H278509   0.428   4.669  11.037  0.7440 -0.1669 -0.1367
19032TIP3   OH278510   1.291   0.868  16.381 -0.1344 -0.1114 -0.2456
19032TIP3    H178511   1.315   0.954  16.415 -0.5843  0.2493 -0.8160
19032TIP3    H278512   1.241   0.828  16.452 -0.0790  0.1732 -0.0437
19033TIP3   OH278513   4.332   4.647  16.979  0.2321 -0.0791 -0.2722
19033TIP3    H178514   4.313   4.657  17.072  0.6668 -0.1901 -0.1706
19033TIP3    H278515   4.334   4.552  16.965 -1.1358 -0.0651 -0.6692
19034TIP3   OH278516   6.030   0.996   0.070 -0.2266  0.3386 -0.5411
19034TIP3    H178517   5.936   0.977   0.074 -0.2737  0.7074  2.4560
19034TIP3    H278518   6.048   1.009  -0.023 -2.8241 -1.1783 -1.3607
19035TIP3   OH278519   1.845   1.249   3.207 -0.0087 -0.0500  0.8445
19035TIP3    H178520   1.867   1.278   3.296  0.0287 -2.1139  1.5658
19035TIP3    H278521   1.913   1.187   3.184 -0.2619  0.1330 -0.4912
19036TIP3   OH278522   6.207   4.649   5.834 -0.2639  0.0249  0.6266
19036TIP3    H178523   6.128   4.624   5.881  0.7428  0.2615  2.5439
19036TIP3    H278524   6.271   4.582   5.858 -0.2765 -1.2108 -2.3255
19037TIP3   OH278525   5.777   1.469  10.708  0.4290  0.1991  0.5152
19037TIP3    H178526   5.744   1.415  10.636  0.4231 -1.5058  1.7499
19037TIP3    H278527   5.700   1.514  10.741 -0.5115 -2.4748  2.2969
19038TIP3   OH278528   6.804   2.193   4.685  0.1910 -0.0438  0.1058
19038TIP3    H178529   6.895   2.185   4.657  0.2540 -1.5684  0.6702
19038TIP3    H278530   6.808   2.229   4.774  0.3870 -2.0620  0.9578
19039TIP3   OH278531   4.163   3.926  12.588  0.2626 -0.1819 -0.5915
19039TIP3    H178532   4.101   3.948  12.518 -0.8336  0.1651  0.4516
19039TIP3    H278533   4.112   3.873  12.649  0.2498  2.0780  1.4898
19040TIP3   OH278534   0.723   2.857  11.393 -0.0796 -0.0735  0.2917
19040TIP3    H178535   0.704   2.911  11.316 -0.7405 -0.4699  0.1660
19040TIP3    H278536   0.639   2.851  11.439  0.4745  0.7688  1.4446
19041TIP3   OH278537   6.421   5.564  12.960 -0.5101 -0.3098 -0.4189
19041TIP3    H178538   6.368   5.491  12.928  0.9454 -0.9527 -1.4307
19041TIP3    H278539   6.471   5.528  13.032 -1.3016  0.2657  0.4481
19042TIP3   OH278540   5.397   4.382  12.833 -0.4967  0.1152 -0.1121
19042TIP3    H178541   5.344   4.435  12.774  0.1192  0.1088 -0.6908
19042TIP3    H278542   5.355   4.296  12.832 -0.7095  0.2199 -0.2446
19043TIP3   OH278543   3.315   1.830  16.768 -0.1158 -0.2457  0.0104
19043TIP3    H178544   3.343   1.789  16.850 -0.7372  0.0292  0.3680
19043TIP3    H278545   3.358   1.778  16.699 -1.3646 -1.9034  0.4156
19044TIP3   OH278546   6.816   0.893  15.687 -0.6648 -0.0429  0.0933
19044TIP3    H178547   6.897   0.870  15.641  0.3946  0.0044  1.8397
19044TIP3    H278548   6.828   0.984  15.714 -1.3005 -0.0298  0.3559
19045TIP3   OH278549   1.738   4.554   0.097  0.1214 -0.3279  0.4589
19045TIP3    H178550   1.735   4.619   0.027 -0.5789 -0.4045  0.4056
19045TIP3    H278551   1.657   4.568   0.146  1.0826  0.4371  1.9144
19046TIP3   OH278552   3.497   2.143  13.937 -0.6304 -0.0837  0.1312
19046TIP3    H178553   3.548   2.199  13.878 -0.5475 -1.8849 -1.6084
19046TIP3    H278554   3.406   2.168  13.921 -0.5122  0.5613  0.4562
19047TIP3   OH278555   5.327   4.865   5.147 -0.2681  0.1473 -0.4720
19047TIP3    H178556   5.363   4.777   5.158 -0.3663 -0.0112 -1.3176
19047TIP3    H278557   5.379   4.920   5.205 -0.9024 -0.6318  0.8838
19048TIP3   OH278558   5.474   0.923   2.849 -0.7914 -0.0026  0.4340
19048TIP3    H178559   5.463   0.997   2.909 -2.6291  0.0354  0.1233
19048TIP3    H278560   5.542   0.951   2.788 -0.3167  0.7694  1.2985
19049TIP3   OH278561   4.536   0.036  12.655 -0.0396  0.2347  0.0998
19049TIP3    H178562   4.447   0.033  12.690 -0.0332 -1.9606  0.0598
19049TIP3    H278563   4.593   0.040  12.732 -0.1395 -0.5015  0.2218
19050TIP3   OH278564   3.157   1.954   2.336  0.0943 -0.1494 -0.1911
19050TIP3    H178565   3.062   1.961   2.339  0.1024 -0.1766  0.1989
19050TIP3    H278566   3.188   2.011   2.407  0.3634 -0.2361 -0.2348
19051TIP3   OH278567   5.330   6.797   2.928 -0.0873 -0.2401  0.2768
19051TIP3    H178568   5.318   6.824   2.837 -0.3866  0.9578  0.6546
19051TIP3    H278569   5.268   6.850   2.978 -1.1749 -2.0804  1.0142
19052TIP3   OH278570   0.583   1.738  15.070 -0.2984  0.0804  0.3762
19052TIP3    H178571   0.617   1.779  15.149  0.4606 -0.5579  0.3959
19052TIP3    H278572   0.592   1.805  15.002  2.3874 -0.4808  0.0600
19053TIP3   OH278573   3.057   4.695  14.802 -0.1802  0.1628 -0.2497
19053TIP3    H178574   3.114   4.634  14.849  1.5120  1.2529 -0.8265
19053TIP3    H278575   3.096   4.781  14.817 -2.0125  1.0362 -0.1964
19054TIP3   OH278576   2.956   0.517   5.101  1.1254 -0.3549  0.1312
19054TIP3    H178577   3.012   0.513   5.178  1.8283  0.5515 -0.3141
19054TIP3    H278578   2.972   0.435   5.055  1.5206 -0.4275  0.3914
19055TIP3   OH278579   6.544   1.486   6.524 -0.2632  0.3699  0.0746
19055TIP3    H178580   6.546   1.465   6.617 -0.1350  1.9783  0.4544
19055TIP3    H278581   6.616   1.434   6.486  1.2758  1.5246  1.2877
19056TIP3   OH278582   1.634   3.409  13.854  0.0748  0.3494 -0.1014
19056TIP3    H178583   1.687   3.374  13.782 -0.1590  2.0350 -1.1543
19056TIP3    H278584   1.553   3.357  13.852  0.1804  0.2068 -0.8843
19057TIP3   OH278585   1.765   0.491  12.853  0.0607  0.2537  0.5116
19057TIP3    H178586   1.790   0.575  12.814 -0.0068  0.7102  1.4271
19057TIP3    H278587   1.672   0.501  12.874 -1.0979 -1.4843 -2.9908
19058TIP3   OH278588   2.384   2.124  13.320 -0.6022  0.1854 -0.5757
19058TIP3    H178589   2.421   2.189  13.381 -0.4909 -0.8833  0.5454
19058TIP3    H278590   2.457   2.103  13.261  1.3250 -3.0389  2.5461
19059TIP3   OH278591   6.495   2.546  14.103  0.2916  0.4980 -0.0339
19059TIP3    H178592   6.517   2.635  14.076 -0.0022  0.9839  1.2578
19059TIP3    H278593   6.403   2.536  14.081 -0.2643  1.3137  1.8053
19060TIP3   OH278594   1.998   4.513  15.399  0.2063 -0.2663  0.0063
19060TIP3    H178595   2.028   4.424  15.419  1.1557 -1.0441 -4.0771
19060TIP3    H278596   2.063   4.547  15.338 -0.9704  2.6864  0.2394
19061TIP3   OH278597   6.524   1.057  13.229 -0.3617  0.0135  0.0900
19061TIP3    H178598   6.565   0.994  13.170  1.6484  1.0828  0.2676
19061TIP3    H278599   6.540   1.022  13.317 -0.4063  0.1207  0.1413
19062TIP3   OH278600   0.430   2.864   2.504 -0.6231 -0.2474  0.0543
19062TIP3    H178601   0.440   2.954   2.537 -1.4571  0.2998 -1.1356
19062TIP3    H278602   0.514   2.823   2.523 -0.2878  0.7269  0.7883
19063TIP3   OH278603   2.449   6.551   0.152  0.5050 -0.2677 -0.4612
19063TIP3    H178604   2.392   6.520   0.081 -1.1069 -2.1710  1.5108
19063TIP3    H278605   2.397   6.616   0.199  1.0677  0.0756 -0.3041
19064TIP3   OH278606   0.946   1.567  11.577 -0.9750  0.3139  0.4326
19064TIP3    H178607   1.037   1.586  11.597 -0.6059  0.2808 -1.0477
19064TIP3    H278608   0.950   1.509  11.501 -2.2055 -1.5532  1.7331
19065TIP3   OH278609   5.364   3.234   3.145 -0.0041  0.0780  0.1670
19065TIP3    H178610   5.330   3.152   3.181 -0.3062  0.2718  0.3231
19065TIP3    H278611   5.307   3.253   3.070 -0.4101  0.5439  0.5922
19066TIP3   OH278612   6.166   6.059  13.643 -0.2493  0.5242 -0.4534
19066TIP3    H178613   6.136   5.981  13.689 -2.3836  1.8511  0.6198
19066TIP3    H278614   6.252   6.078  13.681  0.3508 -1.3001 -0.8009
19067TIP3   OH278615   0.533   1.211  15.091  0.3920  0.0146  0.3722
19067TIP3    H178616   0.480   1.280  15.051 -0.9682 -1.6233 -0.7704
19067TIP3    H278617   0.592   1.258  15.150 -1.6462  2.0099  0.9585
19068TIP3   OH278618   4.472   1.408  15.835  0.6496 -0.2080  0.0841
19068TIP3    H178619   4.518   1.491  15.849  0.1197 -0.2466  2.5398
19068TIP3    H278620   4.543   1.344  15.827  1.0510  0.2775 -0.3449
19069TIP3   OH278621   0.280   2.713  13.819 -0.1271  0.5343  0.1994
19069TIP3    H178622   0.260   2.661  13.741 -1.5958  0.9936  0.2255
19069TIP3    H278623   0.222   2.678  13.887  1.3235 -0.0324  1.1905
19070TIP3   OH278624   5.378   0.641   3.923  0.3076  0.7498 -0.0731
19070TIP3    H178625   5.458   0.679   3.960  1.4522 -0.9086 -0.7298
19070TIP3    H278626   5.328   0.611   3.999  1.2324  0.0659  0.2896
19071TIP3   OH278627   1.936   5.488  15.439 -0.1179  0.5965 -0.2471
19071TIP3    H178628   1.857   5.490  15.493 -0.4851 -0.2699 -0.7300
19071TIP3    H278629   1.926   5.410  15.385  1.1898  0.3287 -0.1392
19072TIP3   OH278630   4.944   2.820   3.639  0.3664  0.3347  0.2768
19072TIP3    H178631   4.851   2.841   3.651  0.2935  0.0347  0.2425
19072TIP3    H278632   4.965   2.762   3.713  1.2825  2.7195  2.0129
19073TIP3   OH278633   4.089   6.796   4.202 -0.5784  0.0528  0.0929
19073TIP3    H178634   4.099   6.734   4.274  0.7176 -0.1726 -0.2478
19073TIP3    H278635   4.009   6.843   4.222 -1.9126 -2.0859  0.0873
19074TIP3   OH278636   1.427   5.586   0.150 -0.1053 -0.1234  0.6381
19074TIP3    H178637   1.385   5.616   0.231 -2.7582 -0.3977 -0.5704
19074TIP3    H278638   1.438   5.491   0.163 -1.4203 -0.3304  0.3170
19075TIP3   OH278639   3.949   4.083   5.315 -0.4707 -0.3621  1.0585
19075TIP3    H178640   3.995   4.081   5.399 -0.3918 -2.5302  1.0081
19075TIP3    H278641   3.880   4.017   5.323 -0.9728 -0.0365 -0.3103
19076TIP3   OH278642   0.045   6.641  14.992  0.0002  0.0747 -0.1729
19076TIP3    H178643   0.077   6.698  15.063 -1.6988 -1.0784  1.6271
19076TIP3    H278644  -0.045   6.670  14.978 -0.3700 -1.1358 -0.3435
19077TIP3   OH278645   3.912   6.711   6.071 -0.3372  0.1998  0.0528
19077TIP3    H178646   4.004   6.684   6.063 -1.0388 -1.9713 -1.7959
19077TIP3    H278647   3.898   6.771   5.998  0.1969  2.6888  1.8709
19078TIP3   OH278648   2.593   3.271  16.337  0.1942  0.0327 -0.0403
19078TIP3    H178649   2.579   3.203  16.272  1.5638 -0.0779 -0.2376
19078TIP3    H278650   2.516   3.328  16.329 -1.4184 -1.9147  0.7182
19079TIP3   OH278651   2.446   5.429  11.564 -0.0890 -0.1891 -0.2467
19079TIP3    H178652   2.506   5.404  11.634 -1.3391  0.5844  1.1391
19079TIP3    H278653   2.451   5.357  11.501  1.1990 -0.8065  0.5241
19080TIP3   OH278654   6.547   1.838   2.854  0.3038 -0.4838  0.1636
19080TIP3    H178655   6.628   1.886   2.840 -0.3764 -0.1617 -3.9474
19080TIP3    H278656   6.572   1.762   2.907  2.6100  1.1435  1.5667
19081TIP3   OH278657   6.625   0.837  15.493 -0.0431  0.0454 -0.5487
19081TIP3    H178658   6.659   0.926  15.479 -3.6971  1.7936  0.3879
19081TIP3    H278659   6.658   0.812  15.579  1.9588 -0.0628 -1.3006
19082TIP3   OH278660   2.482   1.382  14.565 -0.1924  0.2203  0.5665
19082TIP3    H178661   2.432   1.324  14.507  0.5958  0.5161 -0.4422
19082TIP3    H278662   2.520   1.324  14.631 -0.7820 -0.1738  0.5734
19083TIP3   OH278663   1.603   2.548   4.497 -0.3925  0.5021 -1.2751
19083TIP3    H178664   1.521   2.566   4.452 -0.6612  0.9814 -0.6019
19083TIP3    H278665   1.586   2.570   4.588  0.6477  1.1312 -1.2231
19084TIP3   OH278666   6.191   0.609  13.139  0.2191  0.0092 -0.2858
19084TIP3    H178667   6.196   0.701  13.163  2.0477  0.1674 -1.1576
19084TIP3    H278668   6.281   0.584  13.118 -0.4337 -1.6017 -1.3805
19085TIP3   OH278669   2.934   2.276   3.741  0.4278 -0.5643  0.4455
19085TIP3    H178670   3.004   2.213   3.727  1.0754 -0.1178  1.5603
19085TIP3    H278671   2.923   2.319   3.656 -0.5757 -2.6768 -0.5723
19086TIP3   OH278672   6.254   5.425   4.975 -0.2195  0.3027  0.0342
19086TIP3    H178673   6.315   5.389   4.910 -0.4654  1.2645 -0.7548
19086TIP3    H278674   6.302   5.423   5.057  0.1490 -0.8190 -0.1843
19087TIP3   OH278675   1.560   2.737   3.506  0.1724  0.2205  0.1699
19087TIP3    H178676   1.599   2.653   3.478  0.8106  0.5153  0.1424
19087TIP3    H278677   1.466   2.723   3.501  0.2282 -1.1567  2.1360
19088TIP3   OH278678   1.628   5.491   2.788 -0.0941 -0.1440 -0.6494
19088TIP3    H178679   1.686   5.456   2.856 -1.3533  0.7018  0.9498
19088TIP3    H278680   1.552   5.434   2.789  0.5781 -1.1513 -2.6220
19089TIP3   OH278681   0.110   5.717   2.887  0.1043  0.4236  0.4222
19089TIP3    H178682   0.191   5.666   2.881 -0.7831 -0.9833 -0.0421
19089TIP3    H278683   0.070   5.709   2.800 -1.0139  0.2323  0.9329
19090TIP3   OH278684   6.089   1.211  12.998 -0.1540  0.1418  0.8174
19090TIP3    H178685   6.000   1.200  13.032 -0.5809  2.5688  0.6746
19090TIP3    H278686   6.076   1.232  12.905  0.6242 -0.2976  0.6027
19091TIP3   OH278687   1.802   2.725  17.090 -0.0971  0.1254 -0.1632
19091TIP3    H178688   1.828   2.633  17.083  0.3653  0.3291 -1.6812
19091TIP3    H278689   1.880   2.774  17.061 -0.2215  1.0135  0.9636
19092TIP3   OH278690   3.232   3.989   2.444  0.4701 -0.4138  0.4914
19092TIP3    H178691   3.239   3.934   2.366 -0.4735  0.8770 -0.5526
19092TIP3    H278692   3.177   4.062   2.416  0.8081  0.5033  2.1396
19093TIP3   OH278693   0.656   0.130  11.043 -0.3555 -0.5539 -0.6932
19093TIP3    H178694   0.645   0.148  10.949 -2.0642 -4.0152 -1.3241
19093TIP3    H278695   0.567   0.123  11.077  0.2146  2.0635  1.6356
19094TIP3   OH278696   5.498   3.432   4.590  0.0321  0.6083 -0.0525
19094TIP3    H178697   5.549   3.512   4.595 -1.5739  1.6263  1.1687
19094TIP3    H278698   5.455   3.437   4.504 -1.8094  2.2549  0.8839
19095TIP3   OH278699   5.850   4.712   0.245  0.8152  0.2157 -0.0573
19095TIP3    H178700   5.834   4.789   0.299  1.2017  0.2403  0.0293
19095TIP3    H278701   5.774   4.656   0.259  1.5489 -0.4289  1.6368
19096TIP3   OH278702   6.072   3.533   5.608  0.1276 -0.1838 -0.0443
19096TIP3    H178703   6.041   3.576   5.688 -0.6859 -1.1610  0.1864
19096TIP3    H278704   6.119   3.455   5.639  2.9351  1.2509 -0.3815
19097TIP3   OH278705   1.670   4.113  16.156  0.2114 -0.1218 -0.4338
19097TIP3    H178706   1.733   4.183  16.172  0.3686 -0.4978  0.7707
19097TIP3    H278707   1.610   4.148  16.090  1.2988  0.4807 -1.1227
19098TIP3   OH278708   1.217   6.491   5.555 -0.1551 -0.1301 -0.0247
19098TIP3    H178709   1.296   6.517   5.508  0.1290 -1.4024 -0.2750
19098TIP3    H278710   1.188   6.571   5.599 -0.1706  0.9746 -1.9604
19099TIP3   OH278711   4.194   4.727  11.004  0.1510 -0.1756  0.5230
19099TIP3    H178712   4.203   4.684  10.919 -1.2104 -1.6443  1.0982
19099TIP3    H278713   4.196   4.821  10.983 -0.6649 -0.5012 -1.1941
19100TIP3   OH278714   6.794   3.901   4.826 -0.0281 -0.1013 -0.1112
19100TIP3    H178715   6.869   3.847   4.800 -0.0028  0.8004 -2.0660
19100TIP3    H278716   6.762   3.939   4.744 -2.0874  0.2434  0.7942
19101TIP3   OH278717   0.869   2.286  14.057  0.6378  0.1120  0.3056
19101TIP3    H178718   0.881   2.248  13.970  1.9666  1.6505 -0.2320
19101TIP3    H278719   0.872   2.211  14.116  0.0660 -0.9266 -0.9110
19102TIP3   OH278720   3.114   6.521  15.556  0.2426  0.0057 -0.3333
19102TIP3    H178721   3.075   6.607  15.543 -0.6014 -0.5393 -1.5344
19102TIP3    H278722   3.089   6.470  15.479 -0.4657 -1.7574  0.9884
19103TIP3   OH278723   6.188   6.508   4.544 -0.2009 -0.1772  0.1432
19103TIP3    H178724   6.154   6.597   4.554  1.9877  0.8923 -1.1742
19103TIP3    H278725   6.264   6.504   4.601 -1.2233 -1.8401  1.4918
19104TIP3   OH278726   1.949   3.820  14.149  0.2448 -0.9390  0.0380
19104TIP3    H178727   1.952   3.899  14.203 -2.5322 -0.4419 -0.3526
19104TIP3    H278728   1.920   3.751  14.208  0.7638 -1.2257 -0.0391
19105TIP3   OH278729   5.069   5.290  15.232 -0.4710  0.1753  0.1931
19105TIP3    H178730   5.030   5.346  15.299 -2.8198 -0.3952 -0.6178
19105TIP3    H278731   5.043   5.329  15.149  0.7928 -0.2009 -0.4087
19106TIP3   OH278732   0.957   2.141  15.330  0.0267  0.7301 -0.8549
19106TIP3    H178733   0.927   2.114  15.417 -0.4404 -0.0355 -1.2393
19106TIP3    H278734   0.999   2.225  15.344  0.1552  0.5101  0.1493
19107TIP3   OH278735   4.408   6.516  16.638  0.0172 -0.6152  0.2966
19107TIP3    H178736   4.315   6.515  16.616  0.0779 -2.6634 -0.0484
19107TIP3    H278737   4.416   6.454  16.710  1.1226 -0.4846  0.2984
19108TIP3   OH278738   3.293   2.036  11.552 -0.0189 -0.6011  0.3470
19108TIP3    H178739   3.276   2.009  11.462 -0.1601  0.1402  0.1429
19108TIP3    H278740   3.221   2.096  11.573  2.1676  2.5636 -0.5038
19109TIP3   OH278741   4.818   6.398  13.112  0.0494 -0.2398 -0.1703
19109TIP3    H178742   4.764   6.475  13.134  1.0447 -0.1481  2.2762
19109TIP3    H278743   4.854   6.418  13.025 -3.0811  0.0622 -1.5297
19110TIP3   OH278744   2.560   6.358   2.158 -0.4683  0.0384 -0.0148
19110TIP3    H178745   2.534   6.387   2.245 -1.7628 -2.2034  0.4291
19110TIP3    H278746   2.625   6.289   2.174  0.3658  0.5922 -0.8917
19111TIP3   OH278747   4.989   5.973   2.183 -0.2325 -0.4498 -0.5969
19111TIP3    H178748   5.050   5.923   2.129  0.1602 -0.2416 -0.3614
19111TIP3    H278749   5.024   5.963   2.272  0.5926  1.2375 -0.6769
19112TIP3   OH278750   2.815   6.688  11.285 -0.4534  0.8059 -0.3819
19112TIP3    H178751   2.888   6.738  11.248  0.1943 -0.1301 -0.4080
19112TIP3    H278752   2.822   6.702  11.380  0.2047  0.1589 -0.3230
19113TIP3   OH278753   2.030   5.203   3.071  0.3716 -0.4141 -0.0541
19113TIP3    H178754   2.100   5.139   3.060  0.8105  0.0263  0.1571
19113TIP3    H278755   1.952   5.150   3.085  0.9066 -0.9072  1.1684
19114TIP3   OH278756   3.930   1.608  17.080  0.3154  0.1274 -0.3945
19114TIP3    H178757   3.969   1.657  17.152 -0.6780  0.0140  0.2484
19114TIP3    H278758   3.905   1.524  17.120  2.3902 -1.1430 -1.5617
19115TIP3   OH278759   4.461   6.507   4.122 -0.9562  0.1628 -0.1524
19115TIP3    H178760   4.534   6.568   4.121 -0.2478 -0.6572  0.1212
19115TIP3    H278761   4.422   6.518   4.209  1.6119 -2.5117  1.5275
19116TIP3   OH278762   5.141   0.621   0.977  0.0507  0.2404 -0.2008
19116TIP3    H178763   5.174   0.531   0.974  1.1156  0.6128 -0.2487
19116TIP3    H278764   5.220   0.675   0.974 -0.5912  1.1848 -0.4561
19117TIP3   OH278765   0.498   1.319  12.458  0.6027 -0.2216  0.1601
19117TIP3    H178766   0.473   1.387  12.395  0.0048  0.8964  1.5359
19117TIP3    H278767   0.437   1.247  12.441  0.4653  0.0566 -0.5579
19118TIP3   OH278768   1.669   0.634   0.820 -0.1457 -0.6050 -0.3957
19118TIP3    H178769   1.746   0.605   0.869 -0.1200  0.6348  0.3210
19118TIP3    H278770   1.698   0.711   0.771 -0.4728 -1.1759 -1.5390
19119TIP3   OH278771   5.844   6.801   5.776 -0.3236  0.2396  0.1926
19119TIP3    H178772   5.856   6.774   5.867  1.7112  2.0823  0.5681
19119TIP3    H278773   5.861   6.723   5.725  0.3767 -0.4036  1.3556
19120TIP3   OH278774   0.345   4.990  11.513  0.0007 -0.1912 -0.0721
19120TIP3    H178775   0.329   4.988  11.418 -0.7318  1.0037  0.0063
19120TIP3    H278776   0.418   5.051  11.524  0.3925 -0.6850  0.1056
19121TIP3   OH278777   5.271   0.075   2.629  0.1560  0.7379 -0.0535
19121TIP3    H178778   5.288   0.065   2.536 -0.2978 -0.6143 -0.0195
19121TIP3    H278779   5.177   0.056   2.639  0.1415  1.1248  0.6479
19122TIP3   OH278780   3.646   4.164  11.017 -0.9170 -1.2762 -0.0198
19122TIP3    H178781   3.564   4.164  11.067 -0.9331  0.4839  0.0133
19122TIP3    H278782   3.714   4.172  11.083 -0.8448 -0.6486 -0.1649
19123TIP3   OH278783   3.128   6.757  16.121 -0.1347 -0.1494 -0.2267
19123TIP3    H178784   3.065   6.827  16.132  1.0394  1.1544 -1.3664
19123TIP3    H278785   3.191   6.769  16.192  2.1256  2.3784 -2.3767
19124TIP3   OH278786   0.721   0.386  15.432  0.8128  0.9675 -0.2939
19124TIP3    H178787   0.650   0.355  15.489  1.7807 -0.4119  0.2187
19124TIP3    H278788   0.708   0.340  15.349 -0.0614  2.2827 -0.9204
19125TIP3   OH278789   6.435   2.564  16.741 -0.6883 -0.1619 -0.1830
19125TIP3    H178790   6.423   2.586  16.833 -0.1628  0.6659 -0.3099
19125TIP3    H278791   6.527   2.584  16.722 -1.3001  1.7473 -1.4247
19126TIP3   OH278792   1.179   0.221  15.135 -0.4231 -0.3245  0.2387
19126TIP3    H178793   1.190   0.277  15.212 -1.2325  0.8529 -0.4747
19126TIP3    H278794   1.189   0.132  15.169 -0.3247  0.1913  1.6233
19127TIP3   OH278795   6.239   4.103   4.179 -0.4446 -0.4949 -0.2870
19127TIP3    H178796   6.172   4.037   4.196  0.1393 -1.0318 -0.0448
19127TIP3    H278797   6.322   4.059   4.200  0.1380 -0.4176 -2.2569
19128TIP3   OH278798   0.378   4.146   0.688 -0.2347  0.1832  0.2966
19128TIP3    H178799   0.335   4.214   0.740  0.7191  0.9773  0.0807
19128TIP3    H278800   0.367   4.066   0.740  0.8972  0.9841  1.8742
19129TIP3   OH278801   4.830   0.479   1.578  0.5415  0.3416 -0.2396
19129TIP3    H178802   4.802   0.449   1.665  0.5638 -0.0032 -0.3484
19129TIP3    H278803   4.897   0.545   1.596 -0.0525  0.8871  0.0125
19130TIP3   OH278804   2.700   6.750  11.723  0.2628 -0.4734 -0.2249
19130TIP3    H178805   2.621   6.794  11.693  0.6381 -0.5156 -1.3249
19130TIP3    H278806   2.762   6.759  11.650  0.4018 -2.6653 -0.4395
19131TIP3   OH278807   1.240   4.015   5.942 -0.1623 -0.3245 -0.0679
19131TIP3    H178808   1.328   4.016   5.904 -0.0444  0.6908  0.2073
19131TIP3    H278809   1.185   4.059   5.877 -0.9555 -2.8696 -1.2790
19132TIP3   OH278810   5.189   0.405  14.202 -0.3138  0.7530 -0.4012
19132TIP3    H178811   5.234   0.341  14.256  1.1048  0.4260 -1.9198
19132TIP3    H278812   5.096   0.392  14.222  0.1535  1.1567  2.4830
19133TIP3   OH278813   1.315   5.234   1.524 -0.0792  0.4732  0.3290
19133TIP3    H178814   1.367   5.252   1.445 -0.4276 -0.9166 -0.2488
19133TIP3    H278815   1.240   5.292   1.517 -0.4515 -0.1086 -0.7276
19134TIP3   OH278816   2.026   5.414  14.123 -0.0092 -0.3468  0.4449
19134TIP3    H178817   2.026   5.481  14.055 -0.9558 -1.1515 -0.3778
19134TIP3    H278818   2.118   5.406  14.149  0.5470 -0.7374 -1.4731
19135TIP3   OH278819   5.304   0.259   0.209  0.0868 -0.5850  0.2125
19135TIP3    H178820   5.286   0.324   0.277 -0.6292 -0.1272 -0.3875
19135TIP3    H278821   5.221   0.211   0.200 -0.4096  0.5091 -1.5140
19136TIP3   OH278822   0.228   2.278   3.582  0.2387  1.1117  0.0147
19136TIP3    H178823   0.214   2.322   3.498  0.5215  1.4836  0.1583
19136TIP3    H278824   0.152   2.301   3.635  0.5031  1.6427  0.1749
19137TIP3   OH278825   0.960   5.199   3.037 -0.0276 -0.2592 -0.3699
19137TIP3    H178826   0.876   5.232   3.070 -0.1769 -2.1540  1.3394
19137TIP3    H278827   1.022   5.219   3.107  0.8588  0.5883 -1.3692
19138TIP3   OH278828   5.304   6.739   4.699  0.0933  0.5451 -0.5033
19138TIP3    H178829   5.301   6.736   4.795 -0.3659 -1.8203 -0.5355
19138TIP3    H278830   5.316   6.832   4.678 -3.0449  1.6308  1.7633
19139TIP3   OH278831   3.264   6.745  12.483 -1.0068  0.0565  0.7642
19139TIP3    H178832   3.254   6.716  12.574  1.0008 -2.4958  0.2657
19139TIP3    H278833   3.174   6.758  12.452 -1.7859 -0.4271  2.6566
19140TIP3   OH278834   2.683   3.614   1.016 -0.0528 -0.0401  0.0527
19140TIP3    H178835   2.775   3.597   1.036  0.0615 -0.1183 -0.5394
19140TIP3    H278836   2.641   3.528   1.019  0.1205 -0.1627 -0.8365
19141TIP3   OH278837   2.678   5.656  11.721  0.2468  0.2629  0.2083
19141TIP3    H178838   2.648   5.565  11.724 -0.0912  0.3601 -0.1967
19141TIP3    H278839   2.646   5.694  11.803 -0.9939  0.4366 -0.3263
19142TIP3   OH278840   0.235   0.945  16.853  0.7619  0.0686  0.0082
19142TIP3    H178841   0.306   0.948  16.917  0.2790  0.6535  0.5283
19142TIP3    H278842   0.220   0.851  16.838  1.0200 -0.0700  0.5904
19143TIP3   OH278843   4.411   3.180  11.836  0.0399  0.4100  0.7281
19143TIP3    H178844   4.472   3.254  11.847  0.1692  0.4136  0.0018
19143TIP3    H278845   4.329   3.221  11.809  0.6815  0.1643 -1.8205
19144TIP3   OH278846   6.339   3.022   2.065  0.4738  0.1849 -0.0233
19144TIP3    H178847   6.316   2.934   2.033  0.9895  0.1083 -0.1874
19144TIP3    H278848   6.426   3.039   2.029  1.6392 -0.4121  2.2879
19145TIP3   OH278849   6.520   1.882  14.075 -0.0783 -0.2005  0.0257
19145TIP3    H178850   6.493   1.803  14.121 -1.1178  0.4479  0.5804
19145TIP3    H278851   6.526   1.855  13.983  0.8996 -1.2266  0.3651
19146TIP3   OH278852   1.202   3.522  12.578 -0.2693 -0.2510 -0.0197
19146TIP3    H178853   1.158   3.505  12.661  0.8817  2.3206  1.2345
19146TIP3    H278854   1.154   3.594  12.539  2.2414  2.2324  1.1117
19147TIP3   OH278855   2.328   4.491  14.369 -0.2090  0.7429  0.3212
19147TIP3    H178856   2.360   4.566  14.418 -0.1427  0.8793  0.0728
19147TIP3    H278857   2.362   4.415  14.416 -0.4656  0.8643  0.6978
19148TIP3   OH278858   0.196   4.334   5.797 -0.3689  0.0099 -0.7172
19148TIP3    H178859   0.287   4.307   5.783 -0.0366 -0.2266  1.5621
19148TIP3    H278860   0.171   4.291   5.879 -1.1967  3.2797  0.8826
19149TIP3   OH278861   3.581   3.593   3.702  0.0586  0.1902  0.2238
19149TIP3    H178862   3.592   3.534   3.776  1.4543 -0.2654 -0.3252
19149TIP3    H278863   3.510   3.652   3.730 -1.8267 -2.0508  0.5559
19150TIP3   OH278864   1.347   3.786  14.954  0.1318 -0.2131 -0.1076
19150TIP3    H178865   1.392   3.705  14.975 -0.9039 -0.4331  1.4234
19150TIP3    H278866   1.276   3.792  15.018 -0.5638  1.2900 -0.9522
19151TIP3   OH278867   3.661   3.964   4.089  0.2222 -0.2032 -0.3718
19151TIP3    H178868   3.676   3.871   4.103  2.6403  0.3522  1.2577
19151TIP3    H278869   3.660   4.002   4.176  0.4074  1.4387 -1.0393
19152TIP3   OH278870   6.470   3.594   6.023 -0.4526 -0.0965  0.2540
19152TIP3    H178871   6.393   3.549   6.056 -0.2048  0.7140  2.0166
19152TIP3    H278872   6.434   3.666   5.971 -0.8966  0.1644  0.9064
19153TIP3   OH278873   3.868   5.191  14.250 -0.2347 -0.2231  0.4974
19153TIP3    H178874   3.949   5.167  14.206  0.1206 -0.9051  1.4930
19153TIP3    H278875   3.839   5.271  14.205  0.7040 -0.2646 -0.2042
19154TIP3   OH278876   5.153   1.609   3.319  0.1711  0.1722  0.3113
19154TIP3    H178877   5.136   1.516   3.331  0.3332  0.0647 -0.3083
19154TIP3    H278878   5.243   1.621   3.347  0.9078 -0.2734 -1.7201
19155TIP3   OH278879   5.504   2.610  13.186 -0.9772  0.5064  0.6085
19155TIP3    H178880   5.435   2.675  13.203 -1.2268  0.8140 -1.3352
19155TIP3    H278881   5.500   2.551  13.260 -1.5268  2.0485  1.8731
19156TIP3   OH278882   2.661   1.985   1.710  0.3985 -0.6960  0.0276
19156TIP3    H178883   2.665   2.031   1.794 -2.9174 -1.2182  0.6094
19156TIP3    H278884   2.657   1.892   1.734  1.6479 -1.0226 -0.8816
19157TIP3   OH278885   6.465   2.083  13.250 -0.2610 -0.6975 -0.1851
19157TIP3    H178886   6.406   2.111  13.320  0.1507 -2.2568  0.8638
19157TIP3    H278887   6.416   2.014  13.204  0.1318 -0.9080 -0.2957
19158TIP3   OH278888   4.670   3.566   0.222 -0.4954 -0.1189 -0.2573
19158TIP3    H178889   4.703   3.631   0.284 -0.3022 -0.4684  0.0066
19158TIP3    H278890   4.747   3.517   0.195 -0.6966 -0.4918 -0.1595
19159TIP3   OH278891   2.819   1.619   1.565  0.6543 -0.2255 -0.3634
19159TIP3    H178892   2.755   1.559   1.603  0.4129 -0.2845 -0.8521
19159TIP3    H278893   2.874   1.645   1.638 -0.3223  0.3181  0.1853
19160TIP3   OH278894   4.683   1.909  13.766  0.2913  0.0598 -0.5095
19160TIP3    H178895   4.748   1.957  13.817 -0.8718  0.3050  0.8075
19160TIP3    H278896   4.655   1.970  13.698  0.1290  0.6108  0.0418
19161TIP3   OH278897   6.573   2.697  14.521 -0.0911  1.0213 -0.5901
19161TIP3    H178898   6.569   2.763  14.589 -0.0250 -0.3008  0.7548
19161TIP3    H278899   6.514   2.628  14.550 -0.1760  0.4715 -1.9481
19162TIP3   OH278900   6.736   2.625   0.352 -0.1968 -0.0629  0.3792
19162TIP3    H178901   6.678   2.608   0.425  0.9696  0.5860  1.5020
19162TIP3    H278902   6.815   2.575   0.372  1.3701  2.5543  1.2441
19163TIP3   OH278903   3.212   2.580  15.796 -0.3479 -0.2952  0.2484
19163TIP3    H178904   3.133   2.610  15.750  0.2701 -0.9882 -1.3302
19163TIP3    H278905   3.271   2.553  15.726  0.8800 -0.8223  1.4575
19164TIP3   OH278906   0.157   1.716  14.639 -0.2825 -0.3730 -0.5788
19164TIP3    H178907   0.137   1.624  14.657 -0.2304 -0.4657 -0.9932
19164TIP3    H278908   0.231   1.736  14.698 -1.7768  0.0888  1.2579
19165TIP3   OH278909   6.310   1.115  12.015 -0.5695  0.9852  0.1753
19165TIP3    H178910   6.225   1.141  11.980  0.1162 -0.4863 -3.0527
19165TIP3    H278911   6.300   1.022  12.036 -0.0611  1.0848  0.8905
19166TIP3   OH278912   4.959   0.825  16.538  0.0900 -1.2452  0.1145
19166TIP3    H178913   4.868   0.839  16.512 -0.1279  2.9786  2.2736
19166TIP3    H278914   5.007   0.821  16.456 -1.7438 -0.6638 -1.0677
19167TIP3   OH278915   1.873   0.245   4.261  0.6100  0.1246  0.1701
19167TIP3    H178916   1.811   0.224   4.331 -0.3886 -1.0411 -0.9952
19167TIP3    H278917   1.945   0.184   4.274 -0.1451 -0.9579 -0.4832
19168TIP3   OH278918   1.460   1.444   5.401  0.1921  0.4045 -0.3691
19168TIP3    H178919   1.491   1.526   5.440  0.6399  1.0671 -2.0381
19168TIP3    H278920   1.477   1.378   5.469  1.5566  1.3964  0.3180
19169TIP3   OH278921   3.246   5.835   0.211 -0.0982 -0.2161  0.3422
19169TIP3    H178922   3.199   5.752   0.220 -0.7943  0.0571 -0.6991
19169TIP3    H278923   3.267   5.860   0.301 -1.5631 -0.5562  0.8032
19170TIP3   OH278924   1.701   6.302  14.206 -0.1561  0.3450 -0.1363
19170TIP3    H178925   1.739   6.232  14.259 -1.1903 -0.8775 -0.9239
19170TIP3    H278926   1.610   6.274  14.193 -0.5118  1.7100 -0.7153
19171TIP3   OH278927   5.255   1.974   4.489 -0.8711 -0.0666 -0.2479
19171TIP3    H178928   5.272   1.974   4.583 -1.2009 -3.1215 -0.0950
19171TIP3    H278929   5.169   1.932   4.479 -0.8495  0.1897 -1.9181
19172TIP3   OH278930   2.047   3.090  13.415  0.3843  0.3592 -0.0346
19172TIP3    H178931   2.068   3.046  13.332 -1.3520  0.7047 -0.7144
19172TIP3    H278932   2.123   3.144  13.434  2.3373 -2.3539  0.4896
19173TIP3   OH278933   4.600   6.430  16.039 -0.1814  0.2408 -0.0761
19173TIP3    H178934   4.538   6.378  16.090  0.0500  0.3416  0.3144
19173TIP3    H278935   4.632   6.371  15.972 -1.1410  0.3495 -0.6635
19174TIP3   OH278936   6.022   0.413  11.179 -0.0015  0.6364 -1.0245
19174TIP3    H178937   6.024   0.333  11.126  0.4631 -0.1706  0.1532
19174TIP3    H278938   6.109   0.451  11.168 -0.6899  1.8527 -2.7874
19175TIP3   OH278939   4.770   4.302   2.731 -0.0234  0.1703  0.2489
19175TIP3    H178940   4.764   4.395   2.752 -0.9999  0.1079  0.2798
19175TIP3    H278941   4.709   4.289   2.658  1.6696 -0.0483 -1.2165
19176TIP3   OH278942   1.863   6.487   6.038  0.4651 -0.2806  0.2563
19176TIP3    H178943   1.897   6.397   6.036  0.6669 -0.2109  0.5279
19176TIP3    H278944   1.794   6.485   6.104 -1.0761 -0.7714 -1.2904
19177TIP3   OH278945   4.877   5.793   3.311 -0.3144 -0.4029  0.2152
19177TIP3    H178946   4.904   5.825   3.397 -2.1764  2.3792 -0.0737
19177TIP3    H278947   4.798   5.741   3.328  0.2288 -1.2108  0.3031
19178TIP3   OH278948   0.251   3.817  15.099  0.7725  0.2134  0.1662
19178TIP3    H178949   0.264   3.781  15.186 -0.9730 -0.1183  0.3134
19178TIP3    H278950   0.193   3.892  15.112 -0.7648 -0.7482 -0.8561
19179TIP3   OH278951   5.224   4.782   3.664 -0.2380 -0.3602 -0.3391
19179TIP3    H178952   5.303   4.731   3.683 -0.4714 -0.9861 -1.0324
19179TIP3    H278953   5.242   4.822   3.579 -0.2774  0.2974 -0.0470
19180TIP3   OH278954   1.742   4.501  11.637 -0.4475  0.3817 -0.0780
19180TIP3    H178955   1.795   4.545  11.570  0.6220 -0.2482  0.3227
19180TIP3    H278956   1.652   4.521  11.613 -0.0631  0.7240 -1.3271
19181TIP3   OH278957   3.062   3.768  13.621  0.5731  0.2379  0.6013
19181TIP3    H178958   3.059   3.818  13.703  0.7235  1.7343 -0.2778
19181TIP3    H278959   3.056   3.676  13.649  0.8988  0.6981  2.3019
19182TIP3   OH278960   6.767   6.651  12.439  0.4802  0.2003 -1.0217
19182TIP3    H178961   6.808   6.578  12.392 -1.0323 -1.4653  0.0623
19182TIP3    H278962   6.692   6.675  12.384  0.4837  0.3481 -0.9616
19183TIP3   OH278963   2.463   1.173   0.303 -0.4048  0.0329 -0.2359
19183TIP3    H178964   2.538   1.232   0.307  0.2943 -0.8611  0.7124
19183TIP3    H278965   2.391   1.222   0.342 -0.0693  0.5757 -0.2932
19184TIP3   OH278966   6.635   3.931   6.991  0.2383  0.0359  0.4921
19184TIP3    H178967   6.708   3.892   6.942  0.4878  1.1128 -0.0208
19184TIP3    H278968   6.637   4.023   6.967 -0.9405  0.1882  0.9360
19185TIP3   OH278969   4.147   1.712  13.933  0.2356 -0.2605 -0.2628
19185TIP3    H178970   4.084   1.745  13.869  0.6368 -0.7819 -0.9452
19185TIP3    H278971   4.232   1.742  13.900  0.4259 -0.2922  0.1878
19186TIP3   OH278972   4.886   2.690   5.344  0.0305  0.3955 -0.1575
19186TIP3    H178973   4.829   2.677   5.420 -1.1640 -0.3415 -1.1398
19186TIP3    H278974   4.901   2.602   5.311  0.7946  0.6887 -0.5966
19187TIP3   OH278975   0.946   5.248  16.679 -0.3895  0.2795  0.5398
19187TIP3    H178976   0.991   5.307  16.740 -0.7517  0.7033  0.4042
19187TIP3    H278977   0.972   5.278  16.592  0.4688 -0.5992  0.4834
19188TIP3   OH278978   0.816   0.383  13.091  0.2157 -0.9540 -0.1392
19188TIP3    H178979   0.829   0.324  13.017 -1.0498 -0.8346 -0.4841
19188TIP3    H278980   0.904   0.399  13.126  0.8133 -1.1328 -1.5244
19189TIP3   OH278981   4.798   5.876  14.384  0.5880  0.3452 -0.1544
19189TIP3    H178982   4.739   5.939  14.425 -0.6189  0.1104 -1.4666
19189TIP3    H278983   4.818   5.915  14.298 -0.2738 -1.0774 -1.0394
19190TIP3   OH278984   5.875   6.412   2.579 -0.3430  0.1958 -0.4668
19190TIP3    H178985   5.830   6.461   2.510  1.0685  1.9933 -0.1892
19190TIP3    H278986   5.966   6.444   2.575 -0.1442  0.0918  1.9670
19191TIP3   OH278987   0.881   0.510  17.085 -0.3680  0.4985 -0.6453
19191TIP3    H178988   0.811   0.451  17.056 -0.4070  0.6906 -0.9532
19191TIP3    H278989   0.944   0.454  17.130 -1.2434  0.4792  0.5995
19192TIP3   OH278990   0.264   6.349   3.280  0.5814 -0.6664 -0.3420
19192TIP3    H178991   0.184   6.401   3.291  1.5245  0.6904  0.4555
19192TIP3    H278992   0.248   6.269   3.329  0.1308  0.0988  0.7998
19193TIP3   OH278993   6.717   3.445  12.407 -0.0215  0.0368  0.1091
19193TIP3    H178994   6.687   3.527  12.447 -0.6664 -0.5943  0.9706
19193TIP3    H278995   6.645   3.417  12.351  0.8189  0.8342 -1.4274
19194TIP3   OH278996   1.898   3.094   4.547 -0.5080 -0.1044  0.4834
19194TIP3    H178997   1.902   3.070   4.639  0.9516  0.8662  0.6989
19194TIP3    H278998   1.835   3.032   4.509  0.5839 -2.0508  1.6530
19195TIP3   OH278999   1.153   4.847  13.589  0.6652  0.4070  0.3556
19195TIP3    H179000   1.217   4.914  13.566  0.2798  0.7999  0.4170
19195TIP3    H279001   1.073   4.896  13.609 -0.4190 -0.1825 -2.1470
19196TIP3   OH279002   4.432   5.304   4.214  0.3222 -0.2835  0.0835
19196TIP3    H179003   4.342   5.303   4.182 -0.3126  0.8711  1.7410
19196TIP3    H279004   4.483   5.264   4.143 -1.5636 -1.5886 -0.5905
19197TIP3   OH279005   0.106   5.759  16.145  0.2010  0.1992  0.4268
19197TIP3    H179006   0.194   5.761  16.181 -0.0528  0.7193  1.0459
19197TIP3    H279007   0.058   5.825  16.195 -0.2735  0.6772 -0.6236
19198TIP3   OH279008   1.695   4.477  14.614 -0.1161  0.3573 -0.2875
19198TIP3    H179009   1.647   4.420  14.674  1.2614 -0.0699  0.4592
19198TIP3    H279010   1.653   4.463  14.529  0.1393 -1.7753 -0.1287
19199TIP3   OH279011   5.506   3.248   5.506  0.0137  0.2805  0.3346
19199TIP3    H179012   5.410   3.241   5.499 -0.0084  0.8995 -0.1039
19199TIP3    H279013   5.528   3.325   5.454  0.8778 -0.5268 -0.5379
19200TIP3   OH279014   3.871   2.219  12.136 -0.4042 -0.4829 -0.0616
19200TIP3    H179015   3.840   2.305  12.164 -1.8664  0.0829 -3.0718
19200TIP3    H279016   3.966   2.229  12.126 -0.3730  0.3513  0.8888
19201TIP3   OH279017   4.256   5.772   4.745  0.2281  0.1696  0.8100
19201TIP3    H179018   4.303   5.835   4.799  0.4714 -0.0416  0.8454
19201TIP3    H279019   4.324   5.717   4.708  0.1785  1.0505 -0.6806
19202TIP3   OH279020   1.074   5.438  16.320  0.2710  0.5574 -0.0974
19202TIP3    H179021   1.164   5.455  16.296  0.2041  1.9432  0.5438
19202TIP3    H279022   1.072   5.450  16.415 -0.2278 -1.2006  0.1562
19203TIP3   OH279023   0.020   0.667   2.181 -0.0048 -0.2000  0.8033
19203TIP3    H179024   0.000   0.641   2.271 -3.8957 -1.3894 -0.2177
19203TIP3    H279025  -0.003   0.759   2.176  1.6135  0.2657  1.2999
19204TIP3   OH279026   6.481   6.307  12.315 -0.5717  0.1131 -0.2097
19204TIP3    H179027   6.562   6.282  12.269  0.0769  0.8566  0.4895
19204TIP3    H279028   6.439   6.370  12.256  0.5869  1.5748  0.4499
19205TIP3   OH279029   0.541   0.417  13.062  0.3142  0.1986 -0.5736
19205TIP3    H179030   0.606   0.395  13.128 -1.1066  0.5221  1.0124
19205TIP3    H279031   0.590   0.424  12.981  2.0029 -1.0184  0.2901
19206TIP3   OH279032   1.220   0.234   3.955 -0.2121  0.3370  0.1884
19206TIP3    H179033   1.251   0.321   3.978 -1.4298  1.0636 -0.7694
19206TIP3    H279034   1.293   0.176   3.974  1.2579  1.7922 -0.8001
19207TIP3   OH279035   4.527   1.490  16.180 -0.3367 -0.4005  0.0603
19207TIP3    H179036   4.621   1.482  16.167 -0.4796  1.6718 -3.2176
19207TIP3    H279037   4.494   1.400  16.171  1.2135 -1.0695  0.6794
19208TIP3   OH279038   5.918   0.943   5.662  0.5578 -0.0128  0.4827
19208TIP3    H179039   5.990   0.918   5.605  0.1910 -2.0503  0.8350
19208TIP3    H279040   5.839   0.917   5.614  0.1956 -0.6062  1.3820
19209TIP3   OH279041   1.309   0.553  14.583 -0.3945 -0.0080  0.4104
19209TIP3    H179042   1.384   0.544  14.642 -0.4721  0.0107  0.5103
19209TIP3    H279043   1.260   0.627  14.617 -0.6271 -0.2162  0.5246
19210TIP3   OH279044   0.216   6.408  11.070 -0.2947 -0.9310  0.3434
19210TIP3    H179045   0.183   6.337  11.126  0.4000 -1.6983 -0.1967
19210TIP3    H279046   0.289   6.369  11.022  0.7148  0.4333  0.7291
19211TIP3   OH279047   6.770   1.420  11.903 -0.1036 -0.0209  0.0061
19211TIP3    H179048   6.689   1.463  11.877 -0.4408 -1.5440 -1.6150
19211TIP3    H279049   6.839   1.468  11.857 -0.2861  0.0583 -0.1849
19212TIP3   OH279050   4.083   6.669  16.934 -0.3709 -0.8309  0.0908
19212TIP3    H179051   4.067   6.721  17.013 -1.3281 -0.9278 -0.0305
19212TIP3    H279052   4.161   6.709  16.895 -0.3280 -0.3097  0.6828
19213TIP3   OH279053   1.053   5.579  16.582 -0.3299  0.3823  0.3733
19213TIP3    H179054   0.982   5.619  16.632  0.3424  1.3977  0.5222
19213TIP3    H279055   1.103   5.529  16.646 -1.2326 -0.8542  0.1689
19214TIP3   OH279056   6.396   4.763   6.557 -0.0737  0.7245  0.2695
19214TIP3    H179057   6.390   4.739   6.465  0.9515  1.3760  0.0117
19214TIP3    H279058   6.324   4.825   6.571  0.2186  1.2038 -0.2974
19215TIP3   OH279059   6.219   1.242  14.934 -0.3906  0.3826  0.3761
19215TIP3    H179060   6.208   1.330  14.898  2.5780  1.1496  1.0271
19215TIP3    H279061   6.246   1.256  15.025 -1.0287 -1.2742  0.8688
19216TIP3   OH279062   4.170   3.228  15.354 -0.1812 -0.3901 -0.4758
19216TIP3    H179063   4.179   3.314  15.394  0.2502 -0.4088 -0.5278
19216TIP3    H279064   4.256   3.187  15.365 -0.1127 -0.4735 -1.2510
19217TIP3   OH279065   4.795   2.257  14.750 -0.4881 -0.0515  0.2721
19217TIP3    H179066   4.827   2.198  14.682 -0.3725 -0.9376  1.0783
19217TIP3    H279067   4.778   2.340  14.704  1.9796  0.1711 -0.3949
19218TIP3   OH279068   6.218   5.409  14.249  0.1755 -0.4905  0.2171
19218TIP3    H179069   6.283   5.339  14.238  0.5932 -0.2159  0.9110
19218TIP3    H279070   6.195   5.435  14.160  0.2852 -1.2657 -0.0446
19219TIP3   OH279071   1.404   5.309   0.138  0.4852  0.0726 -0.1821
19219TIP3    H179072   1.459   5.247   0.185  0.8897 -0.3261 -1.1551
19219TIP3    H279073   1.321   5.264   0.125  0.9666 -0.4990 -1.3806
19220TIP3   OH279074   3.892   0.424  16.329  0.1381 -0.3264  0.2453
19220TIP3    H179075   3.817   0.397  16.382  0.4371 -0.2243  0.7254
19220TIP3    H279076   3.908   0.515  16.353 -1.1288  0.4604 -1.6809
19221TIP3   OH279077   0.949   2.726   5.464  0.0211  0.1092  0.2454
19221TIP3    H179078   0.984   2.656   5.408 -1.3735 -0.0106 -0.5326
19221TIP3    H279079   1.021   2.747   5.524  0.0935 -2.8951  1.4030
19222TIP3   OH279080   4.455   2.377   3.466  0.2140 -0.0384 -0.0109
19222TIP3    H179081   4.480   2.305   3.408 -1.5193  0.3255 -1.3065
19222TIP3    H279082   4.442   2.451   3.407  0.4170  0.9202  1.1150
19223TIP3   OH279083   0.509   5.813   3.051 -0.4488  0.2197  0.2689
19223TIP3    H179084   0.473   5.746   2.993  0.2961 -0.4121  0.5134
19223TIP3    H279085   0.601   5.821   3.026 -0.9222  2.5305 -1.0134
19224TIP3   OH279086   0.263   5.720   4.916  0.1384 -0.0396  0.1043
19224TIP3    H179087   0.309   5.641   4.889 -0.9513 -1.1300  1.3115
19224TIP3    H279088   0.318   5.792   4.885  0.7004 -1.2299 -1.8607
19225TIP3   OH279089   4.148   6.276  10.478 -0.4965 -0.0179  0.0441
19225TIP3    H179090   4.217   6.216  10.451 -0.8544 -0.0753 -0.7921
19225TIP3    H279091   4.174   6.305  10.565 -0.2893 -1.3290  0.4321
19226TIP3   OH279092   1.748   2.300  14.176  0.3665 -0.0239 -0.0756
19226TIP3    H179093   1.677   2.351  14.214 -0.1777 -0.9300  0.1492
19226TIP3    H279094   1.774   2.240  14.246  1.5449  0.4734 -0.0627
19227TIP3   OH279095   4.486   1.833  11.608 -0.1391 -0.0250 -0.1661
19227TIP3    H179096   4.402   1.864  11.643  0.0584  0.4061 -0.0747
19227TIP3    H279097   4.464   1.797  11.522 -0.3760  0.3137 -0.2476
19228TIP3   OH279098   5.591   4.647   0.978 -0.3008 -0.7147 -0.4635
19228TIP3    H179099   5.540   4.702   0.918  0.0677 -1.5798 -1.6149
19228TIP3    H279100   5.536   4.640   1.056 -1.7574 -1.2191 -1.4738
19229TIP3   OH279101   4.719   4.484   3.939  0.0697  0.0717 -0.0506
19229TIP3    H179102   4.798   4.515   3.984  0.0106  1.5622 -0.9136
19229TIP3    H279103   4.664   4.449   4.009  0.8699  0.3676  0.7563
19230TIP3   OH279104   4.317   4.646   1.308  0.1029  0.3958  0.6691
19230TIP3    H179105   4.256   4.572   1.298  0.4035 -0.6429  4.9059
19230TIP3    H279106   4.391   4.610   1.356  1.8670  2.7794 -0.0728
19231TIP3   OH279107   1.856   6.533  16.760 -0.1536  0.0062  0.0495
19231TIP3    H179108   1.816   6.609  16.717 -0.3002 -0.6876 -1.0559
19231TIP3    H279109   1.797   6.514  16.833 -0.4284  0.5855 -0.0128
19232TIP3   OH279110   6.772   5.399  15.518 -0.1643  0.4728  0.0455
19232TIP3    H179111   6.865   5.419  15.528 -0.0973  0.2826 -0.1947
19232TIP3    H279112   6.744   5.453  15.444  0.4487 -1.6528 -1.8447
19233TIP3   OH279113   3.712   5.301   0.970  0.4808 -0.2463 -0.1116
19233TIP3    H179114   3.681   5.229   0.915  1.2299 -0.3528 -0.4134
19233TIP3    H279115   3.647   5.370   0.957  1.1273  0.0924 -1.9264
19234TIP3   OH279116   4.599   2.554  10.808 -0.6440  0.5778  0.2176
19234TIP3    H179117   4.640   2.470  10.788 -3.7650 -1.0309 -0.0328
19234TIP3    H279118   4.625   2.612  10.737  1.3970 -0.1895  0.2817
19235TIP3   OH279119   2.818   4.755  11.793  0.2897 -0.1915  0.1497
19235TIP3    H179120   2.845   4.667  11.819  0.5271 -0.4404 -0.8952
19235TIP3    H279121   2.816   4.752  11.697  0.4831  0.9955  0.0966
19236TIP3   OH279122   4.382   4.506  12.167 -0.1190 -0.0969 -0.6788
19236TIP3    H179123   4.471   4.481  12.190 -0.1205  1.1904  0.8857
19236TIP3    H279124   4.339   4.424  12.143  1.1296 -0.8963 -0.2649
19237TIP3   OH279125   0.071   6.625   2.547 -0.5396 -0.7259  0.4163
19237TIP3    H179126   0.152   6.616   2.597 -0.3239  2.9894  1.0027
19237TIP3    H279127   0.097   6.609   2.456  0.6581 -0.4972  0.6944
19238TIP3   OH279128   3.530   5.431  16.392 -0.5810  0.6290  0.4724
19238TIP3    H179129   3.543   5.447  16.486 -1.4268 -1.0352  0.9150
19238TIP3    H279130   3.504   5.515  16.357  3.4737  2.3039  0.9486
19239TIP3   OH279131   2.326   2.908   4.949  0.2947  0.2505  0.4139
19239TIP3    H179132   2.338   2.999   4.922  0.3536  0.2683  0.4989
19239TIP3    H279133   2.382   2.899   5.026 -0.1158  0.2915  0.7265
19240TIP3   OH279134   6.391   3.914   2.802 -0.0032  0.0498  0.2950
19240TIP3    H179135   6.469   3.878   2.844  0.7367 -0.4405 -1.4000
19240TIP3    H279136   6.331   3.840   2.795 -0.1905  0.1695  0.6467
19241TIP3   OH279137   6.285   5.960   0.590  0.1518 -0.0338  0.0999
19241TIP3    H179138   6.375   5.942   0.618  0.8611  1.9422 -0.7602
19241TIP3    H279139   6.286   6.051   0.561 -1.3552 -0.8269 -2.8525
19242TIP3   OH279140   6.646   2.164  15.127  0.3410 -0.3228  0.0526
19242TIP3    H179141   6.605   2.195  15.208  1.4580  2.8629 -0.4628
19242TIP3    H279142   6.575   2.163  15.063  0.1217  0.6065  0.2646
19243TIP3   OH279143   2.070   1.454  17.036 -0.6494  0.2682  0.0816
19243TIP3    H179144   2.143   1.401  17.004 -0.1935  0.0229  1.4233
19243TIP3    H279145   2.112   1.525  17.084 -1.1368  3.3485 -3.5979
19244TIP3   OH279146   2.211   2.588  13.029 -0.2700 -0.4933  0.3314
19244TIP3    H179147   2.170   2.586  13.116 -2.3460  1.1558 -0.4997
19244TIP3    H279148   2.271   2.662  13.033  0.6165 -1.2209  0.7279
19245TIP3   OH279149   4.591   4.706   1.770 -0.1235  0.7248 -0.8857
19245TIP3    H179150   4.658   4.766   1.804 -0.8961  0.4468  1.2607
19245TIP3    H279151   4.541   4.760   1.708  1.1225  1.3649 -1.3759
19246TIP3   OH279152   6.355   1.788   5.957  0.5083 -0.0732 -0.3132
19246TIP3    H179153   6.417   1.717   5.973  0.5561  0.0907  0.2427
19246TIP3    H279154   6.410   1.867   5.950  0.3307  0.1657  0.7742
19247TIP3   OH279155   6.492   5.256  10.723  0.1117 -0.0272  0.0667
19247TIP3    H179156   6.523   5.189  10.661  1.8692  0.2501  0.6081
19247TIP3    H279157   6.397   5.243  10.725 -0.2270  0.7319 -3.6045
19248TIP3   OH279158   1.386   4.962   1.933 -0.3466  0.2865 -0.0230
19248TIP3    H179159   1.444   4.998   1.866  0.6386 -0.8562  0.1990
19248TIP3    H279160   1.311   5.022   1.933  0.5238  1.4286 -0.7621
19249TIP3   OH279161   3.264   4.702   4.471  0.1329 -0.1596 -0.2024
19249TIP3    H179162   3.257   4.694   4.376  1.2489  0.2005 -0.3389
19249TIP3    H279163   3.175   4.720   4.501 -0.4751 -1.6434 -1.0275
19250TIP3   OH279164   2.522   2.240  12.904 -0.1733 -0.5361  0.3258
19250TIP3    H179165   2.491   2.169  12.847  1.2123 -1.4641  0.6826
19250TIP3    H279166   2.594   2.280  12.855  0.0834 -0.4032  0.8145
19251TIP3   OH279167   4.332   3.117   1.718 -0.0061  0.9663  0.5262
19251TIP3    H179168   4.316   3.193   1.662 -0.4696 -0.2711 -1.0860
19251TIP3    H279169   4.252   3.109   1.770  0.1497  1.7243  0.8955
19252TIP3   OH279170   0.880   0.620   4.135 -0.0060  0.4933 -0.0036
19252TIP3    H179171   0.921   0.591   4.217  0.7995  2.1695  0.2424
19252TIP3    H279172   0.952   0.620   4.072 -0.5645 -0.5147 -0.6613
19253TIP3   OH279173   0.259   2.370   0.205 -0.3692  0.5737 -0.3594
19253TIP3    H179174   0.252   2.389   0.299  0.5642 -0.2064 -0.1144
19253TIP3    H279175   0.172   2.390   0.170 -1.0370 -0.0688  0.8615
19254TIP3   OH279176   0.356   0.931  15.378  0.7086  0.3556 -0.4511
19254TIP3    H179177   0.451   0.933  15.366  0.7025 -2.2080 -1.6653
19254TIP3    H279178   0.325   1.013  15.339  2.3246  0.6197 -1.2794
19255TIP3   OH279179   6.425   3.386   3.568  0.4495 -0.4023  0.2304
19255TIP3    H179180   6.342   3.426   3.541  0.9932 -1.1052 -2.9566
19255TIP3    H279181   6.402   3.296   3.590  0.1667 -0.1990  0.7704
19256TIP3   OH279182   1.404   3.017   2.094  0.3381 -0.1088  0.2317
19256TIP3    H179183   1.385   3.109   2.114  0.3879 -0.3431  1.4275
19256TIP3    H279184   1.494   3.018   2.064  0.0040  0.3667 -0.8084
19257TIP3   OH279185   1.059   3.190  14.695  0.3718 -0.5426 -0.3235
19257TIP3    H179186   0.973   3.166  14.659 -0.1105  0.7740 -0.1157
19257TIP3    H279187   1.122   3.140  14.643 -0.5222 -1.7493 -0.3027
19258TIP3   OH279188   6.735   3.229   2.372 -0.1137 -0.4581 -0.6400
19258TIP3    H179189   6.815   3.239   2.320 -0.3825  2.0461 -0.7095
19258TIP3    H279190   6.678   3.300   2.342 -0.9250  0.0897  1.9139
19259TIP3   OH279191   1.377   4.589   3.286  0.3542 -0.3416  0.1952
19259TIP3    H179192   1.416   4.602   3.372 -0.8300 -1.0078  0.8592
19259TIP3    H279193   1.286   4.616   3.296  0.4047  0.4188 -1.0998
19260TIP3   OH279194   4.245   1.453   0.672 -0.5528  0.5878 -0.6088
19260TIP3    H179195   4.303   1.526   0.692 -1.5360  0.6841  2.5356
19260TIP3    H279196   4.272   1.384   0.733 -4.1019  0.9719  1.7710
19261TIP3   OH279197   6.275   3.989  12.409 -0.3522  0.6295 -0.1538
19261TIP3    H179198   6.317   4.073  12.424 -0.6380  1.0081 -1.3913
19261TIP3    H279199   6.309   3.933  12.479  0.6372  1.4711  0.0687
19262TIP3   OH279200   1.958   3.388  16.122  0.0156 -0.5450  0.1722
19262TIP3    H179201   1.980   3.296  16.139  1.1009 -0.1670  0.9936
19262TIP3    H279202   1.895   3.410  16.191  2.0548  0.1207  1.9434
19263TIP3   OH279203   3.049   4.977  12.199  0.2444 -0.1762 -0.2450
19263TIP3    H179204   3.051   5.072  12.187 -1.1056  0.4184  3.0848
19263TIP3    H279205   2.981   4.947  12.139  0.4589  0.9608 -1.1069
19264TIP3   OH279206   4.927   0.322  11.467 -0.2147 -0.0353 -0.2518
19264TIP3    H179207   4.902   0.326  11.375  2.1412 -0.0117 -0.9527
19264TIP3    H279208   4.964   0.408  11.487 -1.9083  0.4323  1.1566
19265TIP3   OH279209   3.880   5.167  12.113  0.0724  0.7469 -0.5828
19265TIP3    H179210   3.970   5.158  12.143  1.2954 -2.2192 -4.3123
19265TIP3    H279211   3.828   5.122  12.180  1.4516  1.5098  1.0674
19266TIP3   OH279212   4.494   4.102   0.275 -0.5570 -0.7214 -0.5231
19266TIP3    H179213   4.587   4.104   0.250 -0.2224 -0.9078  0.6340
19266TIP3    H279214   4.477   4.011   0.297 -0.3072 -0.3045  1.6662
19267TIP3   OH279215   3.914   2.087  10.907 -0.0616  0.3268  0.1962
19267TIP3    H179216   3.900   2.076  11.001  0.7936  0.8154  0.3881
19267TIP3    H279217   3.839   2.140  10.878  0.4478  1.4862  0.9024
19268TIP3   OH279218   2.685   6.377  10.621  0.2284  0.0358  0.4280
19268TIP3    H179219   2.764   6.395  10.671 -0.5116 -0.4188  1.8321
19268TIP3    H279220   2.712   6.316  10.553  0.9462 -0.7382  1.3838
19269TIP3   OH279221   4.914   5.641  12.323  0.1326 -0.6649  0.1775
19269TIP3    H179222   4.999   5.630  12.366  0.1084 -0.4890  0.2705
19269TIP3    H279223   4.934   5.636  12.229  0.3485  0.0799  0.1791
19270TIP3   OH279224   4.108   1.509  16.591 -0.5120  0.0830 -0.1646
19270TIP3    H179225   4.091   1.545  16.678 -1.1224 -1.1049  0.2240
19270TIP3    H279226   4.066   1.571  16.531 -1.9602 -0.2052  0.5203
19271TIP3   OH279227   6.365   0.187  13.168  0.3503  0.9087  0.4486
19271TIP3    H179228   6.300   0.141  13.115 -1.0882  0.0919  2.7875
19271TIP3    H279229   6.414   0.240  13.105 -1.5047  0.3147 -1.6143
19272TIP3   OH279230   0.133   2.916   5.829 -0.3184 -0.3137 -0.5280
19272TIP3    H179231   0.166   2.906   5.739  1.0592  0.1007 -0.0949
19272TIP3    H279232   0.080   2.996   5.826  1.2670  0.7869 -0.5923
19273TIP3   OH279233   2.899   1.538  12.269  0.0361  0.7479 -0.5590
19273TIP3    H179234   2.920   1.557  12.360  0.6171  1.1988 -0.7794
19273TIP3    H279235   2.829   1.473  12.273 -0.8055  1.6591  0.2236
19274TIP3   OH279236   4.951   3.022  12.988  0.0887 -0.3904 -0.2691
19274TIP3    H179237   4.859   3.018  13.011  0.3733 -0.7720  0.8864
19274TIP3    H279238   4.978   2.931  12.981  0.7235 -0.3232  0.9568
19275TIP3   OH279239   6.453   2.558   6.171 -0.1255  0.4163  0.4994
19275TIP3    H179240   6.369   2.521   6.195  0.1598 -0.2917  0.4315
19275TIP3    H279241   6.509   2.482   6.152  0.3234  0.8870 -0.1399
19276TIP3   OH279242   1.743   5.954   4.382 -0.1406 -0.1262  0.5311
19276TIP3    H179243   1.779   6.032   4.423  0.7443  0.0091 -0.4655
19276TIP3    H279244   1.806   5.885   4.401  1.4572  0.3902 -2.3375
19277TIP3   OH279245   6.791   1.544  16.608  0.1598  0.0316 -0.0979
19277TIP3    H179246   6.861   1.483  16.635 -2.4874 -2.3889  1.9173
19277TIP3    H279247   6.790   1.611  16.677  0.2987 -0.1030  0.0379
19278TIP3   OH279248   2.384   0.472   0.943 -0.0032  0.0009  0.2021
19278TIP3    H179249   2.368   0.522   1.023  0.3559  0.6755 -0.1366
19278TIP3    H279250   2.475   0.442   0.951  0.1387  0.3413 -0.0895
19279TIP3   OH279251   6.689   1.657   3.047 -0.0289  0.0610  0.5063
19279TIP3    H179252   6.755   1.614   2.992 -0.7367 -1.4282  0.7465
19279TIP3    H279253   6.723   1.650   3.136  1.0539  2.3542  0.3388
19280TIP3   OH279254   3.682   1.350  13.151  0.0226  0.0229 -0.6071
19280TIP3    H179255   3.621   1.348  13.077 -0.7905 -0.1142  0.0555
19280TIP3    H279256   3.724   1.436  13.146 -0.7211  0.3882 -0.6789
19281TIP3   OH279257   4.575   1.178   0.007 -0.1460 -0.5733  0.0297
19281TIP3    H179258   4.490   1.185  -0.037  0.0012  0.1458 -0.1386
19281TIP3    H279259   4.552   1.159   0.098 -0.6137  2.2852  0.6043
19282TIP3   OH279260   1.807   3.238  13.405  0.0619  0.0796  0.1490
19282TIP3    H179261   1.739   3.197  13.460 -1.2238 -0.7586 -1.9528
19282TIP3    H279262   1.867   3.167  13.385  0.1015  0.2001 -0.1524
19283TIP3   OH279263   0.662   6.804   2.898 -0.0358  0.3782  0.1420
19283TIP3    H179264   0.618   6.770   2.976  0.8401 -2.2477 -0.4040
19283TIP3    H279265   0.596   6.801   2.830  0.1268 -0.6728  0.0155
19284TIP3   OH279266   0.776   2.985   1.629  0.1851  0.0914 -0.6752
19284TIP3    H179267   0.692   2.984   1.674  0.5510 -0.2347  0.0187
19284TIP3    H279268   0.830   3.043   1.682  0.8027 -0.7599 -0.3510
19285TIP3   OH279269   1.155   0.668  12.902 -0.4510 -0.3437  0.1574
19285TIP3    H179270   1.178   0.610  12.829 -1.0812 -0.8749  0.3676
19285TIP3    H279271   1.153   0.756  12.864  1.2516 -0.3435 -0.0059
19286TIP3   OH279272   3.492   0.663  13.196  0.1626  0.3697  0.0064
19286TIP3    H179273   3.402   0.683  13.171 -0.1230 -0.2788  0.4761
19286TIP3    H279274   3.516   0.590  13.140  0.9981  1.6142 -1.3023
19287TIP3   OH279275   5.184   2.071  10.859  0.0325  0.1577  0.2486
19287TIP3    H179276   5.108   2.117  10.822  0.3063  0.4164  0.0032
19287TIP3    H279277   5.199   1.999  10.798 -1.2478 -1.1092  1.3604
19288TIP3   OH279278   0.430   0.657   5.582 -0.3413 -0.0590  0.1810
19288TIP3    H179279   0.388   0.744   5.581 -1.8362 -0.7086 -2.5282
19288TIP3    H279280   0.371   0.603   5.634 -0.2055  0.1683  0.5810
19289TIP3   OH279281   5.304   2.119  17.088 -0.3311  0.2860 -0.4911
19289TIP3    H179282   5.212   2.127  17.110 -0.1126  0.3607  0.4294
19289TIP3    H279283   5.344   2.076  17.164  0.7393  2.0401  0.0030
19290TIP3   OH279284   6.196   3.428   0.828 -0.4492 -0.4838 -0.0129
19290TIP3    H179285   6.254   3.390   0.893  1.2313 -0.1058 -1.2266
19290TIP3    H279286   6.254   3.458   0.758 -1.9113  1.8612 -0.3325
19291TIP3   OH279287   1.524   2.158   0.843  0.1204 -0.7982 -0.3443
19291TIP3    H179288   1.466   2.159   0.919 -1.6014  1.0603 -1.5745
19291TIP3    H279289   1.586   2.229   0.859 -0.8960  0.2979 -1.0731
19292TIP3   OH279290   0.260   5.635  14.249  0.0054  0.0827 -0.0958
19292TIP3    H179291   0.205   5.629  14.171 -0.4896 -0.6542  0.2900
19292TIP3    H279292   0.223   5.570  14.309 -0.6990  1.8263  1.4292
19293TIP3   OH279293   4.681   1.919  15.913 -0.0438  0.3312  0.0351
19293TIP3    H179294   4.598   1.943  15.871 -0.2175  0.2165  0.3088
19293TIP3    H279295   4.744   1.981  15.878 -0.6705  1.8550  1.4576
19294TIP3   OH279296   3.067   5.903  15.117 -0.0030  0.4380  0.2010
19294TIP3    H179297   3.129   5.830  15.113  0.0664  0.4495  0.9240
19294TIP3    H279298   3.015   5.894  15.038  1.7904  1.2222 -1.1392
19295TIP3   OH279299   2.323   5.684   3.491 -0.5019 -0.2545  0.0904
19295TIP3    H179300   2.366   5.743   3.430 -1.5531 -0.6649 -1.0954
19295TIP3    H279301   2.234   5.674   3.457 -0.4632 -2.2433  0.4113
19296TIP3   OH279302   1.063   2.675   0.342 -0.2754 -0.5741 -0.3205
19296TIP3    H179303   0.988   2.620   0.361 -0.4518 -0.5253 -0.8665
19296TIP3    H279304   1.097   2.700   0.428 -1.1780 -0.1954 -0.0601
19297TIP3   OH279305   4.850   2.098   5.157  0.7420 -0.2427  0.5751
19297TIP3    H179306   4.842   2.140   5.243 -0.4603  2.5829 -0.7811
19297TIP3    H279307   4.942   2.112   5.133  0.2431  2.4997 -0.1363
19298TIP3   OH279308   1.915   0.213   2.760 -0.8588  0.4277  0.0217
19298TIP3    H179309   1.835   0.261   2.741 -0.5441  1.0164  0.1614
19298TIP3    H279310   1.922   0.148   2.690 -1.4830  0.3344  0.0427
19299TIP3   OH279311   0.725   4.820  16.171  0.2419  0.4686  0.4120
19299TIP3    H179312   0.722   4.899  16.224  2.4788  0.7223  0.2548
19299TIP3    H279313   0.772   4.846  16.091 -2.5240 -0.0311 -1.5312
19300TIP3   OH279314   1.968   5.288  12.694  0.1078 -0.2764  0.1932
19300TIP3    H179315   1.988   5.294  12.601 -0.9439  0.1343 -0.0141
19300TIP3    H279316   2.019   5.358  12.734  0.7703 -0.6247 -0.0346
19301TIP3   OH279317   0.523   4.508   2.912  0.6911 -0.1389  0.2329
19301TIP3    H179318   0.536   4.527   3.005 -1.0940  4.4387 -0.1898
19301TIP3    H279319   0.605   4.533   2.871  0.5318  0.6083  0.3517
19302TIP3   OH279320   1.098   6.639  13.705 -0.3875  0.1536 -0.3309
19302TIP3    H179321   1.041   6.564  13.718 -0.9907  0.4236 -1.2676
19302TIP3    H279322   1.176   6.603  13.662 -0.2373 -0.0809  0.1327
19303TIP3   OH279323   4.828   6.146  13.451 -0.1675 -0.2460  0.3458
19303TIP3    H179324   4.906   6.177  13.404 -2.3685  2.6484 -1.7692
19303TIP3    H279325   4.841   6.177  13.541  1.1289  0.1244  0.0606
19304TIP3   OH279326   6.001   4.095  11.325  0.7549 -0.1343 -0.0045
19304TIP3    H179327   5.952   4.177  11.321  1.8381  0.5439  0.4164
19304TIP3    H279328   6.061   4.099  11.251 -0.0554 -1.1338 -0.7441
19305TIP3   OH279329   5.911   5.635  16.061 -0.1487  0.7576 -0.1654
19305TIP3    H179330   5.855   5.670  15.992  0.5223  1.6663 -0.2579
19305TIP3    H279331   5.905   5.540  16.050 -0.1750  0.8854 -1.3718
19306TIP3   OH279332   3.329   2.803  17.004 -0.8004  0.3893 -0.1935
19306TIP3    H179333   3.246   2.791  17.051  0.3884 -0.4891  1.7770
19306TIP3    H279334   3.339   2.723  16.952 -2.0205  1.2810 -1.9414
19307TIP3   OH279335   0.224   1.449   3.747 -0.4748  0.1593  0.2165
19307TIP3    H179336   0.292   1.454   3.815 -1.2350  1.8892  0.9009
19307TIP3    H279337   0.197   1.540   3.733 -2.9178 -0.4899  0.2375
19308TIP3   OH279338   1.414   2.888  16.363  0.3476 -0.4412  0.3203
19308TIP3    H179339   1.406   2.955  16.431  0.5019 -1.8035  1.7229
19308TIP3    H279340   1.377   2.929  16.284 -1.5896  0.5418  1.6700
19309TIP3   OH279341   4.032   3.375   3.840 -0.6074 -0.6167  0.2567
19309TIP3    H179342   4.114   3.338   3.872  0.2181  0.0452 -0.9801
19309TIP3    H279343   3.964   3.315   3.871  0.4114 -1.5500  0.7395
19310TIP3   OH279344   2.745   4.033   5.992  0.1483  0.1347  0.3037
19310TIP3    H179345   2.725   4.114   5.945  0.5924 -0.3723 -0.7920
19310TIP3    H279346   2.746   4.058   6.085  0.5932  1.4512 -0.0378
19311TIP3   OH279347   2.127   1.189   0.213  0.2231  0.5146  0.0013
19311TIP3    H179348   2.128   1.147   0.126  0.3554 -1.9881  1.1184
19311TIP3    H279349   2.166   1.275   0.199  0.4418  0.0901 -2.3680
19312TIP3   OH279350   5.971   0.324  13.456 -0.1147  0.3690 -0.0914
19312TIP3    H179351   6.003   0.410  13.430 -0.8463  0.7265  0.1630
19312TIP3    H279352   5.875   0.330  13.448 -0.1959 -0.3073  0.2675
19313TIP3   OH279353   0.902   0.003  10.924 -0.0716  0.3002  0.0853
19313TIP3    H179354   0.819   0.019  10.970 -0.8868  0.3938 -1.3556
19313TIP3    H279355   0.882  -0.067  10.862  1.4401 -0.9596  0.9576
19314TIP3   OH279356   6.006   2.163  13.964 -0.0954  0.0550 -0.3037
19314TIP3    H179357   6.047   2.249  13.974 -1.4937  0.6969  0.1484
19314TIP3    H279358   6.036   2.113  14.041 -0.4878  0.6668  0.2596
19315TIP3   OH279359   4.645   5.647   3.385 -0.8701 -0.0364  0.0361
19315TIP3    H179360   4.672   5.590   3.457 -1.8837 -1.1402 -0.4200
19315TIP3    H279361   4.582   5.595   3.336  0.6182  0.2374 -2.3363
19316TIP3   OH279362   5.972   3.173   6.355 -0.7401  0.3225  0.1579
19316TIP3    H179363   5.944   3.115   6.284 -0.0566  1.2190 -0.8823
19316TIP3    H279364   6.028   3.118   6.410  0.0319  0.0254 -0.9015
19317TIP3   OH279365   1.475   3.413  11.413  0.4378  0.2890 -0.4554
19317TIP3    H179366   1.514   3.458  11.338  1.0491  0.7060  0.1024
19317TIP3    H279367   1.551   3.378  11.461  0.1161  0.9437  0.5432
19318TIP3   OH279368   1.630   5.704   5.376  0.3239 -0.3053 -0.3945
19318TIP3    H179369   1.611   5.721   5.284  0.1976 -0.4847 -0.4014
19318TIP3    H279370   1.641   5.791   5.414  2.6479 -0.2672 -1.0438
19319TIP3   OH279371   4.005   2.284  14.062 -0.0315  0.1057 -1.1076
19319TIP3    H179372   4.005   2.379  14.076  0.5575  0.0504 -0.6520
19319TIP3    H279373   3.926   2.253  14.106  0.7245  0.1861  0.4052
19320TIP3   OH279374   3.770   1.300  12.628 -0.0760 -0.3453  0.0088
19320TIP3    H179375   3.742   1.299  12.719  0.7919 -0.1465  0.2863
19320TIP3    H279376   3.712   1.238  12.584  0.0936 -1.1376  0.8724
19321TIP3   OH279377   3.710   4.236  15.973  0.4152 -0.6691 -0.6609
19321TIP3    H179378   3.644   4.210  15.908 -1.8330 -1.6163  1.8332
19321TIP3    H279379   3.732   4.155  16.018 -0.7019  0.4017  2.0016
19322TIP3   OH279380   0.459   2.604   3.685 -0.1457 -0.7039 -0.5620
19322TIP3    H179381   0.405   2.629   3.610 -0.9071 -0.3762  0.0706
19322TIP3    H279382   0.403   2.622   3.761  0.7488 -0.6484  0.1010
19323TIP3   OH279383   0.217   5.176   5.458  0.2873 -0.3945  0.1667
19323TIP3    H179384   0.304   5.189   5.420  0.2999  0.2239  0.3885
19323TIP3    H279385   0.167   5.252   5.430 -0.3650 -1.0328 -0.4389
19324TIP3   OH279386   6.561   4.125   0.532 -0.3113 -0.4196  0.7985
19324TIP3    H179387   6.621   4.139   0.605  0.8622  0.2861 -0.2608
19324TIP3    H279388   6.487   4.078   0.570  0.3002 -0.1279  2.4183
19325TIP3   OH279389   3.441   1.150  11.402 -0.1588  0.2306 -0.1314
19325TIP3    H179390   3.518   1.108  11.440  0.3989  1.8641  0.6245
19325TIP3    H279391   3.371   1.135  11.466  0.0971  0.6664  0.2477
19326TIP3   OH279392   0.225   5.487  16.412 -0.5274  0.6431  0.3658
19326TIP3    H179393   0.174   5.559  16.449 -1.1131  0.0742  0.6982
19326TIP3    H279394   0.316   5.513  16.423 -0.7194  1.0129  1.1299
19327TIP3   OH279395   5.552   2.587   2.196  0.2696  0.1925 -0.1909
19327TIP3    H179396   5.541   2.531   2.119 -0.7576  1.1615 -0.7839
19327TIP3    H279397   5.467   2.585   2.240  0.4431  0.6794  0.1832
19328TIP3   OH279398   4.149   5.874   0.622  0.2706  0.0402  0.0057
19328TIP3    H179399   4.149   5.928   0.701 -0.2916 -0.2591  0.2151
19328TIP3    H279400   4.065   5.828   0.624  0.0052  0.4538 -1.0545
19329TIP3   OH279401   4.900   1.656   3.163 -0.0866 -0.3064  0.6206
19329TIP3    H179402   4.953   1.723   3.121 -1.3378 -0.5427 -1.4585
19329TIP3    H279403   4.930   1.574   3.125 -2.1535 -0.4102 -0.9589
19330TIP3   OH279404   5.264   6.056   0.572 -0.0497  0.3414 -0.0400
19330TIP3    H179405   5.283   6.034   0.481  0.2854  1.0776 -0.1567
19330TIP3    H279406   5.350   6.061   0.614  0.0080  2.6784 -0.3292
19331TIP3   OH279407   1.271   4.440  11.201  0.4104  0.5193  0.2240
19331TIP3    H179408   1.226   4.393  11.131 -0.3032  1.5879 -0.0634
19331TIP3    H279409   1.363   4.438  11.175  0.0004  2.3022 -1.6685
19332TIP3   OH279410   3.747   3.097  13.267  0.2662 -0.2200  0.5196
19332TIP3    H179411   3.804   3.174  13.275  0.1682  0.2429 -2.2103
19332TIP3    H279412   3.805   3.027  13.237 -0.1428 -0.4379  0.2199
19333TIP3   OH279413   1.244   5.628   1.659 -0.1806  0.0015 -0.1583
19333TIP3    H179414   1.304   5.568   1.703  2.8126 -0.5064 -4.3441
19333TIP3    H279415   1.174   5.571   1.626  0.9306 -0.7269 -1.3506
19334TIP3   OH279416   5.041   2.500   4.033 -0.1501  0.1510 -0.6210
19334TIP3    H179417   4.983   2.506   4.110  0.4102 -1.4106 -0.0305
19334TIP3    H279418   4.981   2.488   3.959 -0.6468 -3.3577  0.1968
19335TIP3   OH279419   2.524   5.744  16.568 -0.2505 -0.0500  0.2552
19335TIP3    H179420   2.552   5.805  16.500 -0.4174 -0.3344 -0.0742
19335TIP3    H279421   2.513   5.660  16.522 -2.1637  0.1643  0.2407
19336TIP3   OH279422   3.389   4.731   0.976  0.6069 -0.2536  0.2549
19336TIP3    H179423   3.419   4.819   0.952 -1.2594  0.2801 -0.3087
19336TIP3    H279424   3.358   4.693   0.893 -0.5502 -0.6232  0.8377
19337TIP3   OH279425   0.623   5.752   0.238 -0.2342 -0.1069  0.4922
19337TIP3    H179426   0.714   5.724   0.229 -0.3661 -0.3037 -0.3036
19337TIP3    H279427   0.572   5.682   0.197 -0.8378 -0.5608  1.9286
19338TIP3   OH279428   4.503   3.746   4.812  0.2331  0.4049 -0.0856
19338TIP3    H179429   4.574   3.704   4.860  2.0718  2.8079 -0.5683
19338TIP3    H279430   4.434   3.679   4.810  2.0253 -1.6387  1.3261
19339TIP3   OH279431   0.390   3.639  14.896 -0.0220 -0.2240  0.7205
19339TIP3    H179432   0.339   3.595  14.827  1.8614  0.7286 -1.4025
19339TIP3    H279433   0.330   3.703  14.933 -1.3312 -1.3042  0.5323
19340TIP3   OH279434   1.333   4.036   4.235  0.1562  0.7305 -0.3313
19340TIP3    H179435   1.251   4.015   4.278  1.1208  0.4700  1.4975
19340TIP3    H279436   1.341   4.131   4.242  2.0687  0.4672  3.7376
19341TIP3   OH279437   4.076   1.833   5.218  0.0220 -0.3249 -0.0977
19341TIP3    H179438   4.100   1.894   5.287 -1.7927  1.1153 -0.6626
19341TIP3    H279439   3.987   1.806   5.239 -0.5311  0.0661 -1.7911
19342TIP3   OH279440   4.005   2.457   2.254 -0.1800 -0.3671 -0.0055
19342TIP3    H179441   4.078   2.512   2.224 -0.4442 -0.2688 -0.4676
19342TIP3    H279442   3.940   2.519   2.285 -0.1761 -0.4465  0.1603
19343TIP3   OH279443   5.935   1.718   5.469  0.2576 -0.1449 -0.3067
19343TIP3    H179444   5.975   1.636   5.499 -0.3356 -0.7859 -1.2051
19343TIP3    H279445   5.863   1.733   5.530 -1.1428 -1.6148 -1.5161
19344TIP3   OH279446   5.643   0.297   5.747 -0.5532 -0.4055 -0.2899
19344TIP3    H179447   5.729   0.277   5.709 -0.2479 -0.3392  0.3610
19344TIP3    H279448   5.581   0.268   5.680 -0.0216 -0.1898 -0.8928
19345TIP3   OH279449   4.141   2.497  14.449  0.2929 -0.4155 -0.1111
19345TIP3    H179450   4.160   2.562  14.382 -0.1839  0.5099  0.6273
19345TIP3    H279451   4.057   2.459  14.423 -0.2826  0.4947  0.3437
19346TIP3   OH279452   5.950   2.557   5.585 -0.8177  0.2997 -0.8748
19346TIP3    H179453   5.854   2.553   5.578 -1.0655  1.0217  1.4554
19346TIP3    H279454   5.967   2.550   5.679  1.5957 -2.5492 -1.3785
19347TIP3   OH279455   3.139   1.689  11.851 -0.1317 -0.1459 -0.1496
19347TIP3    H179456   3.162   1.666  11.941 -0.5588 -0.0248 -0.0084
19347TIP3    H279457   3.214   1.740  11.819 -0.0221 -0.1071  0.1712
19348TIP3   OH279458   1.118   0.075   4.914  0.0648  0.5166 -0.0523
19348TIP3    H179459   1.141   0.153   4.966  0.7331 -0.7606  1.6623
19348TIP3    H279460   1.192   0.065   4.854  0.2945  0.8485  0.1648
19349TIP3   OH279461   6.238   6.272  13.482  0.1992 -0.5141 -0.2118
19349TIP3    H179462   6.267   6.266  13.573  0.2156  0.4676 -0.1432
19349TIP3    H279463   6.207   6.183  13.461  1.5682 -1.1331  0.2676
19350TIP3   OH279464   5.316   1.213  10.318 -0.0647 -0.0687 -0.0090
19350TIP3    H179465   5.361   1.215  10.234  0.5828 -0.5810  0.3164
19350TIP3    H279466   5.230   1.175  10.299 -0.0671  0.1748 -0.4968
19351TIP3   OH279467   3.554   6.313   1.156 -0.1656 -0.5216  0.5719
19351TIP3    H179468   3.604   6.305   1.075 -0.4908 -0.2449  0.3400
19351TIP3    H279469   3.538   6.407   1.164 -1.0510 -0.6551  0.3943
19352TIP3   OH279470   3.619   6.556  14.581 -0.3594  0.0534  0.7247
19352TIP3    H179471   3.601   6.564  14.675 -0.6212 -1.7219  0.8674
19352TIP3    H279472   3.698   6.501  14.577  0.2715  0.9870 -0.0953
19353TIP3   OH279473   4.023   0.609   5.593 -0.5881  0.3325  0.2162
19353TIP3    H179474   3.963   0.656   5.651 -0.4616 -0.9800  1.4587
19353TIP3    H279475   4.072   0.678   5.548 -3.3838  1.5098 -1.3210
19354TIP3   OH279476   2.879   0.442  11.646 -0.1486  0.3144  0.2257
19354TIP3    H179477   2.871   0.398  11.730 -1.1523 -2.2099 -1.0817
19354TIP3    H279478   2.792   0.479  11.630 -0.2811 -0.1410 -0.1440
19355TIP3   OH279479   3.527   0.437   4.403 -0.2990 -0.0247  0.0814
19355TIP3    H179480   3.594   0.377   4.369  0.5832 -0.2855  2.0847
19355TIP3    H279481   3.448   0.416   4.354  0.3686 -1.8082 -0.3093
19356TIP3   OH279482   0.790   3.691  14.410  0.7330 -0.2197  0.2266
19356TIP3    H179483   0.723   3.638  14.367  2.3022 -1.8960 -0.2946
19356TIP3    H279484   0.770   3.781  14.383  0.5360 -0.9860 -2.5671
19357TIP3   OH279485   6.641   6.009   4.761 -0.0721 -0.1115 -0.0465
19357TIP3    H179486   6.662   5.917   4.773  1.7807  0.3979  1.0682
19357TIP3    H279487   6.558   6.021   4.806 -1.1216 -1.5102 -1.5030
19358TIP3   OH279488   4.395   5.889   1.141 -0.5104  0.5128  0.3880
19358TIP3    H179489   4.471   5.913   1.193  0.0523 -0.0514 -0.1461
19358TIP3    H279490   4.320   5.917   1.192  0.0221 -0.1895  1.5896
19359TIP3   OH279491   0.896   3.363  11.316 -0.5262 -0.0833 -0.3931
19359TIP3    H179492   0.850   3.314  11.385 -0.3343 -2.4761 -1.8393
19359TIP3    H279493   0.979   3.389  11.357 -0.1261 -2.0272  0.1630
19360TIP3   OH279494   6.314   6.382  11.315  0.2229  0.0457 -0.0080
19360TIP3    H179495   6.237   6.344  11.357 -1.0808  1.6658 -0.7970
19360TIP3    H279496   6.308   6.353  11.224  0.7859 -0.1603  0.0185
19361TIP3   OH279497   3.816   4.931   3.188  0.1368 -0.2187  0.0729
19361TIP3    H179498   3.838   4.857   3.131  0.9564 -0.6058  0.8679
19361TIP3    H279499   3.899   4.978   3.199 -0.4421  1.0210 -0.6852
19362TIP3   OH279500   6.307   2.416   4.522  0.5173  0.3219 -0.0783
19362TIP3    H179501   6.340   2.506   4.524  1.5780  0.0570 -2.0929
19362TIP3    H279502   6.304   2.388   4.614 -0.5254  2.6103  0.6468
19363TIP3   OH279503   1.492   1.475  15.595  0.3771 -0.0382 -0.1545
19363TIP3    H179504   1.436   1.453  15.670  1.3326  1.7288  1.1723
19363TIP3    H279505   1.457   1.424  15.523 -3.5310  1.5909  0.3575
19364TIP3   OH279506   5.912   5.648   2.195 -0.1997 -0.6131  0.7314
19364TIP3    H179507   5.977   5.624   2.130 -1.3012 -1.0929 -0.2263
19364TIP3    H279508   5.934   5.738   2.219  1.2596 -1.0249  1.0177
19365TIP3   OH279509   1.535   2.320   5.481  0.4416  0.3515 -0.7757
19365TIP3    H179510   1.537   2.285   5.393 -0.0805 -0.0363 -0.6373
19365TIP3    H279511   1.621   2.361   5.493  0.2081  1.1794 -1.7716
19366TIP3   OH279512   5.347   4.035  11.522  0.8781  1.2304 -0.3208
19366TIP3    H179513   5.316   4.014  11.434 -0.2804 -0.9701  0.5405
19366TIP3    H279514   5.426   4.087  11.508  1.3431  0.0186 -2.6659
19367TIP3   OH279515   6.635   6.306   3.234  0.4034  0.1275  0.2081
19367TIP3    H179516   6.652   6.226   3.183  0.4852 -0.4020  1.0489
19367TIP3    H279517   6.570   6.354   3.182  1.3279  0.1624 -0.9619
19368TIP3   OH279518   5.958   4.698   2.332  0.1732 -0.0331 -0.6941
19368TIP3    H179519   5.909   4.714   2.413 -0.2781  0.5186 -1.0679
19368TIP3    H279520   5.939   4.607   2.309 -1.3523  0.4128 -1.2778
19369TIP3   OH279521   2.662   1.309   4.885  0.2490 -0.1485 -0.1451
19369TIP3    H179522   2.669   1.278   4.794  2.4837  1.6507 -0.6932
19369TIP3    H279523   2.648   1.403   4.877  3.7392  0.6432  1.2236
19370TIP3   OH279524   1.175   6.023   4.914  0.3581 -0.9100 -0.0289
19370TIP3    H179525   1.234   5.948   4.925  0.6228 -0.7176 -0.1309
19370TIP3    H279526   1.125   6.027   4.996 -0.6799 -2.0763 -0.5674
19371TIP3   OH279527   2.376   3.783  16.991 -0.1114  0.2751 -0.3269
19371TIP3    H179528   2.370   3.695  17.028 -0.7225  0.5794  0.3312
19371TIP3    H279529   2.441   3.827  17.045  1.0276 -0.0984 -1.3615
19372TIP3   OH279530   2.893   0.103  14.655  0.0235  0.4580 -0.4796
19372TIP3    H179531   2.856   0.066  14.735  0.7110 -0.4787 -0.5909
19372TIP3    H279532   2.816   0.124  14.601 -0.3711 -1.2683 -0.6263
19373TIP3   OH279533   6.813   1.660   2.735  0.2333  0.5218 -0.0518
19373TIP3    H179534   6.824   1.751   2.759 -1.3739  0.7039  0.0670
19373TIP3    H279535   6.742   1.660   2.671  0.3479 -0.6186 -0.2023
19374TIP3   OH279536   4.587   4.044   1.431 -0.3620 -0.3511  0.0583
19374TIP3    H179537   4.668   4.069   1.476 -0.5615  0.5951 -0.0847
19374TIP3    H279538   4.543   3.985   1.492  0.3611 -0.7522  0.2013
19375TIP3   OH279539   4.408   0.095   2.768 -0.4647 -0.4076  0.2261
19375TIP3    H179540   4.415   0.073   2.860 -1.6071  0.2429  0.5012
19375TIP3    H279541   4.346   0.169   2.766 -0.9002 -0.7752 -1.1007
19376TIP3   OH279542   2.776   0.827   4.989  0.5861 -0.0571  0.3228
19376TIP3    H179543   2.701   0.831   4.929  0.4111  1.1232  0.6018
19376TIP3    H279544   2.738   0.842   5.075  1.2973  1.9915  0.3303
19377TIP3   OH279545   1.507   5.285  15.621  0.5376  0.1490 -0.3529
19377TIP3    H179546   1.434   5.277  15.683  1.0653  1.2841  0.4603
19377TIP3    H279547   1.584   5.266  15.674  1.0612  1.8409 -0.4623
19378TIP3   OH279548   4.557   1.635  14.078 -0.0976 -0.4048  0.0182
19378TIP3    H179549   4.596   1.558  14.037  1.9252  0.6118 -0.0876
19378TIP3    H279550   4.505   1.600  14.150 -0.1895 -1.9284 -0.7511
19379TIP3   OH279551   2.116   1.336  12.521 -0.1619  0.1436  0.3182
19379TIP3    H179552   2.205   1.368  12.513 -0.2974  0.5249  0.3179
19379TIP3    H279553   2.117   1.251  12.477  0.5481 -0.5270  1.5576
19380TIP3   OH279554   1.846   5.376   2.940  0.4401  0.0202  0.2364
19380TIP3    H179555   1.892   5.393   2.858  1.4219 -0.4137  0.6801
19380TIP3    H279556   1.904   5.317   2.988 -0.4413 -0.2824  0.9572
19381TIP3   OH279557   4.638   6.149   5.882 -0.4337 -0.0986  0.3004
19381TIP3    H179558   4.607   6.101   5.805  1.4547 -0.4181 -0.3055
19381TIP3    H279559   4.720   6.189   5.854  0.6484 -0.7672  2.3007
19382TIP3   OH279560   1.260   0.880   1.276  0.3056 -0.0844 -0.5256
19382TIP3    H179561   1.293   0.867   1.365 -2.0828 -2.7596  0.1260
19382TIP3    H279562   1.282   0.799   1.230  0.3220  0.7236 -1.9895
19383TIP3   OH279563   6.597   1.666   0.916 -0.1463  0.6740  0.0113
19383TIP3    H179564   6.556   1.585   0.947 -0.7882  0.3326 -1.6177
19383TIP3    H279565   6.561   1.734   0.973 -1.1486  0.0589  0.1374
19384TIP3   OH279566   0.047   5.441   2.444 -0.1966  0.2416  0.6469
19384TIP3    H179567   0.028   5.350   2.421 -0.9641  0.8158 -1.2436
19384TIP3    H279568  -0.032   5.472   2.488 -1.1274  0.7431 -1.2569
19385TIP3   OH279569   3.570   0.681  16.945 -0.0648 -0.4321  0.6109
19385TIP3    H179570   3.569   0.587  16.961 -0.9725 -0.6097 -0.3892
19385TIP3    H279571   3.516   0.693  16.867  1.1892  0.7643 -0.1187
19386TIP3   OH279572   1.414   4.936   6.138  0.3104 -0.0591  0.0203
19386TIP3    H179573   1.337   4.991   6.148 -0.1706 -0.4616 -1.2023
19386TIP3    H279574   1.383   4.847   6.156  0.4363 -0.2433 -0.6333
19387TIP3   OH279575   4.407   1.978   3.523 -0.0089 -0.2042  0.2946
19387TIP3    H179576   4.451   1.901   3.559  0.5084  0.1387  0.4031
19387TIP3    H279577   4.318   1.948   3.502  0.8992 -1.4873 -1.9900
19388TIP3   OH279578   5.518   2.247   3.492 -0.4493 -0.1235  0.4379
19388TIP3    H179579   5.596   2.275   3.444 -0.6080 -1.0031 -0.3544
19388TIP3    H279580   5.487   2.170   3.445 -0.7261 -0.9061  1.8591
19389TIP3   OH279581   3.588   2.494  12.596 -0.6404 -0.5156 -0.3438
19389TIP3    H179582   3.577   2.440  12.673 -0.7760 -0.8736 -0.6114
19389TIP3    H279583   3.569   2.436  12.522 -0.9959 -0.0501 -0.6244
19390TIP3   OH279584   4.933   2.453   5.612 -0.0502  0.6274 -0.7132
19390TIP3    H179585   4.936   2.402   5.531  2.7523 -0.9227  0.2454
19390TIP3    H279586   4.879   2.400   5.671 -2.0226  1.7176 -1.4218
19391TIP3   OH279587   4.565   3.500   2.690  0.2787 -0.0487  0.0854
19391TIP3    H179588   4.563   3.561   2.617 -0.2400  0.7758  0.7778
19391TIP3    H279589   4.516   3.543   2.760 -1.4841 -1.9158  0.0948
19392TIP3   OH279590   0.097   0.566  14.813 -0.4331  0.2866 -0.1261
19392TIP3    H179591   0.122   0.482  14.774 -1.1945 -0.1960  0.4007
19392TIP3    H279592   0.118   0.631  14.746 -1.2732 -0.4788 -1.1692
19393TIP3   OH279593   0.114   1.356   0.758 -0.3110 -0.5344  0.3130
19393TIP3    H179594   0.172   1.394   0.824 -1.5639 -0.2186  1.2720
19393TIP3    H279595   0.076   1.431   0.713 -0.0990 -0.7357 -0.2044
19394TIP3   OH279596   3.477   5.100  14.610 -0.2686  0.9200 -0.5755
19394TIP3    H179597   3.565   5.121  14.578  0.1589  0.3322  0.1769
19394TIP3    H279598   3.470   5.146  14.693 -0.1182 -0.1764  0.0646
19395TIP3   OH279599   1.073   1.738   0.349 -0.1434  0.1349 -0.1462
19395TIP3    H179600   1.164   1.737   0.319  0.0475 -1.5230  0.3917
19395TIP3    H279601   1.072   1.680   0.425 -1.6311  0.2281 -0.0674
19396TIP3   OH279602   5.905   3.751  14.339 -0.6778  0.8927 -0.4530
19396TIP3    H179603   5.879   3.790  14.422 -0.2979 -0.7751  0.4930
19396TIP3    H279604   5.895   3.657  14.352 -0.0658  0.5557 -2.1116
19397TIP3   OH279605   2.242   5.268   1.189  0.0552  0.5121 -0.2513
19397TIP3    H179606   2.199   5.327   1.251  0.1850 -0.1745  0.4963
19397TIP3    H279607   2.335   5.278   1.206  0.1471  1.0515 -1.0133
19398TIP3   OH279608   0.450   2.947  15.050 -0.2262  0.3722  0.4767
19398TIP3    H179609   0.423   2.972  15.139  1.0350 -0.4429  1.1215
19398TIP3    H279610   0.500   3.022  15.018 -3.6660  2.2578 -1.0500
19399TIP3   OH279611   2.839   5.262   4.128  0.3477  0.5963  0.1453
19399TIP3    H179612   2.854   5.345   4.082  2.1685  0.4501  0.4050
19399TIP3    H279613   2.821   5.287   4.218 -0.2588  0.7488 -0.0138
19400TIP3   OH279614   0.629   5.285  12.222 -0.7503  0.2637  0.1007
19400TIP3    H179615   0.576   5.344  12.275  0.6954  0.0118  1.9536
19400TIP3    H279616   0.628   5.202  12.270 -1.5578 -0.8362 -1.7005
19401TIP3   OH279617   4.271   1.777   4.441 -0.2346 -0.5742 -0.3682
19401TIP3    H179618   4.316   1.849   4.397 -0.2110  0.4292  1.1977
19401TIP3    H279619   4.236   1.816   4.521 -0.3223 -2.2818  0.4798
19402TIP3   OH279620   3.057   0.504  12.738 -0.0117 -0.5291  0.3369
19402TIP3    H179621   3.092   0.484  12.825  0.5303  0.6693  0.4107
19402TIP3    H279622   3.042   0.599  12.739  0.8769 -0.3402 -1.1738
19403TIP3   OH279623   0.685   0.818   2.818  0.2082  0.6420 -0.0046
19403TIP3    H179624   0.597   0.850   2.798 -0.0310  1.2412  1.8388
19403TIP3    H279625   0.734   0.896   2.843  1.8183  0.5815 -2.5966
19404TIP3   OH279626   3.110   3.935   4.417 -0.1571 -0.5124 -0.3960
19404TIP3    H179627   3.026   3.907   4.453  0.0787  0.0730  0.6377
19404TIP3    H279628   3.086   3.985   4.339 -0.7314 -0.9520 -0.5081
19405TIP3   OH279629   6.297   6.465   2.866 -0.2752 -0.5935 -0.0266
19405TIP3    H179630   6.203   6.481   2.878 -0.3307 -1.3630  0.7159
19405TIP3    H279631   6.306   6.441   2.774 -0.6533  0.4317 -0.3479
19406TIP3   OH279632   0.011   5.391   5.104  0.0196  0.2444  0.2422
19406TIP3    H179633  -0.061   5.449   5.129  1.0135  0.7953  2.0009
19406TIP3    H279634   0.041   5.425   5.020 -0.8414  0.8838  0.1739
19407TIP3   OH279635   6.381   2.671  17.003  0.2047  0.7921  0.3542
19407TIP3    H179636   6.363   2.678  17.097  1.6128  1.9102  0.5735
19407TIP3    H279637   6.332   2.742  16.964  0.4761  1.0021  0.3889
19408TIP3   OH279638   4.231   0.462   0.471  0.1519  0.2932 -0.0606
19408TIP3    H179639   4.267   0.448   0.558 -0.0899 -1.4479 -0.1899
19408TIP3    H279640   4.300   0.433   0.411 -0.9662 -2.0514 -0.3244
19409TIP3   OH279641   0.363   5.930   6.152  0.0278 -0.4945 -0.7552
19409TIP3    H179642   0.366   5.835   6.160 -0.3667 -0.5849 -1.6195
19409TIP3    H279643   0.436   5.961   6.206 -0.0545 -1.2619 -0.1924
19410TIP3   OH279644   1.461   4.690   5.524 -0.7049 -0.3036 -0.0448
19410TIP3    H179645   1.548   4.655   5.509  0.3765  1.9419  0.4735
19410TIP3    H279646   1.435   4.654   5.609 -0.2667 -0.9503 -0.1760
19411TIP3   OH279647   2.825   0.588  14.607  0.7365 -0.3975  0.0404
19411TIP3    H179648   2.796   0.504  14.641 -1.1603  0.6389  1.1161
19411TIP3    H279649   2.787   0.593  14.519 -3.0053  1.1212  1.5804
19412TIP3   OH279650   2.301   2.496   2.710  0.1244  0.3427 -0.2686
19412TIP3    H179651   2.210   2.515   2.689  0.2733  1.4232  0.0125
19412TIP3    H279652   2.325   2.424   2.651 -1.2246 -0.7455  0.4317
19413TIP3   OH279653   2.518   3.522   5.793  0.0408  0.0784 -0.0798
19413TIP3    H179654   2.498   3.591   5.857 -3.3342 -0.6581 -0.1861
19413TIP3    H279655   2.465   3.447   5.820  2.0665 -1.8897 -1.1371
19414TIP3   OH279656   4.358   5.617  12.696 -0.4808  0.7062  0.0751
19414TIP3    H179657   4.362   5.551  12.765 -0.3705  0.3190 -0.2961
19414TIP3    H279658   4.415   5.688  12.726  0.4734  0.0478 -0.1321
19415TIP3   OH279659   3.941   0.474  16.071  0.3083 -0.1052 -0.6286
19415TIP3    H179660   3.921   0.453  16.162  0.0356  3.8042  0.3957
19415TIP3    H279661   4.002   0.405  16.043 -0.1565 -1.8329  2.2197
19416TIP3   OH279662   6.472   4.911   4.694 -0.2479 -0.2816  0.1422
19416TIP3    H179663   6.378   4.926   4.701 -0.2625  0.0913 -0.7672
19416TIP3    H279664   6.501   4.969   4.623  0.4782 -1.1628 -0.3071
19417TIP3   OH279665   0.243   6.616  15.652  0.2050 -0.7103 -0.0868
19417TIP3    H179666   0.246   6.610  15.557  4.5344 -1.3190 -0.1190
19417TIP3    H279667   0.234   6.526  15.682  1.3994 -0.8313 -0.0211
19418TIP3   OH279668   1.100   4.229  10.590  0.1757 -0.0684 -0.9522
19418TIP3    H179669   1.043   4.234  10.667 -1.6720 -0.4316 -2.2399
19418TIP3    H279670   1.081   4.143  10.552  2.1340 -0.5024 -1.0561
19419TIP3   OH279671   3.517   6.084   4.469 -0.2720  0.3873  0.0973
19419TIP3    H179672   3.551   6.090   4.558  0.1298 -0.4111  0.0129
19419TIP3    H279673   3.425   6.111   4.476 -0.4923 -0.5127  0.9220
19420TIP3   OH279674   1.837   2.801   5.721 -0.1075 -0.2835 -0.0353
19420TIP3    H179675   1.884   2.854   5.785 -1.9799  0.2393  0.9990
19420TIP3    H279676   1.827   2.716   5.762  1.1706 -0.8632 -0.8695
19421TIP3   OH279677   0.517   3.416  14.242  0.5251  0.1698  0.5528
19421TIP3    H179678   0.430   3.451  14.256  1.0629  1.7311  0.1479
19421TIP3    H279679   0.513   3.327  14.276 -0.9817  0.4949  1.2831
19422TIP3   OH279680   2.273   2.845  14.132 -0.3124  0.4414 -0.7344
19422TIP3    H179681   2.358   2.800  14.128 -0.3581  0.4350 -2.3855
19422TIP3    H279682   2.276   2.894  14.214  1.1657  0.1822 -0.6027
19423TIP3   OH279683   5.690   5.609  16.512  0.4110 -0.2215 -0.2101
19423TIP3    H179684   5.777   5.647  16.496  0.3379 -0.7542 -2.0066
19423TIP3    H279685   5.658   5.655  16.590  1.4915  1.3851 -0.6686
19424TIP3   OH279686   2.744   1.323   6.501 -0.1710 -0.3326 -0.3935
19424TIP3    H179687   2.687   1.386   6.456  0.7269 -0.2214 -1.4304
19424TIP3    H279688   2.689   1.286   6.570 -0.1241  3.2333  1.8184
19425TIP3   OH279689   0.875   4.191   1.146  0.9036 -0.2606 -0.1197
19425TIP3    H179690   0.919   4.259   1.096  1.2216 -1.7381 -1.9568
19425TIP3    H279691   0.827   4.239   1.215  0.0601  1.9315 -2.0880
19426TIP3   OH279692   1.428   5.899   5.933 -0.2696 -0.3292  0.4721
19426TIP3    H179693   1.478   5.969   5.977 -0.9469  0.0015  0.7315
19426TIP3    H279694   1.442   5.915   5.840  0.0221 -0.1744  0.5401
19427TIP3   OH279695   2.915   1.701   3.371  0.3627  0.0761  0.2271
19427TIP3    H179696   2.933   1.755   3.294  0.1284 -0.3057 -0.0967
19427TIP3    H279697   2.823   1.678   3.363  0.5877 -0.8056  0.0869
19428TIP3   OH279698   5.227   1.036   1.834  0.2186 -0.0460  0.7084
19428TIP3    H179699   5.217   0.958   1.780  0.5147  0.4952 -0.1387
19428TIP3    H279700   5.149   1.088   1.816  0.7081  0.5136  0.1674
19429TIP3   OH279701   6.343   5.114  11.306 -0.4971 -0.1502 -0.0081
19429TIP3    H179702   6.360   5.026  11.274  0.7894  0.0137  0.1844
19429TIP3    H279703   6.379   5.115  11.395 -1.7438  0.1674  0.5186
19430TIP3   OH279704   4.462   3.496  15.380 -0.0493 -0.1381 -0.0562
19430TIP3    H179705   4.368   3.503  15.393  0.0810 -0.2222  1.0524
19430TIP3    H279706   4.493   3.447  15.456  0.8913 -0.0771 -0.3860
19431TIP3   OH279707   2.355   2.363  14.390  0.4345  0.7042  0.1275
19431TIP3    H179708   2.333   2.291  14.448  0.8307  0.8638  0.4873
19431TIP3    H279709   2.441   2.340  14.353 -0.2190  0.1676 -1.1190
19432TIP3   OH279710   5.690   2.083   2.290 -0.7066  0.4800 -0.0488
19432TIP3    H179711   5.611   2.038   2.320 -0.8284  0.8588  0.2104
19432TIP3    H279712   5.667   2.118   2.204 -1.0451  1.1367  0.2953
19433TIP3   OH279713   5.522   2.693   0.874 -0.3920  0.1855 -0.1233
19433TIP3    H179714   5.492   2.665   0.960 -2.1922 -0.1328 -0.8216
19433TIP3    H279715   5.504   2.787   0.871 -0.9990  0.0640 -0.4056
19434TIP3   OH279716   4.160   5.848  15.716  0.0329  0.0735  0.3520
19434TIP3    H179717   4.197   5.908  15.651 -0.2223  0.1108  0.2403
19434TIP3    H279718   4.221   5.774  15.717 -1.4354 -1.3294 -2.1172
19435TIP3   OH279719   4.599   6.499   0.723 -0.6864  0.2386  0.3990
19435TIP3    H179720   4.586   6.543   0.639 -0.1316  1.9945  1.1646
19435TIP3    H279721   4.694   6.495   0.733 -0.7485 -0.1930  0.8317
19436TIP3   OH279722   2.678   4.104  15.875  0.0384  0.3575 -0.2016
19436TIP3    H179723   2.754   4.146  15.916 -0.8479  0.2139  1.6873
19436TIP3    H279724   2.666   4.151  15.793  0.8484  1.8653  0.5052
19437TIP3   OH279725   3.454   6.135  14.656  0.2552  0.7348  0.3481
19437TIP3    H179726   3.410   6.200  14.711 -0.6938 -0.6965  1.3786
19437TIP3    H279727   3.467   6.179  14.572 -0.5217  2.1742  0.9474
19438TIP3   OH279728   1.806   3.421   5.431 -0.2785  0.5131  0.2919
19438TIP3    H179729   1.836   3.489   5.371  2.6884 -1.1885 -0.3600
19438TIP3    H279730   1.745   3.369   5.378  0.6314  0.3037 -0.5922
19439TIP3   OH279731   4.614   1.630  12.368 -0.4795 -0.2685  0.0219
19439TIP3    H179732   4.603   1.724  12.364 -1.5611 -0.4349 -2.0198
19439TIP3    H279733   4.528   1.596  12.394 -0.3482 -0.7511 -0.1597
19440TIP3   OH279734   5.816   0.152  16.885 -0.3044 -0.1006  0.2258
19440TIP3    H179735   5.830   0.058  16.880  0.1583 -0.0036 -0.3596
19440TIP3    H279736   5.721   0.161  16.897 -0.1635 -0.6889  2.2071
19441TIP3   OH279737   2.946   4.652  11.276  0.0036  0.0050  0.2057
19441TIP3    H179738   2.931   4.687  11.188  0.0149  1.1308  0.6380
19441TIP3    H279739   2.865   4.604  11.296 -0.2883  0.3441 -0.1409
19442TIP3   OH279740   0.244   1.435   4.399 -0.1654  0.3432  0.0983
19442TIP3    H179741   0.294   1.355   4.387 -0.6088  0.3162 -2.1838
19442TIP3    H279742   0.274   1.471   4.482  2.2737 -0.6111 -0.2986
19443TIP3   OH279743   0.166   4.071  16.506  0.2776  0.2211  0.2519
19443TIP3    H179744   0.171   3.993  16.561  2.5352 -0.2917 -0.5643
19443TIP3    H279745   0.095   4.053  16.445  0.7388 -1.1989  0.1092
19444TIP3   OH279746   3.671   6.059   2.235  0.0717 -0.5517 -0.1184
19444TIP3    H179747   3.640   6.116   2.165 -1.8398  1.0499  1.8876
19444TIP3    H279748   3.749   6.104   2.270  1.9246 -2.0918 -2.0253
19445TIP3   OH279749   1.816   4.836  14.121  0.4812  0.0388  0.0025
19445TIP3    H179750   1.765   4.771  14.169  0.9764 -0.2706  0.1235
19445TIP3    H279751   1.810   4.809  14.029 -0.3834  0.5732 -0.1083
19446TIP3   OH279752   1.818   0.243   0.284  0.3730 -0.0371 -0.0275
19446TIP3    H179753   1.890   0.227   0.344  0.5541  0.2150 -0.1730
19446TIP3    H279754   1.858   0.289   0.210  0.0479  0.1952 -0.0629
19447TIP3   OH279755   5.004   0.258   5.413 -0.2844 -0.0890  0.5792
19447TIP3    H179756   4.935   0.214   5.363 -1.7741  0.8449  1.7142
19447TIP3    H279757   5.085   0.226   5.375 -1.3287 -0.2328 -1.7278
19448TIP3   OH279758   2.696   5.074  11.669 -0.6272 -0.4300 -0.0430
19448TIP3    H179759   2.760   5.081  11.740  0.0749  0.4831 -0.7497
19448TIP3    H279760   2.636   5.005  11.699 -0.2095 -0.2417  1.3225
19449TIP3   OH279761   0.578   3.040  15.456  0.0676  0.1286  0.1499
19449TIP3    H179762   0.523   3.034  15.534  0.4870 -0.0673  0.4406
19449TIP3    H279763   0.521   3.012  15.384 -0.8527  1.9901  0.1068
19450TIP3   OH279764   4.458   5.591   4.646  0.5334 -0.8527 -0.2257
19450TIP3    H179765   4.537   5.630   4.684  0.1989  0.9965 -1.2762
19450TIP3    H279766   4.463   5.614   4.553 -0.9966 -1.1277 -0.4042
19451TIP3   OH279767   5.423   5.663  16.170 -0.4278 -0.2151  0.0190
19451TIP3    H179768   5.411   5.755  16.195 -0.7853 -0.4599  0.8085
19451TIP3    H279769   5.518   5.649  16.177 -0.1288  0.5543 -1.8844
19452TIP3   OH279770   3.423   1.332  16.474 -0.5731 -0.3443  0.3986
19452TIP3    H179771   3.333   1.311  16.499 -1.0612  2.4080  1.3214
19452TIP3    H279772   3.416   1.361  16.383 -1.0882  1.8466  1.0589
19453TIP3   OH279773   3.001   6.229   2.269 -0.3958 -0.3138  0.3153
19453TIP3    H179774   2.928   6.171   2.247 -0.2397 -0.2676 -0.3531
19453TIP3    H279775   3.017   6.279   2.189  1.0122 -1.0249  0.1230
19454TIP3   OH279776   0.287   3.961   4.991  0.4252 -1.1014  0.7890
19454TIP3    H179777   0.244   3.877   5.009  0.1339 -1.1062  0.1098
19454TIP3    H279778   0.375   3.951   5.026  1.1148 -2.4883 -1.2075
19455TIP3   OH279779   0.971   6.636   2.705 -0.0433 -0.2685  0.5208
19455TIP3    H179780   0.880   6.650   2.677  0.5722  0.7407 -1.1525
19455TIP3    H279781   1.000   6.560   2.654  0.2540 -0.1435  0.5060
19456TIP3   OH279782   6.781   3.156  14.032 -0.1018 -0.3887  0.1776
19456TIP3    H179783   6.857   3.108  14.066  1.1184  1.6974  0.5708
19456TIP3    H279784   6.788   3.146  13.937  2.7696  2.5029 -0.0955
19457TIP3   OH279785   3.070   0.762   5.897  0.5408  0.0637 -0.4792
19457TIP3    H179786   3.011   0.724   5.962 -2.6783  0.5410 -2.8820
19457TIP3    H279787   3.116   0.686   5.860  1.2512 -0.3677  1.2069
19458TIP3   OH279788   2.589   0.357  12.147  0.1086  0.6332  0.3193
19458TIP3    H179789   2.537   0.344  12.226 -0.8301 -0.0642 -0.3898
19458TIP3    H279790   2.531   0.403  12.087  0.4431  0.2311 -0.3244
19459TIP3   OH279791   2.916   0.946  13.085  0.6495 -0.5164 -0.1588
19459TIP3    H179792   2.972   0.934  13.161 -1.5348  3.0240  2.2764
19459TIP3    H279793   2.842   0.887  13.100  1.6321 -2.1070 -1.2519
19460TIP3   OH279794   5.213   2.756   4.423 -0.3326  0.5657  0.6533
19460TIP3    H179795   5.295   2.797   4.395  0.4420 -1.3937 -0.1279
19460TIP3    H279796   5.240   2.672   4.460 -2.0378 -0.6442 -0.6889
19461TIP3   OH279797   0.961   4.588  14.556  0.8738 -0.0010  0.4087
19461TIP3    H179798   1.025   4.614  14.491  1.0590  0.9823  0.9669
19461TIP3    H279799   0.982   4.640  14.634 -0.8339  0.6631  0.4749
19462TIP3   OH279800   3.777   3.161   5.752  0.0121 -0.2915  0.0122
19462TIP3    H179801   3.825   3.193   5.676 -0.9606  0.5038 -0.2992
19462TIP3    H279802   3.843   3.147   5.820  0.8012 -0.3683 -0.7702
19463TIP3   OH279803   3.912   1.200  16.107  0.6199  0.3244 -0.2089
19463TIP3    H179804   3.834   1.204  16.052  0.2206  0.3050  0.3482
19463TIP3    H279805   3.963   1.278  16.082 -0.1156  0.9552  0.2188
19464TIP3   OH279806   3.547   4.508   5.308  0.0693 -0.1050  0.4101
19464TIP3    H179807   3.603   4.545   5.376  0.5187  1.6185 -0.8262
19464TIP3    H279808   3.554   4.413   5.320  2.2044  0.0889  1.1348
19465TIP3   OH279809   2.906   3.160  11.169  0.1101  0.6796 -0.6748
19465TIP3    H179810   2.894   3.118  11.084 -2.0447  1.1246 -0.6605
19465TIP3    H279811   2.891   3.090  11.232 -2.4117  1.1265 -0.6674
19466TIP3   OH279812   3.353   0.067   3.561 -0.0917  0.2048 -0.1560
19466TIP3    H179813   3.398   0.035   3.639  0.3138 -0.8884 -0.8258
19466TIP3    H279814   3.286   0.127   3.595  0.9694  0.8078  0.9282
19467TIP3   OH279815   6.191   5.530   3.824 -0.0775 -0.1683 -0.3702
19467TIP3    H179816   6.264   5.578   3.784  0.3456  0.9209  1.5881
19467TIP3    H279817   6.226   5.499   3.908 -1.2576 -1.4256 -0.3108
19468TIP3   OH279818   4.731   6.245  12.751 -0.4150 -0.1156 -0.2137
19468TIP3    H179819   4.650   6.211  12.788 -1.1543  1.3727 -0.4008
19468TIP3    H279820   4.750   6.188  12.677 -1.4507 -0.2952 -0.3502
19469TIP3   OH279821   4.736   4.174  16.296  0.4155 -0.9301  0.3692
19469TIP3    H179822   4.771   4.254  16.336 -1.5088  0.3280 -0.3265
19469TIP3    H279823   4.787   4.104  16.336  2.1877  0.6140  1.0051
19470TIP3   OH279824   6.113   4.165   2.432  0.3651  0.1203 -0.1994
19470TIP3    H179825   6.137   4.087   2.381  1.0865 -0.7115  1.3581
19470TIP3    H279826   6.197   4.206   2.454  0.2481 -0.6548  1.9695
19471TIP3   OH279827   4.510   6.630  16.364 -0.5969  0.1133 -0.4352
19471TIP3    H179828   4.557   6.548  16.380 -0.4782  0.1683 -0.5023
19471TIP3    H279829   4.442   6.631  16.432  0.4272  0.7477  0.6263
19472TIP3   OH279830   0.814   4.073  14.113 -0.0021  0.5434 -0.3646
19472TIP3    H179831   0.901   4.041  14.090 -0.3498 -1.6340  1.0077
19472TIP3    H279832   0.777   4.003  14.167 -1.6575  2.4899  1.1782
19473TIP3   OH279833   2.870   5.689  14.939 -0.6386 -0.1728  0.1327
19473TIP3    H179834   2.852   5.629  15.011  0.7518  1.8127  2.2926
19473TIP3    H279835   2.800   5.755  14.945 -0.3353  0.1748 -0.1292
19474TIP3   OH279836   5.916   3.234  11.824 -0.3966 -0.0137 -0.7054
19474TIP3    H179837   5.875   3.148  11.816 -1.1742  0.1690  0.8681
19474TIP3    H279838   6.008   3.218  11.803 -0.3965 -1.3829  0.1784
19475TIP3   OH279839   4.664   4.438  15.846  0.0274 -0.4900  0.2637
19475TIP3    H179840   4.709   4.522  15.859 -1.8009  0.5810 -0.0218
19475TIP3    H279841   4.650   4.433  15.752 -1.8452  0.0011  0.4815
19476TIP3   OH279842   3.734   6.550   1.916  0.0457  0.1386 -0.3787
19476TIP3    H179843   3.732   6.642   1.892  0.5064  0.1118 -0.5236
19476TIP3    H279844   3.681   6.545   1.996  1.8761  0.9153  0.9509
19477TIP3   OH279845   2.883   4.173  14.599 -0.3905 -0.4602 -0.0841
19477TIP3    H179846   2.835   4.236  14.654 -0.4698  0.5534 -1.2845
19477TIP3    H279847   2.860   4.196  14.510  2.6333  0.3331 -0.7718
19478TIP3   OH279848   2.190   4.620  11.159 -0.5905 -0.2695 -0.0259
19478TIP3    H179849   2.273   4.629  11.205 -0.7842 -0.2921  0.3269
19478TIP3    H279850   2.135   4.691  11.192  0.0370  1.1638 -1.9081
19479TIP3   OH279851   0.835   4.764   5.732 -0.1394  0.4201  0.2779
19479TIP3    H179852   0.810   4.806   5.814  1.3535  2.1338 -0.0995
19479TIP3    H279853   0.921   4.725   5.750 -0.3226 -0.2087 -0.1535
19480TIP3   OH279854   2.079   1.129  15.008 -0.1123 -0.4336  0.0740
19480TIP3    H179855   2.084   1.126  14.913  2.7499  0.9588  0.0598
19480TIP3    H279856   2.061   1.038  15.034 -2.2298 -0.6120 -1.7538
19481TIP3   OH279857   2.543   3.229   4.413  0.4463  0.2129 -0.2049
19481TIP3    H179858   2.546   3.139   4.380 -2.6190 -1.3842  3.2084
19481TIP3    H279859   2.472   3.270   4.364 -0.1789 -0.2382  0.3145
19482TIP3   OH279860   2.603   1.497   3.950  0.6984 -0.0208 -0.1532
19482TIP3    H179861   2.675   1.441   3.923  0.1116 -0.9849  0.2296
19482TIP3    H279862   2.595   1.483   4.045 -0.2026 -0.1899 -0.2465
19483TIP3   OH279863   0.054   3.617   2.493  0.3249 -0.2247 -0.1929
19483TIP3    H179864   0.112   3.687   2.462  2.0118 -1.9058 -1.0513
19483TIP3    H279865  -0.007   3.660   2.553  1.9520  1.7811  0.1094
19484TIP3   OH279866   0.805   2.346   0.865 -0.1145 -0.0524  0.6474
19484TIP3    H179867   0.897   2.372   0.860  0.1358 -1.0398 -1.3737
19484TIP3    H279868   0.760   2.406   0.805 -0.5506 -0.3909  0.6292
19485TIP3   OH279869   3.342   0.229   5.119 -0.0742  0.0520 -0.0500
19485TIP3    H179870   3.307   0.197   5.202 -1.6040  1.7025 -0.0020
19485TIP3    H279871   3.268   0.225   5.058  0.4700  0.7612 -0.7859
19486TIP3   OH279872   6.348   1.650   3.935 -0.1173  0.2795  0.0288
19486TIP3    H179873   6.274   1.643   3.995  0.3096  1.9368  0.8145
19486TIP3    H279874   6.310   1.635   3.848 -1.2935  0.6550  0.4532
19487TIP3   OH279875   2.658   3.567  12.182 -0.0393  0.3723  0.0724
19487TIP3    H179876   2.679   3.598  12.270 -0.7785  0.5491  0.1950
19487TIP3    H279877   2.670   3.644  12.126  2.1319 -0.1682 -0.2699
19488TIP3   OH279878   0.387   6.054  12.526 -0.4429 -0.1519 -0.2540
19488TIP3    H179879   0.455   6.008  12.477  0.2125 -1.1851  1.5118
19488TIP3    H279880   0.361   5.992  12.594  0.0926  1.8789  1.9383
19489TIP3   OH279881   1.907   0.707   1.858  0.3653 -0.6251 -0.4154
19489TIP3    H179882   1.878   0.727   1.947 -1.2864 -0.0004 -1.0582
19489TIP3    H279883   1.977   0.642   1.870 -1.1590 -2.0708  1.2627
19490TIP3   OH279884   0.698   1.367  15.938 -0.4076 -0.5236  0.1147
19490TIP3    H179885   0.624   1.417  15.972 -0.4884 -0.2629 -0.4405
19490TIP3    H279886   0.771   1.429  15.940 -0.5342 -0.3430 -0.6826
19491TIP3   OH279887   1.617   6.381   5.669  0.0502  0.1397  0.2696
19491TIP3    H179888   1.545   6.423   5.718  1.2983  2.2036  0.4593
19491TIP3    H279889   1.690   6.441   5.679  0.8250 -0.1228 -2.8753
19492TIP3   OH279890   5.187   5.014  14.486 -0.1126 -0.3730  0.5085
19492TIP3    H179891   5.197   5.086  14.548  0.0458  0.1852 -0.1501
19492TIP3    H279892   5.236   4.942  14.525 -1.7917 -0.7362  2.0889
19493TIP3   OH279893   2.806   4.355  10.732  0.0101  0.5197  0.0364
19493TIP3    H179894   2.891   4.320  10.706 -0.1797 -1.0938  1.3933
19493TIP3    H279895   2.812   4.449  10.715  1.4237  0.1954 -1.5070
19494TIP3   OH279896   4.311   6.124   1.000 -0.4219 -0.5815  0.6685
19494TIP3    H179897   4.289   6.211   1.033 -0.2024 -0.1277 -0.3262
19494TIP3    H279898   4.307   6.067   1.077  0.6364  0.5200  1.5734
19495TIP3   OH279899   3.336   1.667   5.644 -0.8328  0.8130 -0.1262
19495TIP3    H179900   3.292   1.592   5.604 -1.6511  0.8192  0.7269
19495TIP3    H279901   3.283   1.687   5.721  0.9847  0.4232  1.3016
19496TIP3   OH279902   5.711   4.595   1.598  0.0688 -0.4957 -0.9948
19496TIP3    H179903   5.720   4.576   1.504  0.1180  0.7271 -1.2470
19496TIP3    H279904   5.796   4.573   1.635 -0.0209 -1.2016 -1.1849
19497TIP3   OH279905   2.722   3.180  14.078 -0.3911  0.2954  0.4038
19497TIP3    H179906   2.640   3.176  14.028 -0.4887  0.3956  0.5552
19497TIP3    H279907   2.784   3.222  14.018  0.6701 -3.2552 -1.2300
19498TIP3   OH279908   0.792   6.432   1.699 -0.2338  0.4868 -0.9022
19498TIP3    H179909   0.854   6.502   1.678  0.8293  0.0734  0.6283
19498TIP3    H279910   0.710   6.477   1.720  0.3840  1.2875 -0.1270
19499TIP3   OH279911   1.713   4.882   0.092 -0.0401  0.1321  0.5811
19499TIP3    H179912   1.619   4.892   0.102  0.0379  2.7782 -0.6559
19499TIP3    H279913   1.748   4.892   0.181 -0.9193 -2.4642  1.3269
19500TIP3   OH279914   3.292   5.971   5.186  0.0308 -0.2566 -0.0421
19500TIP3    H179915   3.271   5.897   5.128  0.4645 -0.7289  0.3898
19500TIP3    H279916   3.353   5.934   5.250  3.1777  1.2956 -1.9122
19501TIP3   OH279917   1.135   4.596   2.522  0.0137  0.4808 -0.1626
19501TIP3    H179918   1.186   4.640   2.590  1.5210  0.1944 -1.0566
19501TIP3    H279919   1.126   4.663   2.454 -0.1917  0.3023 -0.3092
19502TIP3   OH279920   3.550   0.353   1.103 -0.4466  0.5515  0.5107
19502TIP3    H179921   3.581   0.441   1.126  0.0086  0.9272 -1.4190
19502TIP3    H279922   3.549   0.351   1.008  0.9278 -2.0295  0.4553
19503TIP3   OH279923   1.533   0.426  16.611  0.2013  1.2173  0.8076
19503TIP3    H179924   1.616   0.417  16.564 -1.3106 -0.1159 -1.7867
19503TIP3    H279925   1.471   0.455  16.545 -1.6650  1.1059  2.4283
19504TIP3   OH279926   4.679   1.166  16.615 -0.4057 -0.3868 -0.2129
19504TIP3    H179927   4.708   1.210  16.535  0.7089 -2.1512 -0.8271
19504TIP3    H279928   4.754   1.171  16.673 -0.2133 -1.5830 -0.3462
19505TIP3   OH279929   4.971   1.596  14.577 -0.0685  0.1922 -0.1932
19505TIP3    H179930   4.997   1.561  14.662 -0.0742  0.9396  0.1169
19505TIP3    H279931   4.911   1.530  14.542  1.6005 -1.1861 -0.5882
19506TIP3   OH279932   6.648   6.237  16.286 -0.3216 -0.4740 -0.2434
19506TIP3    H179933   6.648   6.303  16.355  0.7134 -0.4447 -0.2607
19506TIP3    H279934   6.599   6.277  16.214  0.8614  0.5391 -0.5066
19507TIP3   OH279935   6.358   2.470  14.624 -0.0486 -0.5581  0.7123
19507TIP3    H179936   6.440   2.442  14.665 -0.0643  0.4984  1.5145
19507TIP3    H279937   6.321   2.390  14.588  0.9465 -1.1885  1.0333
19508TIP3   OH279938   5.783   4.945   0.371 -0.4761 -0.2504 -0.2405
19508TIP3    H179939   5.863   4.992   0.395 -1.2298 -0.3282  2.8368
19508TIP3    H279940   5.717   5.013   0.365 -0.3664 -0.2727 -2.0421
19509TIP3   OH279941   6.673   5.889   5.986  0.3196 -0.1760 -0.0817
19509TIP3    H179942   6.761   5.851   5.983  0.1147 -0.6181 -0.6324
19509TIP3    H279943   6.620   5.822   6.030 -0.1084 -0.6819 -1.3327
19510TIP3   OH279944   5.793   1.124   3.081 -0.0307  0.6366 -0.7479
19510TIP3    H179945   5.882   1.099   3.106 -1.3102 -1.6010  2.0921
19510TIP3    H279946   5.791   1.219   3.093  1.6811  0.5985  0.1987
19511TIP3   OH279947   1.134   1.399  16.562 -0.4822  0.1590 -0.0098
19511TIP3    H179948   1.168   1.383  16.474  1.1970  1.7923  0.2745
19511TIP3    H279949   1.193   1.351  16.619 -1.7368 -1.1322  0.2709
19512TIP3   OH279950   1.469   2.044   4.457  0.0247 -0.2625  0.1878
19512TIP3    H179951   1.416   1.966   4.472 -0.4467 -0.0369 -0.2847
19512TIP3    H279952   1.558   2.017   4.479 -0.2072 -0.7972  0.4754
19513TIP3   OH279953   5.288   1.815   3.030  0.6136 -0.3959  0.6796
19513TIP3    H179954   5.303   1.723   3.009  0.3989 -0.9456  2.7721
19513TIP3    H279955   5.328   1.827   3.116  1.6845  1.7914 -0.0421
19514TIP3   OH279956   6.197   2.119   3.838  0.6094 -0.2953  0.0231
19514TIP3    H179957   6.136   2.192   3.831 -0.1566 -1.0610 -1.9771
19514TIP3    H279958   6.147   2.043   3.807  1.1599 -1.8563  2.6319
19515TIP3   OH279959   3.851   1.960  15.038 -0.1755 -0.4243 -0.1820
19515TIP3    H179960   3.776   2.001  14.995 -0.5206  1.0044  1.6768
19515TIP3    H279961   3.856   1.873  14.998 -1.8650 -0.0073 -1.4253
19516TIP3   OH279962   2.619   3.810  14.129  0.1730 -0.1322 -0.3611
19516TIP3    H179963   2.625   3.717  14.110  0.2341  0.0556 -1.3057
19516TIP3    H279964   2.549   3.816  14.194  0.1320 -0.8294 -0.3313
19517TIP3   OH279965   1.974   4.552   1.911 -0.3077  0.0594 -0.2674
19517TIP3    H179966   2.039   4.575   1.978 -0.6618  0.4008 -0.0349
19517TIP3    H279967   1.891   4.585   1.946 -0.8362 -1.5255  0.0390
19518TIP3   OH279968   0.202   5.050  12.538  0.2805 -0.2903 -0.3674
19518TIP3    H179969   0.113   5.032  12.568  1.0910 -0.3781  2.2246
19518TIP3    H279970   0.253   4.975  12.569  1.6407  0.8230  0.1693
19519TIP3   OH279971   0.169   2.554  14.374 -1.0295 -0.0161 -0.0834
19519TIP3    H179972   0.196   2.574  14.285 -0.0135 -1.6954 -0.2070
19519TIP3    H279973   0.125   2.633  14.405  0.2433  1.2730 -1.4240
19520TIP3   OH279974   1.660   3.541   3.241  0.3478 -0.1911 -0.1211
19520TIP3    H179975   1.702   3.622   3.268  2.1981 -1.3961  0.7991
19520TIP3    H279976   1.651   3.549   3.146  1.5191  0.6513 -0.1780
19521TIP3   OH279977   5.647   2.322  12.708  0.1255 -0.0642 -0.2856
19521TIP3    H179978   5.706   2.367  12.769  0.9632  0.1916 -1.2715
19521TIP3    H279979   5.603   2.256  12.762  0.6465  0.3429  0.6577
19522TIP3   OH279980   3.739   4.065  11.352  0.0970  0.2388  0.1066
19522TIP3    H179981   3.652   4.106  11.355  0.0043  0.2213 -1.3864
19522TIP3    H279982   3.724   3.975  11.382 -0.2122  0.5070  0.7767
19523TIP3   OH279983   0.406   2.925  12.729  0.4793  0.0953 -0.2503
19523TIP3    H179984   0.426   2.850  12.785  1.6125 -0.3668 -1.2215
19523TIP3    H279985   0.413   2.891  12.640 -3.9759  0.0838 -0.8232
19524TIP3   OH279986   6.254   5.589   0.332  0.1371 -0.0964 -0.1637
19524TIP3    H179987   6.188   5.633   0.386  0.0224  0.3597 -0.6686
19524TIP3    H279988   6.263   5.502   0.372  0.1883  0.2906  0.7029
19525TIP3   OH279989   0.906   5.504   4.311 -0.1039  0.2331  0.2173
19525TIP3    H179990   0.891   5.428   4.255  0.3741  0.4666 -0.2349
19525TIP3    H279991   1.000   5.522   4.302 -0.2287  0.9262  0.2563
19526TIP3   OH279992   5.870   3.972  15.308 -0.1392 -0.2141  0.1395
19526TIP3    H179993   5.938   4.025  15.267 -0.4623  0.7466  0.8033
19526TIP3    H279994   5.894   3.882  15.288  1.9601  0.0329  1.2601
19527TIP3   OH279995   4.842   2.746  15.398  0.2052 -0.1479  0.2251
19527TIP3    H179996   4.798   2.674  15.354  0.0246 -0.5396  1.0239
19527TIP3    H279997   4.772   2.804  15.426  0.2209 -0.5235  1.0643
19528TIP3   OH279998   4.497   3.717  14.224 -0.2687  0.2438  0.6875
19528TIP3    H179999   4.482   3.801  14.267  1.6259  0.7079  0.5056
19528TIP3    H280000   4.419   3.703  14.170 -1.0278  1.4149  1.4482
19529TIP3   OH280001   3.395   4.736  10.784  0.5857  0.2993  0.5873
19529TIP3    H180002   3.390   4.766  10.694 -1.6403  0.9282  0.8549
19529TIP3    H280003   3.454   4.799  10.827  0.1418  1.1576 -0.0202
19530TIP3   OH280004   5.632   0.066  15.191 -0.1431 -0.0893 -0.4205
19530TIP3    H180005   5.727   0.084  15.190 -0.3057  1.6922  2.6354
19530TIP3    H280006   5.594   0.142  15.147 -0.2198  0.8108  1.1127
19531TIP3   OH280007   1.305   3.000  11.762 -0.5498 -0.0932  0.3124
19531TIP3    H180008   1.380   2.985  11.705 -0.5485 -0.6568  0.4614
19531TIP3    H280009   1.325   3.081  11.808 -0.0927 -0.1781  0.2613
19532TIP3   OH280010   3.100   3.167  15.640 -0.2983 -0.1860  0.6654
19532TIP3    H180011   3.049   3.209  15.710 -0.1413 -0.0762  0.7142
19532TIP3    H280012   3.037   3.111  15.595 -0.7047  0.7025  0.1057
19533TIP3   OH280013   1.060   3.691  12.457 -0.1033  0.2828  0.0948
19533TIP3    H180014   1.108   3.769  12.430 -2.1792  1.7593  0.5037
19533TIP3    H280015   0.972   3.702  12.420 -1.0008 -0.9238  1.7401
19534TIP3   OH280016   3.753   3.902   5.367 -0.0717  0.6322 -0.4115
19534TIP3    H180017   3.805   3.846   5.309 -1.7631 -2.1377  0.5701
19534TIP3    H280018   3.664   3.866   5.362 -0.3001  0.0843  3.9725
19535TIP3   OH280019   6.274   0.776  11.017  0.4270  0.2289  0.0241
19535TIP3    H180020   6.246   0.867  11.007 -2.3254 -0.6287 -0.8720
19535TIP3    H280021   6.343   0.765  10.952  0.1381  1.4000 -0.5155
19536TIP3   OH280022   1.721   5.111  14.319  0.2141 -0.1801  0.0957
19536TIP3    H180023   1.684   5.023  14.315  0.7429 -0.4218  0.4470
19536TIP3    H280024   1.773   5.112  14.399 -0.3119  0.6617  0.4425
19537TIP3   OH280025   3.493   0.283   0.127  0.3727 -0.3073 -0.0015
19537TIP3    H180026   3.571   0.228   0.133  1.3630  1.0139 -0.1829
19537TIP3    H280027   3.421   0.227   0.155  1.5318 -1.2600  1.1595
19538TIP3   OH280028   1.082   6.710   5.229  0.3055 -0.0703 -0.1712
19538TIP3    H180029   1.165   6.668   5.205  0.6533  1.3577 -1.6111
19538TIP3    H280030   1.032   6.711   5.147 -0.1634  1.2090  0.1174
19539TIP3   OH280031   1.086   3.480  12.842 -0.4107 -0.8303 -0.3086
19539TIP3    H180032   1.072   3.523  12.926 -0.0992  1.2976 -1.2638
19539TIP3    H280033   1.136   3.402  12.862 -3.2544 -2.2645  1.8363
19540TIP3   OH280034   5.480   5.092   1.568 -0.5741  0.2744 -0.0878
19540TIP3    H180035   5.501   5.001   1.549 -0.5784 -0.1973  1.9840
19540TIP3    H280036   5.562   5.139   1.552 -1.2681  0.4617 -3.9448
19541TIP3   OH280037   5.893   1.949   1.242  0.6621 -0.4172 -0.4265
19541TIP3    H180038   5.905   2.025   1.299  1.1981 -0.2202 -0.7961
19541TIP3    H280039   5.938   1.878   1.288 -0.8469 -0.8078  0.4993
19542TIP3   OH280040   6.315   2.545  12.810 -0.0598 -0.2959 -0.4814
19542TIP3    H180041   6.229   2.578  12.784  1.2106  2.7292 -1.2898
19542TIP3    H280042   6.337   2.594  12.890 -0.3128 -3.3205  1.6062
19543TIP3   OH280043   5.204   2.426  11.037 -0.2179 -0.5727 -0.1100
19543TIP3    H180044   5.217   2.408  11.130 -0.8992  0.4599  0.1911
19543TIP3    H280045   5.292   2.420  10.999  0.3901  1.0771  0.9739
19544TIP3   OH280046   1.937   6.217   4.140 -0.2009  0.0076 -0.4594
19544TIP3    H180047   1.961   6.127   4.163  1.5296  0.7412  0.7851
19544TIP3    H280048   1.939   6.265   4.223 -2.0010  1.0399 -0.9606
19545TIP3   OH280049   1.197   4.154  13.083 -0.1898 -0.4651 -0.0056
19545TIP3    H180050   1.239   4.216  13.142  0.0520 -0.8977  0.2815
19545TIP3    H280051   1.198   4.071  13.130  0.2220 -0.8708 -0.7115
19546TIP3   OH280052   2.571   3.973  15.549 -0.5536  0.1382  0.5122
19546TIP3    H180053   2.601   4.064  15.546 -0.4476  0.1022  0.4742
19546TIP3    H280054   2.564   3.953  15.642 -1.3956  0.4558  0.5299
19547TIP3   OH280055   0.879   6.242  12.177  0.2424  0.2658  0.0819
19547TIP3    H180056   0.953   6.191  12.144 -0.5293 -0.3363 -0.7625
19547TIP3    H280057   0.847   6.290  12.101 -0.2610  0.4931  0.4326
19548TIP3   OH280058   6.527   1.986  15.883 -0.6614  0.0624 -0.1544
19548TIP3    H180059   6.525   2.081  15.897 -2.2384  0.2450 -1.2736
19548TIP3    H280060   6.479   1.950  15.958 -2.2596  0.3889 -0.9771
19549TIP3   OH280061   3.268   1.762  14.891  0.1950 -0.2727 -0.7296
19549TIP3    H180062   3.321   1.701  14.840 -0.3690 -0.5724 -0.9684
19549TIP3    H280063   3.237   1.825  14.827 -0.1453 -0.3888 -0.6796
19550TIP3   OH280064   4.683   0.921  12.703 -0.2053  0.0945 -0.2533
19550TIP3    H180065   4.773   0.914  12.673 -0.4723 -1.4903 -0.7775
19550TIP3    H280066   4.684   0.884  12.791 -0.8229 -2.8062 -1.3604
19551TIP3   OH280067   1.759   5.423  10.330 -0.0283 -0.1529 -0.4034
19551TIP3    H180068   1.684   5.472  10.298  1.1192  1.6018 -0.5179
19551TIP3    H280069   1.781   5.463  10.414  0.5326 -0.9210 -0.1632
19552TIP3   OH280070   2.781   5.244   2.145 -0.0756  0.1793  0.1499
19552TIP3    H180071   2.758   5.320   2.198 -0.2273  0.4705 -0.3272
19552TIP3    H280072   2.823   5.184   2.206 -1.1144  0.1040  0.8094
19553TIP3   OH280073   2.482   5.844   3.035 -0.0770  0.0148  0.2503
19553TIP3    H180074   2.485   5.750   3.016 -0.6474  0.1949 -0.7879
19553TIP3    H280075   2.421   5.880   2.971 -0.4410  0.9930  1.1104
19554TIP3   OH280076   3.759   5.931   0.921 -0.2108  0.2861 -0.2474
19554TIP3    H180077   3.837   5.875   0.921 -0.0873  0.4289 -1.3678
19554TIP3    H280078   3.697   5.886   0.979  0.4726 -0.1508  0.1630
19555TIP3   OH280079   3.227   2.826  16.083  0.5871  0.0930  0.3292
19555TIP3    H180080   3.305   2.830  16.138  0.7665  0.9336  0.0261
19555TIP3    H280081   3.249   2.877  16.005  0.0227 -0.3417 -0.1230
19556TIP3   OH280082   0.977   5.975  16.650  0.2691 -0.1956 -0.3026
19556TIP3    H180083   0.931   5.909  16.702  0.1643 -0.6543 -0.9629
19556TIP3    H280084   1.070   5.960  16.668  0.2874 -1.0490 -1.0591
19557TIP3   OH280085   5.978   3.458  12.545 -0.3283 -0.2651 -0.2763
19557TIP3    H180086   5.910   3.401  12.579  0.7330 -0.5062  1.5545
19557TIP3    H280087   6.037   3.400  12.497 -0.7917 -0.2159 -0.9314
19558TIP3   OH280088   2.551   2.507  12.675 -0.1408 -0.0567 -0.0015
19558TIP3    H180089   2.638   2.472  12.696  0.0316  0.6323  0.4685
19558TIP3    H280090   2.564   2.551  12.591  0.2628  1.0668  0.6317
19559TIP3   OH280091   3.527   2.851  15.621 -0.0478 -0.0710  0.2843
19559TIP3    H180092   3.617   2.846  15.588 -0.0651  0.1210  0.2055
19559TIP3    H280093   3.491   2.929  15.579  1.0962  2.4739  3.6191
19560TIP3   OH280094   6.353   2.148   3.516  0.3313 -0.6934  0.0564
19560TIP3    H180095   6.294   2.076   3.492 -0.8200 -0.4156  1.8567
19560TIP3    H280096   6.385   2.182   3.433 -3.3356  0.1937 -1.1752
19561TIP3   OH280097   2.486   1.711  11.573 -0.1376  0.1649  0.0097
19561TIP3    H180098   2.444   1.755  11.646 -0.6585 -0.5546  0.1548
19561TIP3    H280099   2.434   1.632  11.559  0.7706 -0.4136 -0.2340
19562TIP3   OH280100   0.603   2.430  17.088 -0.3038 -0.4146 -0.2545
19562TIP3    H180101   0.576   2.343  17.057 -1.4443 -0.0425 -0.3346
19562TIP3    H280102   0.647   2.469  17.014  0.8420 -1.1785 -0.0018
19563TIP3   OH280103   0.915   0.851  15.410 -0.1734  0.3925  0.0290
19563TIP3    H180104   0.835   0.801  15.426 -0.3587  0.4595 -0.6520
19563TIP3    H280105   0.906   0.930  15.464 -0.7330  0.5688 -0.3191
19564TIP3   OH280106   1.419   1.270  12.104 -0.0883 -0.7210  0.0946
19564TIP3    H180107   1.351   1.296  12.167  0.4680  1.6518 -0.1736
19564TIP3    H280108   1.376   1.279  12.019  0.4669  0.6289 -0.0666
19565TIP3   OH280109   5.671   2.088  14.268  0.0639 -0.3095  0.0833
19565TIP3    H180110   5.684   2.018  14.204  0.7118  0.1908 -0.3417
19565TIP3    H280111   5.755   2.094  14.313  0.0996  0.3732 -0.0722
19566TIP3   OH280112   6.080   3.488  11.966 -0.5096 -0.2142  0.1852
19566TIP3    H180113   5.998   3.449  11.937 -0.7775  0.0370  0.5911
19566TIP3    H280114   6.124   3.516  11.885 -0.4790 -1.0142 -0.0819
19567TIP3   OH280115   2.196   4.285  16.982  0.4422  0.5177 -0.0033
19567TIP3    H180116   2.181   4.378  16.996  0.6653  0.6549 -0.6403
19567TIP3    H280117   2.138   4.262  16.909  2.5538  0.8496 -1.8958
19568TIP3   OH280118   6.555   6.004   3.871 -0.6065  0.5330  0.2564
19568TIP3    H180119   6.508   6.039   3.794  0.5114  2.5232  0.4185
19568TIP3    H280120   6.485   5.979   3.931 -1.4963 -0.1575 -1.0080
19569TIP3   OH280121   4.978   4.603   5.350 -0.3595  0.2050 -0.1171
19569TIP3    H180122   4.956   4.623   5.441 -0.0840  0.8564 -0.1838
19569TIP3    H280123   4.927   4.666   5.299 -1.0135 -0.5898 -0.4502
19570TIP3   OH280124   6.526   0.732  15.276  0.2481 -0.1933 -0.3279
19570TIP3    H180125   6.453   0.672  15.266  0.2661 -0.0887 -1.1039
19570TIP3    H280126   6.560   0.713  15.364 -1.4996  0.6656  0.5853
19571TIP3   OH280127   1.444   3.791  12.014 -0.2844  0.2543  0.1501
19571TIP3    H180128   1.510   3.846  11.971 -0.7323 -0.0484 -0.9842
19571TIP3    H280129   1.361   3.822  11.979 -0.5110 -1.4968 -0.9939
19572TIP3   OH280130   4.665   2.524   5.222 -0.6924  0.0879 -0.8812
19572TIP3    H180131   4.641   2.459   5.289  1.2259 -1.7030 -1.7762
19572TIP3    H280132   4.634   2.607   5.257 -0.4868 -0.8688  1.8777
19573TIP3   OH280133   2.967   0.835  12.106  0.2929  0.0840 -0.7324
19573TIP3    H180134   3.015   0.896  12.162 -4.1669  1.9873  1.5919
19573TIP3    H280135   2.953   0.758  12.161  0.1900 -0.1910 -1.1381
19574TIP3   OH280136   2.167   6.593  14.711 -0.3100  0.0796 -0.1614
19574TIP3    H180137   2.148   6.686  14.695  1.0951  0.4350  0.1273
19574TIP3    H280138   2.169   6.553  14.625 -2.2830  0.0054 -0.2238
19575TIP3   OH280139   1.406   6.309  11.841 -0.5557 -0.0997  0.6985
19575TIP3    H180140   1.322   6.326  11.883 -0.6041 -0.9924  0.9703
19575TIP3    H280141   1.467   6.296  11.913 -0.5259 -1.0759  0.5143
19576TIP3   OH280142   5.925   3.943   3.911 -0.6870  0.2072  0.1956
19576TIP3    H180143   5.945   3.852   3.887 -1.5950 -0.0962  0.5874
19576TIP3    H280144   5.903   3.940   4.004 -0.2963  0.9054  0.3229
19577TIP3   OH280145   5.492   0.145   3.582  0.0448 -0.6377 -0.2237
19577TIP3    H180146   5.524   0.173   3.496  0.6748  0.3050  0.2962
19577TIP3    H280147   5.503   0.222   3.638 -2.8917 -0.3312  0.1015
19578TIP3   OH280148   5.633   4.417   3.410 -0.6490  0.1738  0.3337
19578TIP3    H180149   5.715   4.466   3.415 -0.5389 -0.1387  2.2363
19578TIP3    H280150   5.642   4.364   3.330  1.0673  0.0440  0.5740
19579TIP3   OH280151   3.844   5.156   1.823 -0.4761  0.0075 -0.0754
19579TIP3    H180152   3.874   5.078   1.871 -1.1263 -1.6158 -2.1335
19579TIP3    H280153   3.758   5.174   1.860  0.1318  0.4504  1.1640
19580TIP3   OH280154   5.773   6.740  11.977 -0.8631  0.0164  0.0158
19580TIP3    H180155   5.812   6.663  11.936 -0.8825 -0.6490  1.1889
19580TIP3    H280156   5.813   6.815  11.932 -1.5033 -0.6567 -1.7460
19581TIP3   OH280157   4.156   2.915   3.774  0.1865 -0.5361 -0.5310
19581TIP3    H180158   4.081   2.896   3.831 -0.0451  1.2633 -0.1695
19581TIP3    H280159   4.210   2.975   3.825  0.9360 -0.3487 -1.5181
19582TIP3   OH280160   3.088   3.820  12.475  0.4395 -0.3280 -0.0389
19582TIP3    H180161   3.126   3.822  12.562 -1.3629 -0.3330  0.8002
19582TIP3    H280162   3.058   3.909  12.459 -0.4542 -0.6254 -0.0722
19583TIP3   OH280163   1.404   0.573   4.519 -0.1975  0.3680 -0.0819
19583TIP3    H180164   1.425   0.666   4.510  0.7105  0.4127  1.9952
19583TIP3    H280165   1.347   0.569   4.596 -2.9056 -0.5006 -1.9628
19584TIP3   OH280166   3.752   6.441  13.106 -0.1396 -0.3765  0.6877
19584TIP3    H180167   3.835   6.443  13.058  0.9216 -1.7011  2.3332
19584TIP3    H280168   3.685   6.431  13.039  1.3144 -2.8952 -0.5545
19585TIP3   OH280169   4.810   1.322   1.496  0.1534  0.0546  0.2720
19585TIP3    H180170   4.719   1.352   1.503 -0.4905 -1.2542 -1.5413
19585TIP3    H280171   4.803   1.226   1.494  1.6665 -0.0887  0.9770
19586TIP3   OH280172   5.259   2.828  11.337 -0.6944 -0.5466 -0.3624
19586TIP3    H180173   5.254   2.780  11.254  0.6049  0.2743 -0.9534
19586TIP3    H280174   5.311   2.771  11.394 -2.0669 -1.3724  0.1181
19587TIP3   OH280175   2.498   3.252   0.791  0.7552 -0.1764  0.3090
19587TIP3    H180176   2.407   3.280   0.799  1.6872  3.2030  0.4847
19587TIP3    H280177   2.520   3.219   0.878 -0.2955 -1.1941  0.2220
19588TIP3   OH280178   4.542   4.378   5.514  0.4081 -0.4400 -0.4685
19588TIP3    H180179   4.553   4.438   5.440  0.7391  1.5229  1.0962
19588TIP3    H280180   4.628   4.378   5.557 -0.2991 -0.0112  0.9971
19589TIP3   OH280181   4.390   6.434   0.203 -0.3851 -0.2158  0.0522
19589TIP3    H180182   4.464   6.476   0.160 -1.5354 -0.4250 -2.3038
19589TIP3    H280183   4.427   6.355   0.242  0.9404  0.6148  0.5726
19590TIP3   OH280184   1.837   6.537   5.772 -0.4244 -0.2348  0.5557
19590TIP3    H180185   1.878   6.624   5.774  0.1319 -0.4828  0.2303
19590TIP3    H280186   1.846   6.504   5.861  0.7621 -0.5892  0.3154
19591TIP3   OH280187   0.816   0.832  12.687  0.1145  0.4594  0.3253
19591TIP3    H180188   0.795   0.805  12.777 -2.9170 -0.0783 -0.4170
19591TIP3    H280189   0.783   0.921  12.680  0.3128  0.4924 -0.2547
19592TIP3   OH280190   5.657   4.222   5.045 -0.0952  0.4664  0.1242
19592TIP3    H180191   5.603   4.208   4.967 -0.2532 -1.0196  0.4609
19592TIP3    H280192   5.633   4.309   5.076 -1.8636  0.0796 -0.0765
19593TIP3   OH280193   0.166   6.421  12.001 -0.7571 -0.0606 -0.2736
19593TIP3    H180194   0.091   6.413  12.061  0.9740 -1.7475  1.8237
19593TIP3    H280195   0.168   6.337  11.956  2.3610 -1.9958  2.9840
19594TIP3   OH280196   2.640   6.516   5.975  0.4777  0.1688 -0.4298
19594TIP3    H180197   2.677   6.485   6.058  1.5855 -0.9877 -1.3138
19594TIP3    H280198   2.696   6.590   5.951 -0.0295  0.6983 -0.0270
19595TIP3   OH280199   4.101   6.427   0.247  0.0718 -0.1687 -0.2171
19595TIP3    H180200   4.074   6.518   0.256  0.5287 -0.1975  1.9593
19595TIP3    H280201   4.196   6.431   0.234 -0.2515 -0.2615 -3.1692
19596TIP3   OH280202   1.859   3.313   5.999  0.0446 -0.2235  0.3768
19596TIP3    H180203   1.855   3.382   5.933 -1.4414 -2.4327 -2.0303
19596TIP3    H280204   1.951   3.288   6.003  0.1129 -0.2483 -1.1014
19597TIP3   OH280205   0.717   0.943  10.550  0.2517 -0.3250  0.3727
19597TIP3    H180206   0.649   1.007  10.528 -1.4528 -2.6268 -1.5780
19597TIP3    H280207   0.746   0.967  10.638 -0.6183  2.7810 -0.0924
19598TIP3   OH280208   4.102   5.537   0.380  0.1029  0.3505  0.2242
19598TIP3    H180209   4.014   5.567   0.359 -0.1373 -0.5550 -0.1439
19598TIP3    H280210   4.148   5.615   0.410 -0.2312  1.2445 -1.4612
19599TIP3   OH280211   1.435   4.814  16.917 -0.1992 -0.2733 -0.1868
19599TIP3    H180212   1.428   4.848  16.828  1.3449  3.0375  0.7714
19599TIP3    H280213   1.400   4.885  16.972 -0.8325 -2.0908  1.8830
19600TIP3   OH280214   4.449   1.841  13.922  0.2638  0.1171  0.0013
19600TIP3    H180215   4.475   1.778  13.989 -1.2937  1.1981  1.6972
19600TIP3    H280216   4.531   1.867  13.880  1.0761 -1.9680  0.1824
19601TIP3   OH280217   5.099   1.101  11.495  0.5402  0.2111  0.2061
19601TIP3    H180218   5.105   1.178  11.552 -0.5045 -0.7320  1.6635
19601TIP3    H280219   5.049   1.132  11.420  0.9625  1.2007  0.3089
19602TIP3   OH280220   0.905   6.088   2.282 -0.2117 -0.0164  0.0881
19602TIP3    H180221   0.830   6.120   2.333  1.1349 -0.5916  2.5542
19602TIP3    H280222   0.873   6.007   2.242 -1.1015  0.0879  0.5589
19603TIP3   OH280223   5.277   6.310  13.562 -0.3971  0.4326  0.5510
19603TIP3    H180224   5.232   6.362  13.627  0.2320 -0.7755  2.0156
19603TIP3    H280225   5.311   6.374  13.499 -1.3884  1.5922  1.1585
19604TIP3   OH280226   1.913   4.893  15.378 -0.5974 -0.3275  0.0914
19604TIP3    H180227   1.979   4.899  15.309  0.5417 -1.4866  1.0239
19604TIP3    H280228   1.948   4.827  15.438 -0.4488  2.1655  2.9586
19605TIP3   OH280229   1.985   1.535  12.376  0.3222 -0.1581  0.2150
19605TIP3    H180230   1.967   1.466  12.440 -0.4457  1.9072  2.3524
19605TIP3    H280231   2.076   1.560  12.392 -0.5198  1.9569  2.2795
19606TIP3   OH280232   4.831   0.375   2.401  0.0508 -0.4183  0.4737
19606TIP3    H180233   4.916   0.394   2.362  0.2776 -0.4890  0.9389
19606TIP3    H280234   4.829   0.425   2.483 -0.5089 -0.1123  0.2861
19607TIP3   OH280235   1.400   0.126  15.933  0.1670 -0.2421 -0.1679
19607TIP3    H180236   1.374   0.218  15.919  0.5758 -0.2154 -0.7687
19607TIP3    H280237   1.317   0.078  15.933 -0.2489  0.3524  2.1708
19608TIP3   OH280238   2.656   6.791  12.898  0.9239 -0.4319 -0.4037
19608TIP3    H180239   2.731   6.816  12.952  1.2480  0.2659 -1.1606
19608TIP3    H280240   2.641   6.699  12.919  0.3652  0.0837  1.6676
19609TIP3   OH280241   4.953   2.566  12.778 -0.3645 -0.3428  0.2547
19609TIP3    H180242   5.046   2.575  12.796 -0.3364 -0.0603 -0.0257
19609TIP3    H280243   4.910   2.593  12.860 -0.1740 -1.8557  0.8833
19610TIP3   OH280244   5.324   0.704   3.126  0.0877 -0.1016 -0.1358
19610TIP3    H180245   5.310   0.798   3.137  1.1006  0.2882 -1.8268
19610TIP3    H280246   5.278   0.664   3.200  0.1083  1.7481  0.9331
19611TIP3   OH280247   0.070   1.295   1.222  0.1844 -0.1540  0.4774
19611TIP3    H180248   0.098   1.215   1.178 -1.3605  0.0884 -1.0652
19611TIP3    H280249  -0.024   1.284   1.235  0.3565  0.4251  2.4367
19612TIP3   OH280250   6.769   4.581  17.067 -0.1834  0.7687  0.4162
19612TIP3    H180251   6.792   4.673  17.057  1.2971  0.4623  0.8001
19612TIP3    H280252   6.783   4.542  16.981  0.3531  0.6639  0.5502
19613TIP3   OH280253   3.873   3.772  14.635  0.5694  0.0748 -0.1443
19613TIP3    H180254   3.887   3.828  14.711 -1.9417  0.0721  0.4182
19613TIP3    H280255   3.783   3.739  14.646  0.4232 -0.5903 -2.6863
19614TIP3   OH280256   1.632   1.441   0.104  0.5645 -0.1988 -0.1223
19614TIP3    H180257   1.545   1.479   0.113  2.0701  3.1521  2.1375
19614TIP3    H280258   1.685   1.510   0.064  2.4231 -1.8271 -0.6638
19615TIP3   OH280259   2.078   2.140   1.641  0.0899 -0.2496 -0.0704
19615TIP3    H180260   1.998   2.142   1.694 -0.7728 -0.7876 -1.3017
19615TIP3    H280261   2.111   2.051   1.651 -0.6054 -0.6515 -1.1505
19616TIP3   OH280262   2.874   2.699   1.806 -0.0929  0.2571  0.5434
19616TIP3    H180263   2.908   2.765   1.746  2.0024  0.8420  2.2615
19616TIP3    H280264   2.939   2.628   1.804 -0.1390  0.1469  1.8295
19617TIP3   OH280265   6.274   5.354  12.794 -0.6792  0.5150 -0.1285
19617TIP3    H180266   6.290   5.287  12.861  0.1624  1.3433  0.5243
19617TIP3    H280267   6.282   5.307  12.711 -1.1767 -0.4118  0.3254
19618TIP3   OH280268   1.845   0.195   5.938  0.4101  0.5850  0.2670
19618TIP3    H180269   1.775   0.188   6.002  0.6408  0.8551  0.5490
19618TIP3    H280270   1.921   0.224   5.988  1.0143 -0.7689  0.1645
19619TIP3   OH280271   0.480   5.125   5.034  0.5393 -0.3641  0.3429
19619TIP3    H180272   0.500   5.209   4.991  0.8937 -1.0804 -0.9454
19619TIP3    H280273   0.410   5.146   5.095  0.3194  0.8009 -0.2674
19620TIP3   OH280274   0.261   4.604   5.199 -0.3396 -0.8142  0.0328
19620TIP3    H180275   0.232   4.624   5.288 -1.6183 -0.9620 -0.3233
19620TIP3    H280276   0.319   4.676   5.175 -3.0097  1.3564 -0.3867
19621TIP3   OH280277   1.985   6.516  15.612 -0.6438 -0.1626  0.3576
19621TIP3    H180278   1.908   6.483  15.659 -1.2476 -1.2209 -1.3045
19621TIP3    H280279   2.051   6.447  15.623 -0.5421 -0.0829  0.2403
19622TIP3   OH280280   5.071   6.617   3.600  0.1573  0.3521 -0.1381
19622TIP3    H180281   5.156   6.581   3.577 -0.0047  0.0355 -0.2481
19622TIP3    H280282   5.064   6.605   3.695  0.5560  1.0723 -0.0159
19623TIP3   OH280283   0.723   1.198  13.003  0.0684  0.0178  0.3997
19623TIP3    H180284   0.814   1.201  13.032  0.0859  2.0617  0.3019
19623TIP3    H280285   0.720   1.255  12.926 -1.0513 -1.0650 -0.4023
19624TIP3   OH280286   1.562   2.826  14.630  1.0103 -0.1831  0.5411
19624TIP3    H180287   1.590   2.918  14.624 -0.7352  0.3117 -0.7458
19624TIP3    H280288   1.644   2.776  14.635  2.1107  1.2460 -1.7357
19625TIP3   OH280289   1.793   1.406   5.865 -0.2480 -0.6860  0.0327
19625TIP3    H180290   1.826   1.358   5.789  1.3014  0.3016  0.0197
19625TIP3    H280291   1.796   1.498   5.838  2.9168 -0.0330  2.0912
19626TIP3   OH280292   6.637   2.593   2.426 -0.2432 -0.8013 -0.0261
19626TIP3    H180293   6.693   2.642   2.366 -0.8808 -1.7482 -1.4554
19626TIP3    H280294   6.697   2.556   2.491  0.4361  0.3989  0.0574
19627TIP3   OH280295   3.447   5.966  16.033 -0.1561  0.1581  0.1470
19627TIP3    H180296   3.376   5.958  16.097  0.0310  0.7011  0.4366
19627TIP3    H280297   3.442   6.057  16.003  0.2166  0.1127 -0.0625
19628TIP3   OH280298   6.581   4.355   3.500 -0.0078 -0.1538  0.0180
19628TIP3    H180299   6.617   4.294   3.565  2.1900  0.4473 -0.5623
19628TIP3    H280300   6.569   4.436   3.549  1.2374  0.1755 -0.1992
19629TIP3   OH280301   3.809   0.430   2.515  0.2800 -0.2159  0.1728
19629TIP3    H180302   3.768   0.369   2.576  0.1425  2.5396  3.0581
19629TIP3    H280303   3.902   0.430   2.540  0.3081  0.6027  0.0726
19630TIP3   OH280304   0.616   3.474  16.463 -0.1959 -0.0341  0.2650
19630TIP3    H180305   0.570   3.390  16.462 -2.6568  1.2226  0.7418
19630TIP3    H280306   0.633   3.490  16.556  0.7445 -0.2227  0.1331
19631TIP3   OH280307   5.052   3.974   3.283  0.6150 -0.1272  0.2671
19631TIP3    H180308   5.070   3.905   3.347  4.0326  1.8673  1.7157
19631TIP3    H280309   5.090   3.942   3.201 -0.9635 -1.3556 -0.0309
19632TIP3   OH280310   3.541   1.572   6.183  0.6241  0.8946  0.6378
19632TIP3    H180311   3.637   1.577   6.183  0.7056 -0.2217  2.1455
19632TIP3    H280312   3.513   1.656   6.219  1.0619  0.9818  0.7844
19633TIP3   OH280313   0.743   3.668  10.443  0.4256 -0.1886 -0.5276
19633TIP3    H180314   0.715   3.635  10.358  0.2526  0.6398 -0.7947
19633TIP3    H280315   0.771   3.590  10.490 -4.3646 -1.5091  0.6425
19634TIP3   OH280316   4.445   3.831  10.435 -0.8074 -0.0116  0.1371
19634TIP3    H180317   4.371   3.838  10.495  0.0436 -1.1422  1.3858
19634TIP3    H280318   4.510   3.781  10.484  0.4107  0.1202 -1.2888
19635TIP3   OH280319   2.875   0.416  10.451  0.3636  0.2181  0.1433
19635TIP3    H180320   2.927   0.344  10.416  1.0132  0.8685 -0.2476
19635TIP3    H280321   2.920   0.495  10.422 -0.6740  0.7936  0.0506
19636TIP3   OH280322   1.420   3.721   6.221  0.7664 -0.0709  0.1419
19636TIP3    H180323   1.409   3.641   6.273  3.0601 -0.8922 -0.5282
19636TIP3    H280324   1.513   3.742   6.228  0.5909  1.4096 -1.3310
19637TIP3   OH280325   4.626   5.742  13.619 -0.3605  0.3008  0.1608
19637TIP3    H180326   4.536   5.718  13.598  0.0446 -0.7958 -0.3842
19637TIP3    H280327   4.643   5.819  13.564 -0.5998 -0.1738 -0.5981
19638TIP3   OH280328   5.398   1.663   2.113  0.2921  0.3305  0.1412
19638TIP3    H180329   5.473   1.697   2.161  1.8320 -1.4155 -0.9183
19638TIP3    H280330   5.386   1.574   2.146 -1.2446  0.5312  0.1954
19639TIP3   OH280331   0.088   1.867   4.106 -0.9894  0.7577 -0.6646
19639TIP3    H180332   0.169   1.826   4.136 -1.0582  0.7603 -0.4768
19639TIP3    H280333   0.021   1.836   4.167 -1.3251 -0.0712 -1.4409
19640TIP3   OH280334   5.182   0.327   3.889 -0.2587 -0.6943 -0.1750
19640TIP3    H180335   5.182   0.262   3.959 -1.9756 -0.1771  0.3555
19640TIP3    H280336   5.238   0.398   3.922  0.7853 -1.4275 -0.3224
19641TIP3   OH280337   1.768   4.026  15.348  0.5589 -0.3574 -0.7324
19641TIP3    H180338   1.843   3.997  15.400 -1.0623 -0.8116  1.5142
19641TIP3    H280339   1.794   4.111  15.313  1.6686  0.0924  1.0638
19642TIP3   OH280340   0.093   0.132  14.328 -0.3346 -0.7344 -0.1097
19642TIP3    H180341   0.056   0.061  14.275 -0.2308 -0.4198 -0.6160
19642TIP3    H280342   0.155   0.175  14.269 -0.0880 -0.4815  0.3285
19643TIP3   OH280343   2.615   4.305   4.606 -0.5205  0.4849  0.1455
19643TIP3    H180344   2.607   4.224   4.656 -1.3094  0.2750 -0.3043
19643TIP3    H280345   2.698   4.296   4.559 -0.7233 -0.1925 -0.1091
19644TIP3   OH280346   6.384   3.347   1.840  0.2472 -0.5961 -0.2532
19644TIP3    H180347   6.332   3.422   1.869 -2.1256 -2.8330  1.8578
19644TIP3    H280348   6.456   3.342   1.903  2.0399  1.3465 -2.0019
19645TIP3   OH280349   0.740   3.490  15.292  0.5410 -0.1062  0.3877
19645TIP3    H180350   0.653   3.520  15.267  1.6416  1.1871 -2.3472
19645TIP3    H280351   0.782   3.567  15.331  0.3068 -0.9260  2.4194
19646TIP3   OH280352   3.877   6.124  16.197 -0.6390  0.9581  0.0486
19646TIP3    H180353   3.791   6.081  16.204  0.0232 -0.2812  0.9640
19646TIP3    H280354   3.934   6.057  16.159 -0.1392  1.8977 -0.9172
19647TIP3   OH280355   1.048   4.279   4.088  0.4615  0.1663 -0.6221
19647TIP3    H180356   0.998   4.211   4.132 -0.4815  0.4198 -1.2545
19647TIP3    H280357   1.130   4.237   4.064  1.2128  0.1628  1.7513
19648TIP3   OH280358   4.918   3.237  14.042 -0.4435 -0.2280  0.1456
19648TIP3    H180359   4.961   3.229  13.958 -1.1108  1.0454 -0.3522
19648TIP3    H280360   4.828   3.265  14.021 -0.8594 -0.6716  1.2400
19649TIP3   OH280361   0.710   3.992  14.351 -0.1552 -0.2459 -0.0440
19649TIP3    H180362   0.762   4.023  14.425 -1.8418  0.8228  0.7380
19649TIP3    H280363   0.623   3.977  14.387 -1.2277  1.0604 -1.9324
19650TIP3   OH280364   4.733   1.788  15.485  0.1134 -0.0164  0.0314
19650TIP3    H180365   4.783   1.869  15.475 -1.2678  1.0064  1.0225
19650TIP3    H280366   4.653   1.814  15.530 -1.1543 -1.6559 -1.1405
19651TIP3   OH280367   2.324   1.951   3.970 -0.2955 -0.0347 -0.3021
19651TIP3    H180368   2.307   1.987   3.883  2.3081  1.9310 -0.0901
19651TIP3    H280369   2.364   2.022   4.019  0.1618 -1.6905  1.9121
19652TIP3   OH280370   2.736   0.175   0.410 -0.1085  0.0561 -0.2956
19652TIP3    H180371   2.719   0.118   0.336 -2.0345  0.7843 -0.4988
19652TIP3    H280372   2.796   0.126   0.466  0.0371 -1.2108 -1.5129
19653TIP3   OH280373   5.693   5.956  12.316  0.3988 -0.3373 -0.3243
19653TIP3    H180374   5.702   5.861  12.310  0.4401 -0.4571  1.2481
19653TIP3    H280375   5.606   5.974  12.280  0.4184 -0.9455 -0.6972
19654TIP3   OH280376   0.621   3.712  15.929  0.5970 -0.8784 -0.2898
19654TIP3    H180377   0.541   3.683  15.973  0.5205 -1.3158 -0.7099
19654TIP3    H280378   0.670   3.758  15.997  0.9723 -2.4650  0.5419
19655TIP3   OH280379   6.338   1.062  14.649 -0.0768 -0.5328 -0.6312
19655TIP3    H180380   6.311   1.014  14.727 -0.9214  0.8656 -0.0204
19655TIP3    H280381   6.421   1.105  14.674 -0.3191 -0.1291 -0.5115
19656TIP3   OH280382   0.216   3.374   4.164  1.0180  0.2950  0.2873
19656TIP3    H180383   0.196   3.395   4.073  0.7354  0.2253  0.3313
19656TIP3    H280384   0.131   3.351   4.202  1.2380 -0.3794  0.3848
19657TIP3   OH280385   6.499   3.377  16.560  0.6038  0.0361 -0.1560
19657TIP3    H180386   6.532   3.298  16.603  2.0258  1.6174  1.8997
19657TIP3    H280387   6.577   3.416  16.521  0.5676  1.8946  1.4676
19658TIP3   OH280388   1.170   1.419   3.164  0.0321  0.0743 -0.0410
19658TIP3    H180389   1.153   1.384   3.251 -1.0755 -0.6609 -0.5383
19658TIP3    H280390   1.200   1.509   3.180 -1.1105  0.2829  1.0633
19659TIP3   OH280391   1.124   6.050   5.433  0.3664  0.0112 -0.4343
19659TIP3    H180392   1.093   6.093   5.354  0.8614  1.5965  0.2028
19659TIP3    H280393   1.218   6.069   5.435  0.4335 -0.3742  0.3065
19660TIP3   OH280394   5.519   2.525   0.244  0.1343  0.0332  0.2485
19660TIP3    H180395   5.590   2.463   0.227 -0.0357 -0.4704  1.2935
19660TIP3    H280396   5.460   2.516   0.169  1.1863  0.5041 -0.6645
19661TIP3   OH280397   6.053   1.753   1.364 -1.1863 -0.1843 -0.1450
19661TIP3    H180398   6.110   1.829   1.355 -0.6896 -0.8062 -3.5686
19661TIP3    H280399   6.112   1.678   1.353 -1.8936 -1.1000  1.7688
19662TIP3   OH280400   2.023   0.367   5.754 -0.1379  0.1539 -0.5381
19662TIP3    H180401   2.041   0.304   5.823 -2.2009 -0.8109 -0.8023
19662TIP3    H280402   2.016   0.314   5.674  1.5733  1.1714 -1.4397
19663TIP3   OH280403   4.741   4.630   5.889 -0.0030 -0.4242 -0.3534
19663TIP3    H180404   4.811   4.645   5.953 -1.3127 -1.5769  1.4743
19663TIP3    H280405   4.715   4.717   5.860  1.7220  0.0546 -0.5938
19664TIP3   OH280406   3.233   0.641  12.518  0.2917 -0.2086  0.0213
19664TIP3    H180407   3.206   0.730  12.493  0.2171  0.1799  1.3789
19664TIP3    H280408   3.232   0.592  12.436 -0.8615  0.7372 -0.5735
19665TIP3   OH280409   1.227   1.929  14.288  0.5872 -0.0461 -0.2066
19665TIP3    H180410   1.236   1.904  14.380  0.4484 -0.4266 -0.2974
19665TIP3    H280411   1.162   1.869  14.253 -1.1223  1.5736  0.0140
19666TIP3   OH280412   2.184   0.364   5.074  0.2061 -0.3466 -0.4497
19666TIP3    H180413   2.185   0.370   4.978 -0.0593 -0.7761 -0.4829
19666TIP3    H280414   2.256   0.306   5.095 -0.2142 -0.8749 -0.4426
19667TIP3   OH280415   4.999   5.294   4.111 -0.2426 -0.2765  0.2367
19667TIP3    H180416   4.911   5.330   4.112 -0.9995 -2.0354 -0.1781
19667TIP3    H280417   4.990   5.204   4.142  1.3286 -0.6398 -0.2336
19668TIP3   OH280418   3.186   4.014   0.517 -0.3077  0.4488 -0.4089
19668TIP3    H180419   3.142   3.999   0.600 -1.4302  1.6376 -0.7485
19668TIP3    H280420   3.271   4.050   0.541 -0.3027  0.0256  0.2258
19669TIP3   OH280421   3.298   4.096  14.719  0.0224  0.1056  0.0065
19669TIP3    H180422   3.260   4.181  14.742  0.1542 -0.5587  3.1757
19669TIP3    H280423   3.223   4.041  14.696  0.0125  1.2344 -3.1112
19670TIP3   OH280424   1.607   6.514  13.971  0.3724  0.0247  0.0349
19670TIP3    H180425   1.610   6.457  13.894  2.5122  0.2277 -0.0992
19670TIP3    H280426   1.699   6.538  13.986 -0.1979  1.3633  1.6344
19671TIP3   OH280427   0.260   1.829   4.935  0.5918  0.3597  0.0477
19671TIP3    H180428   0.315   1.903   4.908  1.6910  0.9333  3.3934
19671TIP3    H280429   0.319   1.755   4.939  0.2553  0.0893  0.0399
19672TIP3   OH280430   2.815   3.862   4.025 -0.2649  0.7145 -0.2868
19672TIP3    H180431   2.777   3.879   3.938  2.0452  0.4001 -1.4209
19672TIP3    H280432   2.744   3.819   4.073 -1.6589  0.9989 -1.9634
19673TIP3   OH280433   1.945   2.496  15.550  0.7947  0.3571 -0.2863
19673TIP3    H180434   1.994   2.453  15.480  0.4818 -1.5202  0.5874
19673TIP3    H280435   1.903   2.424  15.598  2.8627  1.2758  3.2757
19674TIP3   OH280436   5.620   2.229  13.513  0.1140 -0.1498 -0.1863
19674TIP3    H180437   5.555   2.222  13.584  0.4879 -1.6752  0.0479
19674TIP3    H280438   5.582   2.293  13.453 -0.9657  0.0121  0.6224
19675TIP3   OH280439   6.432   4.863  13.092  0.1598  0.0312 -0.1123
19675TIP3    H180440   6.436   4.957  13.110  0.4690 -0.3533  2.0732
19675TIP3    H280441   6.521   4.831  13.105  0.6277 -0.2797 -3.1609
19676TIP3   OH280442   2.160   3.552   4.319  0.2394 -0.4253  0.0823
19676TIP3    H180443   2.084   3.604   4.295  1.6275  1.2995 -0.8653
19676TIP3    H280444   2.145   3.527   4.410 -2.4725 -2.1201 -0.7075
19677TIP3   OH280445   5.341   5.190   0.511 -0.0048 -0.0130  0.3707
19677TIP3    H180446   5.263   5.240   0.486  1.0523  1.4303 -0.2165
19677TIP3    H280447   5.307   5.111   0.552 -1.7784  0.2653 -0.4624
19678TIP3   OH280448   2.163   1.133   5.295 -0.5283  0.5359  0.0113
19678TIP3    H180449   2.191   1.065   5.234  0.7271  0.3991  0.7122
19678TIP3    H280450   2.116   1.196   5.240  1.7156  1.1085 -1.3790
19679TIP3   OH280451   3.225   0.291   2.219  0.0043 -0.3899 -0.1974
19679TIP3    H180452   3.291   0.345   2.262  0.3211 -0.6311 -0.3793
19679TIP3    H280453   3.264   0.268   2.134  0.7498 -2.5777  0.6738
19680TIP3   OH280454   0.928   0.976   0.139  0.1509 -0.1112 -0.3920
19680TIP3    H180455   0.980   1.052   0.167 -0.7706  0.2131  0.5086
19680TIP3    H280456   0.941   0.912   0.209  2.1267 -1.4241 -1.8487
19681TIP3   OH280457   4.279   5.091  13.977  0.0449 -0.4440  0.3819
19681TIP3    H180458   4.249   5.088  14.068  0.0957 -0.0358  0.4151
19681TIP3    H280459   4.271   5.183  13.952 -0.3765 -0.6202 -0.1664
19682TIP3   OH280460   0.376   0.960  12.872 -0.1408  0.6138  0.0130
19682TIP3    H180461   0.457   0.916  12.844 -0.2251  1.1415 -1.0917
19682TIP3    H280462   0.322   0.963  12.794 -1.1192  0.5493  0.6698
19683TIP3   OH280463   4.396   5.523  10.790 -0.6004  0.8192 -0.2496
19683TIP3    H180464   4.474   5.565  10.753 -1.3279  1.0971 -1.5478
19683TIP3    H280465   4.430   5.462  10.855  0.7612  0.3152 -1.3751
19684TIP3   OH280466   4.512   4.087  15.494  0.3263  0.0313  0.4627
19684TIP3    H180467   4.526   4.018  15.559  0.6243 -0.8662 -0.5112
19684TIP3    H280468   4.471   4.158  15.542 -5.0287 -2.6737  0.7221
19685TIP3   OH280469   4.091   1.169   2.661 -0.5875  0.3496 -0.8037
19685TIP3    H180470   4.096   1.094   2.602  1.0582  0.8884 -1.4121
19685TIP3    H280471   4.020   1.148   2.722  0.3247 -2.0305 -0.4842
19686TIP3   OH280472   6.635   5.963  10.584 -0.1312  1.1488  0.1444
19686TIP3    H180473   6.695   5.901  10.542 -0.2621  1.4702 -0.5408
19686TIP3    H280474   6.688   6.041  10.600  0.2079  0.6421  1.6224
19687TIP3   OH280475   1.659   0.570   1.539  0.1881  0.0494 -0.4616
19687TIP3    H180476   1.625   0.492   1.494  1.4363 -0.3464 -0.7536
19687TIP3    H280477   1.660   0.544   1.632 -0.2838  0.0634 -0.4488
19688TIP3   OH280478   4.742   0.432   3.273 -0.3861 -0.3390  0.2672
19688TIP3    H180479   4.834   0.405   3.277 -0.2719 -0.1317 -0.6801
19688TIP3    H280480   4.703   0.394   3.351  0.7731  0.6627  1.3788
19689TIP3   OH280481   1.172   5.770  13.684  0.0657 -0.1766  1.2271
19689TIP3    H180482   1.160   5.844  13.743 -0.6090  0.6957  0.0374
19689TIP3    H280483   1.249   5.793  13.631 -1.5545  0.8802 -0.8094
19690TIP3   OH280484   4.373   6.554   1.160  0.0666 -1.1216 -0.0870
19690TIP3    H180485   4.423   6.597   1.229 -1.5082  1.5546 -0.4630
19690TIP3    H280486   4.433   6.548   1.087  0.7056 -0.7075  0.3921
19691TIP3   OH280487   1.339   5.372   5.912  0.0860 -0.1515 -0.4046
19691TIP3    H180488   1.263   5.383   5.856 -0.4981  1.1245  0.5686
19691TIP3    H280489   1.372   5.461   5.925  0.3852 -0.4335  0.9799
19692TIP3   OH280490   5.620   6.128   0.898  0.3956  0.3880 -0.7609
19692TIP3    H180491   5.533   6.168   0.899  0.6256  0.9226  0.7153
19692TIP3    H280492   5.677   6.194   0.937  1.3290 -0.2607 -0.9818
19693TIP3   OH280493   0.373   1.798   0.939  0.4646 -0.0064  0.1531
19693TIP3    H180494   0.386   1.724   0.999 -0.7945  0.1530  0.6637
19693TIP3    H280495   0.291   1.778   0.893  0.0233  1.1127  0.4025
19694TIP3   OH280496   4.138   6.570  16.618 -0.6906 -0.2834 -0.5631
19694TIP3    H180497   4.146   6.641  16.555 -1.0514 -0.3591 -0.6966
19694TIP3    H280498   4.058   6.589  16.666  0.5427  0.8108  1.1912
19695TIP3   OH280499   4.938   2.233   6.137  0.1985 -0.0933 -0.0296
19695TIP3    H180500   4.985   2.290   6.198  2.3146 -1.8500  0.1101
19695TIP3    H280501   4.947   2.145   6.174 -0.6740 -0.8823 -1.5680
19696TIP3   OH280502   2.335   6.369  13.101  0.3453 -0.2972  0.1593
19696TIP3    H180503   2.376   6.418  13.031  2.1002  0.3861  1.5819
19696TIP3    H280504   2.393   6.295  13.116 -2.3286 -3.1537 -2.0732
19697TIP3   OH280505   4.938   0.650  16.795  0.0125 -0.4154  0.2808
19697TIP3    H180506   5.014   0.687  16.840 -0.3439  0.7678 -0.0538
19697TIP3    H280507   4.952   0.673  16.703 -0.3376 -0.9129  0.1031
19698TIP3   OH280508   3.480   0.966  11.768 -0.0639 -0.1037  0.2010
19698TIP3    H180509   3.492   1.046  11.819 -1.4146  0.8258 -0.8400
19698TIP3    H280510   3.538   0.976  11.693  0.1491 -0.3419  0.3342
19699TIP3   OH280511   3.380   0.063   0.778  0.2453  0.0898 -0.4985
19699TIP3    H180512   3.464   0.097   0.747  0.0020  0.3103 -0.9245
19699TIP3    H280513   3.324   0.061   0.700 -0.1063 -0.1782 -0.2449
19700TIP3   OH280514   2.923   1.305   3.305 -0.2744 -0.6292 -0.4550
19700TIP3    H180515   2.840   1.301   3.258 -0.4571  0.2248 -0.2264
19700TIP3    H280516   2.899   1.329   3.395  0.1006 -1.8161 -0.0226
19701TIP3   OH280517   3.036   1.817   4.528 -0.0447  0.0338 -0.4542
19701TIP3    H180518   2.989   1.739   4.558  1.9435 -0.3480  2.0765
19701TIP3    H280519   2.971   1.886   4.526 -1.4275 -1.2228 -0.7479
19702TIP3   OH280520   1.205   1.546   6.486 -0.1403 -0.2472  0.0488
19702TIP3    H180521   1.231   1.624   6.534 -1.3739  1.3271 -1.6833
19702TIP3    H280522   1.264   1.542   6.412 -0.8090 -0.2750 -0.4927
19703TIP3   OH280523   3.770   4.948  11.205 -0.0098 -0.1235  0.4286
19703TIP3    H180524   3.712   4.952  11.130 -0.2081 -0.0448  0.5872
19703TIP3    H280525   3.712   4.945  11.281  0.1725  1.3328  0.6670
19704TIP3   OH280526   3.891   4.564  13.044  0.0320 -0.3004  0.4480
19704TIP3    H180527   3.847   4.563  12.959  0.7215  3.3540 -0.1530
19704TIP3    H280528   3.820   4.581  13.106 -0.0992  0.1770  0.1757
19705TIP3   OH280529   6.599   3.839   1.511  0.4763 -0.4812  0.1286
19705TIP3    H180530   6.514   3.800   1.492  0.0346 -0.4821  1.9920
19705TIP3    H280531   6.586   3.933   1.497  0.3380 -0.5402 -0.1496
19706TIP3   OH280532   5.056   2.597   5.041 -0.0905  0.9584  0.3216
19706TIP3    H180533   5.052   2.693   5.045  0.0165  1.0827 -1.6838
19706TIP3    H280534   4.969   2.569   5.072 -0.3905  1.7256  0.2047
19707TIP3   OH280535   5.810   0.438  12.255 -0.1271  0.1615  0.1794
19707TIP3    H180536   5.810   0.345  12.234 -0.1532 -0.0035  0.8854
19707TIP3    H280537   5.894   0.470  12.223  0.1091 -0.2210  0.4058
19708TIP3   OH280538   6.244   0.939  15.538 -0.2486 -0.4973  0.3118
19708TIP3    H180539   6.287   0.905  15.615 -1.4107  0.7529  1.5789
19708TIP3    H280540   6.191   0.866  15.505  0.9178 -1.2962  0.1530
19709TIP3   OH280541   4.135   4.856   6.045 -0.7158 -0.0002  0.5819
19709TIP3    H180542   4.101   4.797   6.113  0.3245 -0.8792  0.3648
19709TIP3    H280543   4.101   4.943   6.070  0.8724  0.0053  3.1450
19710TIP3   OH280544   6.270   1.110   2.675  0.0235 -0.1092 -0.3078
19710TIP3    H180545   6.331   1.182   2.693  0.2692 -0.4829  0.3976
19710TIP3    H280546   6.294   1.042   2.738 -1.3191 -0.1485  0.2043
19711TIP3   OH280547   3.948   1.683  11.501  0.2436  0.4113  0.3516
19711TIP3    H180548   3.896   1.757  11.534  0.4439  0.6566  0.1306
19711TIP3    H280549   3.893   1.643  11.433  0.1392  0.3662  0.4632
19712TIP3   OH280550   3.914   4.563   0.241 -0.0156  0.5056  0.1117
19712TIP3    H180551   3.926   4.617   0.319  0.9094  1.0732 -0.4083
19712TIP3    H280552   3.986   4.499   0.245  0.3752  0.8919 -0.5553
19713TIP3   OH280553   0.514   6.615  13.148  0.3414  0.2451 -0.2457
19713TIP3    H180554   0.443   6.585  13.204 -0.1484  0.7791 -0.5786
19713TIP3    H280555   0.485   6.597  13.059  1.1001 -0.5574 -0.3590
19714TIP3   OH280556   6.497   0.680   2.869 -0.2305  0.0540 -0.3146
19714TIP3    H180557   6.585   0.647   2.885 -0.4776 -0.9988 -1.0322
19714TIP3    H280558   6.450   0.666   2.951  0.2493  0.5648  0.0495
19715TIP3   OH280559   5.144   4.484  15.803  0.1944 -0.5729 -0.0963
19715TIP3    H180560   5.126   4.568  15.761 -0.1935  0.3666  1.8048
19715TIP3    H280561   5.100   4.419  15.748 -2.3253  0.8194  0.1022
19716TIP3   OH280562   6.408   5.073  12.788  0.1168 -0.2650  0.1842
19716TIP3    H180563   6.481   5.017  12.813  0.9064  0.0198 -1.3789
19716TIP3    H280564   6.332   5.035  12.832  1.3757  0.2530  3.0158
19717TIP3   OH280565   4.576   4.565  13.507  0.4768  0.1171  0.2070
19717TIP3    H180566   4.651   4.581  13.451  1.1264  1.1664  1.3134
19717TIP3    H280567   4.500   4.575  13.450  1.1079  1.3744 -0.4491
19718TIP3   OH280568   0.234   0.761   0.368 -0.0274  0.1625  0.2035
19718TIP3    H180569   0.186   0.678   0.362  3.4008 -1.9969  0.1667
19718TIP3    H280570   0.182   0.813   0.429 -2.5811 -1.8019 -0.1049
19719TIP3   OH280571   0.940   1.784  16.475 -0.1357  0.2313  0.2315
19719TIP3    H180572   0.978   1.721  16.536 -0.0436  0.1111  0.0518
19719TIP3    H280573   0.985   1.767  16.392 -0.3149  0.3432  0.1123
19720TIP3   OH280574   0.722   5.235   5.402 -0.1514  0.1532 -0.2776
19720TIP3    H180575   0.715   5.316   5.453 -1.3395 -0.6841  0.9373
19720TIP3    H280576   0.693   5.260   5.314  0.1873  1.1973 -0.1170
19721TIP3   OH280577   3.383   2.633  15.596 -0.1692  0.1289  0.0297
19721TIP3    H180578   3.432   2.715  15.596  0.0200  0.0233 -1.0166
19721TIP3    H280579   3.401   2.594  15.511 -0.2698 -1.0003  0.5050
19722TIP3   OH280580   4.665   3.208  13.005 -0.4635 -0.4592  0.4950
19722TIP3    H180581   4.718   3.256  13.070  0.2211  0.1328 -0.4670
19722TIP3    H280582   4.670   3.117  13.033  2.3670 -0.6808 -0.3409
19723TIP3   OH280583   5.732   6.493  13.911 -0.1242  0.4270  0.1139
19723TIP3    H180584   5.724   6.398  13.922 -1.3192  0.0564 -2.9064
19723TIP3    H280585   5.647   6.521  13.878  1.0097  2.0625 -1.6669
19724TIP3   OH280586   5.240   6.468  16.170  0.2667  0.2979 -0.3777
19724TIP3    H180587   5.153   6.458  16.206  0.3180 -0.5308 -0.4653
19724TIP3    H280588   5.248   6.561  16.151 -0.9985  0.2354 -1.3624
19725TIP3   OH280589   5.798   6.382  14.802 -0.8084 -0.1249  0.6569
19725TIP3    H180590   5.736   6.312  14.824 -0.3342 -0.4762  0.8988
19725TIP3    H280591   5.746   6.446  14.755 -1.2938 -0.5556  0.5969
19726TIP3   OH280592   5.546   0.666  14.440 -0.2543 -0.3612  0.4105
19726TIP3    H180593   5.610   0.610  14.483 -0.4471 -0.9534 -0.0693
19726TIP3    H280594   5.495   0.607  14.385  0.2163  0.4287 -0.9218
19727TIP3   OH280595   4.952   0.344   4.820  0.1268 -0.3155  0.0454
19727TIP3    H180596   4.910   0.359   4.735 -1.2410  0.0020  0.7459
19727TIP3    H280597   4.966   0.249   4.823  2.1810 -0.1167 -1.3998
19728TIP3   OH280598   6.341   3.770   5.058  0.0291 -0.1740 -0.4178
19728TIP3    H180599   6.254   3.771   5.100 -0.0794 -0.3051 -0.6378
19728TIP3    H280600   6.326   3.805   4.971  0.5292  1.5714  0.1572
19729TIP3   OH280601   0.022   4.344   0.090 -0.0139 -0.3707 -0.3235
19729TIP3    H180602   0.114   4.338   0.064 -0.1444 -0.1583 -0.8539
19729TIP3    H280603  -0.009   4.426   0.052  0.1980  0.8037  1.8767
19730TIP3   OH280604   2.512   2.298  13.515  0.3068 -0.3068 -0.1330
19730TIP3    H180605   2.566   2.376  13.507  0.5157 -0.3717  0.5437
19730TIP3    H280606   2.431   2.328  13.556  0.4930 -0.4781  0.3775
19731TIP3   OH280607   5.740   1.036  16.505  0.0898 -0.3662 -0.6207
19731TIP3    H180608   5.719   1.123  16.471 -0.1368  0.2667  1.0416
19731TIP3    H280609   5.824   1.046  16.548  1.0709 -1.4984 -2.1395
19732TIP3   OH280610   0.757   2.641   2.771 -0.1233 -0.4149  0.3868
19732TIP3    H180611   0.687   2.643   2.836 -0.3106 -1.2113  0.2233
19732TIP3    H280612   0.837   2.635   2.822 -0.3217 -2.0840  0.5589
19733TIP3   OH280613   2.034   0.927   2.840 -0.0327  0.2251 -0.2598
19733TIP3    H180614   2.004   0.837   2.853  0.1856 -0.1267 -1.9543
19733TIP3    H280615   1.964   0.981   2.876  0.4239 -0.5820  2.0000
19734TIP3   OH280616   5.978   4.250  16.290  0.5283  0.2475 -0.2712
19734TIP3    H180617   5.909   4.314  16.272  0.1813 -0.2759 -0.8792
19734TIP3    H280618   5.933   4.165  16.288  0.8237  0.0180  1.3425
19735TIP3   OH280619   2.576   0.224  10.586  0.0638 -0.5746  0.1194
19735TIP3    H180620   2.649   0.173  10.619  0.1217 -1.3783 -1.1777
19735TIP3    H280621   2.590   0.312  10.621  0.9732 -1.0120  0.8815
19736TIP3   OH280622   4.147   1.020  11.921  0.1815  0.2824 -0.1636
19736TIP3    H180623   4.234   0.985  11.902  0.2402  0.4933 -0.2772
19736TIP3    H280624   4.112   1.045  11.836  0.2681  0.8035 -0.0453
19737TIP3   OH280625   1.495   3.970   2.502  0.0513 -0.4528  0.4000
19737TIP3    H180626   1.451   4.029   2.441  2.1941 -0.5087 -1.3388
19737TIP3    H280627   1.431   3.900   2.518 -0.2255 -1.1127 -2.8549
19738TIP3   OH280628   5.364   2.358  15.656 -0.1328  0.2331 -0.1781
19738TIP3    H180629   5.376   2.435  15.601  1.8675 -0.1963 -0.4505
19738TIP3    H280630   5.335   2.392  15.740  1.8386  1.4563  0.0813
19739TIP3   OH280631   2.779   6.014   3.789 -0.3270  0.1626 -0.1965
19739TIP3    H180632   2.784   5.942   3.726  0.7911  0.4163 -0.4247
19739TIP3    H280633   2.859   6.005   3.841 -1.0452  0.1917  0.9444
19740TIP3   OH280634   4.725   0.865   1.857 -0.7145 -0.7749 -0.0966
19740TIP3    H180635   4.721   0.928   1.929 -0.2234 -0.0272 -0.7034
19740TIP3    H280636   4.691   0.784   1.894  0.0377 -0.5599  1.1347
19741TIP3   OH280637   2.475   2.912   3.374 -0.0356  0.0847  0.2301
19741TIP3    H180638   2.468   2.992   3.323 -0.7627 -0.2877 -0.2807
19741TIP3    H280639   2.390   2.869   3.363  0.1307 -0.4655  0.9809
19742TIP3   OH280640   2.033   3.217  15.444  0.2890  0.2242  1.3508
19742TIP3    H180641   2.072   3.234  15.530  0.1294  0.2440  1.4185
19742TIP3    H280642   1.968   3.287  15.433  1.4429  1.2226  0.5080
19743TIP3   OH280643   6.612   6.645   5.505 -0.1254 -0.3418 -0.6339
19743TIP3    H180644   6.637   6.555   5.526 -0.3675 -0.4720 -0.8999
19743TIP3    H280645   6.538   6.637   5.445  0.0237  0.0346 -0.8744
19744TIP3   OH280646   2.382   1.580  12.799  0.4091 -0.5032  0.0310
19744TIP3    H180647   2.408   1.657  12.849  0.2870 -0.0013 -0.6595
19744TIP3    H280648   2.379   1.509  12.864 -0.7174  0.3300  0.9339
19745TIP3   OH280649   6.417   6.010  14.508 -0.3847  0.4877  0.2753
19745TIP3    H180650   6.476   6.077  14.473 -0.4910  1.0053  1.0477
19745TIP3    H280651   6.457   5.984  14.591  1.4690 -2.8585 -1.4492
19746TIP3   OH280652   5.818   5.557   4.049 -0.0517 -1.0622  0.4104
19746TIP3    H180653   5.748   5.621   4.061  0.6214 -0.0369 -0.8405
19746TIP3    H280654   5.793   5.484   4.104 -1.5627 -0.2876  0.8196
19747TIP3   OH280655   6.464   1.427  13.337  0.5763 -0.0132 -0.5182
19747TIP3    H180656   6.378   1.437  13.377  0.6183 -0.2265 -0.3680
19747TIP3    H280657   6.454   1.355  13.275  0.3458  0.7524 -1.3897
19748TIP3   OH280658   3.414   5.915   4.232 -0.1159 -0.1408 -0.4514
19748TIP3    H180659   3.504   5.884   4.238  0.3432  0.3915 -3.1482
19748TIP3    H280660   3.404   5.975   4.306  1.2949 -1.1756  0.6298
19749TIP3   OH280661   2.896   5.053   4.984  0.1482  0.4351  0.4650
19749TIP3    H180662   2.905   5.042   4.889 -0.4245  1.0932  0.3242
19749TIP3    H280663   2.907   5.147   4.998  0.4904  0.3025  1.0815
19750TIP3   OH280664   0.210   6.183   1.425  0.3679 -0.2060 -0.1811
19750TIP3    H180665   0.288   6.224   1.462 -0.8000  0.3622  1.8484
19750TIP3    H280666   0.137   6.226   1.469 -1.0139 -2.9271  0.4550
19751TIP3   OH280667   0.041   5.682  14.030 -0.7051  0.0532 -0.3716
19751TIP3    H180668   0.037   5.777  14.043 -0.2783  0.1476 -0.9041
19751TIP3    H280669   0.078   5.671  13.942 -0.9329 -0.6048 -0.3910
19752TIP3   OH280670   2.927   1.552   4.510  0.3262  0.1827  0.0405
19752TIP3    H180671   2.942   1.463   4.481  0.4793  0.2635 -0.1287
19752TIP3    H280672   2.895   1.598   4.433  0.0918  0.2355  0.1672
19753TIP3   OH280673   6.192   4.737  16.619  0.1939  0.0135 -0.4418
19753TIP3    H180674   6.172   4.812  16.676 -0.6401 -0.5884  0.0782
19753TIP3    H280675   6.118   4.734  16.558  0.0582 -0.5660 -0.2582
19754TIP3   OH280676   2.329   6.484  12.018 -0.0542 -0.0865  1.0120
19754TIP3    H180677   2.355   6.558  12.073 -2.1581  1.2177  0.3961
19754TIP3    H280678   2.247   6.513  11.978  0.4745 -1.7027 -1.4022
19755TIP3   OH280679   1.300   6.620   2.150 -0.2099  0.3075  0.1611
19755TIP3    H180680   1.208   6.642   2.167  0.1183  0.9582  1.2063
19755TIP3    H280681   1.300   6.525   2.141 -0.9489  0.2764  0.3911
19756TIP3   OH280682   3.542   5.945  10.878  0.4180  0.1333  0.1103
19756TIP3    H180683   3.449   5.920  10.878  0.7218 -1.4378 -3.1724
19756TIP3    H280684   3.543   6.030  10.921 -2.7875  0.8939 -1.0304
19757TIP3   OH280685   1.891   3.779   4.246 -0.3908 -0.1218 -0.6744
19757TIP3    H180686   1.879   3.869   4.275  0.2115  0.2411 -1.5025
19757TIP3    H280687   1.874   3.726   4.324  1.8289  0.8261  0.5460
19758TIP3   OH280688   1.085   5.435   5.809 -0.5324  0.2757 -0.1414
19758TIP3    H180689   1.136   5.472   5.736  0.1298 -0.6343 -0.1522
19758TIP3    H280690   1.026   5.372   5.768 -0.6128  0.2314  0.0407
19759TIP3   OH280691   0.051   0.251  14.881 -0.3009 -0.1392  0.3028
19759TIP3    H180692  -0.010   0.262  14.807  0.8908 -3.2469 -1.3184
19759TIP3    H280693   0.111   0.182  14.852  4.2043  2.8138  1.7097
19760TIP3   OH280694   6.586   3.185  13.639  0.4238  0.5842  1.0207
19760TIP3    H180695   6.540   3.250  13.692  1.3209  2.0486  0.0648
19760TIP3    H280696   6.678   3.195  13.663  1.0048  2.0065 -1.4454
19761TIP3   OH280697   5.870   2.964  11.741  0.4853  0.0693  0.2973
19761TIP3    H180698   5.860   3.022  11.665 -2.1749  1.4294  1.5762
19761TIP3    H280699   5.842   2.878  11.709 -0.5447  0.6123 -0.3086
19762TIP3   OH280700   3.906   0.901   5.772 -0.0365 -0.0009 -0.2982
19762TIP3    H180701   3.843   0.831   5.753  0.1619 -0.2645  0.0047
19762TIP3    H280702   3.909   0.906   5.867  0.3328  0.0734 -0.3131
19763TIP3   OH280703   4.059   2.813  15.229 -0.5772  0.2307 -0.5008
19763TIP3    H180704   4.154   2.806  15.229 -0.3827  2.2893  1.0884
19763TIP3    H280705   4.037   2.842  15.140  0.3980  1.0890 -0.4685
19764TIP3   OH280706   6.378   6.204  16.726 -0.2825 -0.2066  0.8393
19764TIP3    H180707   6.418   6.240  16.806  3.3215  0.3192 -1.0025
19764TIP3    H280708   6.405   6.112  16.726  1.2644  0.1893 -0.4981
19765TIP3   OH280709   3.613   1.812   5.074 -0.0153  0.4107 -0.3548
19765TIP3    H180710   3.673   1.738   5.064 -0.0886  0.4632 -1.2945
19765TIP3    H280711   3.526   1.775   5.057  0.0500  0.9045 -2.0310
19766TIP3   OH280712   0.877   2.257  11.969  0.0766  0.2856 -1.1008
19766TIP3    H180713   0.812   2.193  11.941  0.6251 -1.1700  0.7324
19766TIP3    H280714   0.957   2.206  11.980  0.6700  1.3976 -0.0979
19767TIP3   OH280715   6.240   6.297   1.969  0.1688 -0.5566  0.2565
19767TIP3    H180716   6.278   6.214   1.998 -0.8551 -1.6156 -1.3098
19767TIP3    H280717   6.147   6.279   1.955  0.1261  0.5362 -1.1941
19768TIP3   OH280718   4.945   2.412  16.944  0.3002  0.4376  0.6437
19768TIP3    H180719   4.884   2.375  17.008  0.1839 -0.3284  0.1018
19768TIP3    H280720   4.964   2.339  16.884  0.2421  1.1924 -0.3154
19769TIP3   OH280721   0.994   6.318   0.969 -0.1738 -0.1390  0.4866
19769TIP3    H180722   0.993   6.241   0.911  2.7170 -0.2208  0.3893
19769TIP3    H280723   1.082   6.355   0.958 -0.9899  2.3548  1.6466
19770TIP3   OH280724   4.872   6.328  12.350 -0.2343 -0.1865 -0.7067
19770TIP3    H180725   4.777   6.325  12.363 -0.1415  0.5278  0.2456
19770TIP3    H280726   4.886   6.404  12.295 -0.1514  0.1924 -0.1665
19771TIP3   OH280727   1.887   4.147   5.444  1.0757  0.0994  0.3442
19771TIP3    H180728   1.831   4.170   5.519 -0.9886 -1.7990 -0.5179
19771TIP3    H280729   1.888   4.226   5.390 -1.1816  0.0669  0.1726
19772TIP3   OH280730   5.220   1.018   1.502 -0.5027  0.7418 -0.0430
19772TIP3    H180731   5.125   1.003   1.510 -0.4116 -0.1523 -0.5538
19772TIP3    H280732   5.232   1.044   1.411 -0.0957 -0.4788 -0.3509
19773TIP3   OH280733   4.658   0.647  16.019  0.2433 -0.1946  0.1659
19773TIP3    H180734   4.722   0.691  15.962  0.9712 -1.6419 -0.1760
19773TIP3    H280735   4.585   0.625  15.961  1.0092 -1.7193 -0.2723
19774TIP3   OH280736   0.937   0.265  16.785 -0.5178  0.2876 -0.3696
19774TIP3    H180737   0.933   0.169  16.784 -0.7404  0.2897  0.0851
19774TIP3    H280738   0.900   0.291  16.701 -1.1081 -0.0064 -0.2037
19775TIP3   OH280739   2.545   6.440   4.619  0.6529  0.1433  0.1711
19775TIP3    H180740   2.569   6.376   4.552  0.1531 -0.3761  0.4756
19775TIP3    H280741   2.580   6.404   4.700  0.5687  0.3693  0.3089
19776TIP3   OH280742   2.553   0.489  16.597  0.1512 -0.4660  0.2717
19776TIP3    H180743   2.541   0.455  16.686  1.3236 -1.4762  0.0833
19776TIP3    H280744   2.632   0.542  16.602  0.1526 -0.4231 -0.1414
19777TIP3   OH280745   2.514   1.637   0.943 -0.3194 -0.7846 -0.0365
19777TIP3    H180746   2.533   1.679   1.027  0.5927 -0.4310 -0.3940
19777TIP3    H280747   2.488   1.548   0.965  0.2159 -0.7926  0.6123
19778TIP3   OH280748   1.402   6.104  11.623 -0.0208 -0.2163 -0.6020
19778TIP3    H180749   1.385   6.163  11.697 -1.2787 -1.8497  0.4740
19778TIP3    H280750   1.481   6.056  11.649 -0.3460 -0.6445 -0.3821
19779TIP3   OH280751   6.157   1.172   5.409  0.0990 -0.1785  0.1535
19779TIP3    H180752   6.154   1.252   5.461 -0.4220  0.8326 -1.3739
19779TIP3    H280753   6.070   1.132   5.421 -0.2194  0.3455 -0.3626
19780TIP3   OH280754   5.085   1.389  11.134  0.4627  0.4637  0.1405
19780TIP3    H180755   5.072   1.318  11.197  2.1914 -0.2291 -0.2454
19780TIP3    H280756   5.021   1.372  11.065 -0.8206  0.7113  1.2275
19781TIP3   OH280757   0.981   1.329  16.126 -0.5087 -0.0038 -0.2488
19781TIP3    H180758   1.050   1.391  16.105  0.7648 -0.6852  1.6882
19781TIP3    H280759   1.020   1.268  16.189 -2.4819 -1.1963 -0.0635
19782TIP3   OH280760   1.789   5.505  12.753  0.5610  0.3509 -0.1265
19782TIP3    H180761   1.809   5.411  12.754 -1.7637 -0.1971  0.8938
19782TIP3    H280762   1.783   5.527  12.660 -0.2391 -0.8572 -0.3938
19783TIP3   OH280763   1.374   3.900   1.929 -0.3128 -0.7531  0.2406
19783TIP3    H180764   1.306   3.941   1.876 -1.1014 -0.5976  1.3427
19783TIP3    H280765   1.356   3.929   2.018  1.0739 -0.8939  0.5857
19784TIP3   OH280766   1.484   0.606  12.879 -0.5217 -0.2473  0.0577
19784TIP3    H180767   1.419   0.596  12.810 -0.0902  2.5996 -0.8716
19784TIP3    H280768   1.451   0.676  12.934  0.9134  0.0816  0.5565
19785TIP3   OH280769   2.249   3.391  15.933  0.4531 -0.5580 -0.1340
19785TIP3    H180770   2.284   3.303  15.921  2.1246  0.0836 -0.3061
19785TIP3    H280771   2.233   3.423  15.844 -0.5586 -0.8339 -0.0555
19786TIP3   OH280772   4.846   5.770  10.711  0.5157 -0.2597  0.0258
19786TIP3    H180773   4.927   5.745  10.667 -0.8404 -0.6195 -2.4784
19786TIP3    H280774   4.826   5.857  10.677  0.0724  0.0114  0.9590
19787TIP3   OH280775   2.805   6.659   1.332  0.0747  0.0574  0.4348
19787TIP3    H180776   2.818   6.596   1.403  0.9059 -0.2123  0.0606
19787TIP3    H280777   2.835   6.613   1.254  0.6220  0.8805  0.1443
19788TIP3   OH280778   4.313   0.436   6.176 -0.0723 -0.0048  0.3872
19788TIP3    H180779   4.302   0.343   6.196 -1.3566 -0.2698 -1.2962
19788TIP3    H280780   4.275   0.481   6.252 -1.0454 -0.8978  0.4616
19789TIP3   OH280781   2.335   1.770  10.923 -0.1252  0.1433  0.0957
19789TIP3    H180782   2.327   1.781  11.017  0.2346  2.0187 -0.0493
19789TIP3    H280783   2.323   1.858  10.887 -1.1076 -0.6572 -1.6841
19790TIP3   OH280784   2.668   0.880  15.948 -0.1181  0.0531  0.1573
19790TIP3    H180785   2.677   0.939  15.874  0.2167 -1.0516 -0.7202
19790TIP3    H280786   2.638   0.935  16.020  1.4429  1.5187 -0.2570
19791TIP3   OH280787   3.102   1.785   4.273 -0.6412  0.1644 -0.7527
19791TIP3    H180788   3.136   1.846   4.207  1.0052  0.6761  0.4882
19791TIP3    H280789   3.087   1.839   4.350  0.3558 -0.8643  0.2189
19792TIP3   OH280790   2.432   1.521  10.858 -0.2169 -0.4986  0.4343
19792TIP3    H180791   2.510   1.531  10.802 -0.4185 -0.8982  0.0698
19792TIP3    H280792   2.419   1.607  10.897 -0.0850 -0.2033 -0.1610
19793TIP3   OH280793   3.921   1.999   3.828  0.0801 -0.5638 -0.3478
19793TIP3    H180794   3.953   1.993   3.918  0.4614  1.0064 -0.3407
19793TIP3    H280795   3.855   2.068   3.831  0.4527 -0.1496 -1.3558
19794TIP3   OH280796   0.970   3.712  14.766  0.4061  0.5352 -0.0069
19794TIP3    H180797   1.057   3.741  14.736  1.4330 -1.2429  1.0825
19794TIP3    H280798   0.955   3.631  14.718 -0.0248  0.1007  0.8600
19795TIP3   OH280799   2.682   6.519   1.958 -0.3549  0.3274 -0.1840
19795TIP3    H180800   2.673   6.615   1.959  1.6129  0.5585 -0.4749
19795TIP3    H280801   2.625   6.489   2.029 -0.0647  1.8232  0.7340
19796TIP3   OH280802   4.777   3.167   1.216 -0.4377  0.2559  0.3906
19796TIP3    H180803   4.731   3.167   1.132 -1.8644  2.5071  1.1045
19796TIP3    H280804   4.795   3.074   1.233  1.9084 -0.1800 -3.3835
19797TIP3   OH280805   5.671   3.678   3.258 -0.0508  0.0096 -0.3258
19797TIP3    H180806   5.722   3.621   3.316 -3.1914 -2.8669 -0.0896
19797TIP3    H280807   5.710   3.664   3.171  0.6726 -0.7123  0.1009
19798TIP3   OH280808   5.758   4.517  15.315 -0.4006  0.1318 -0.4986
19798TIP3    H180809   5.756   4.425  15.288  0.6408  0.0497 -0.3291
19798TIP3    H280810   5.670   4.533  15.349  0.2252 -1.7062  2.3743
19799TIP3   OH280811   2.047   2.852   5.015 -0.1412 -0.7467  0.2760
19799TIP3    H180812   2.020   2.787   5.080 -1.1979 -1.6045 -0.9566
19799TIP3    H280813   2.141   2.836   5.004 -0.4284 -2.3378 -0.2338
19800TIP3   OH280814   5.119   3.480  13.017 -0.2059 -0.0890  0.1999
19800TIP3    H180815   5.038   3.531  13.022 -0.0477  0.1985 -0.1641
19800TIP3    H280816   5.131   3.448  13.107 -1.4196 -1.2407 -0.0156
19801TIP3   OH280817   6.733   5.261  11.275  0.0417 -0.9870 -0.6339
19801TIP3    H180818   6.785   5.330  11.317 -0.9302 -1.4603  1.4910
19801TIP3    H280819   6.670   5.309  11.221 -0.6393 -0.1467  0.8272
19802TIP3   OH280820   4.958   1.973  14.347 -0.5013  0.0597  0.5847
19802TIP3    H180821   4.869   1.978  14.311 -1.0503  1.8998  2.0491
19802TIP3    H280822   4.996   1.896  14.305 -2.2959  0.0337 -1.1524
19803TIP3   OH280823   6.547   4.597  12.107  0.9932 -0.2870  0.1327
19803TIP3    H180824   6.634   4.579  12.144  0.7173 -1.6338  0.1384
19803TIP3    H280825   6.492   4.525  12.136  0.2389 -0.2691 -1.1668
19804TIP3   OH280826   3.042   3.266   4.720 -0.1437  0.3244  0.5448
19804TIP3    H180827   3.020   3.175   4.703 -0.6972  0.5927 -0.1935
19804TIP3    H280828   2.996   3.316   4.653 -1.0432  1.2715  1.8153
19805TIP3   OH280829   4.045   6.514   1.893 -0.1034  0.6392 -0.0798
19805TIP3    H180830   4.082   6.579   1.832 -0.9067 -0.0102 -1.2972
19805TIP3    H280831   3.951   6.523   1.883 -0.2254 -0.9264 -0.5099
19806TIP3   OH280832   0.150   0.093  12.804 -0.0401  1.1876  0.4892
19806TIP3    H180833   0.227   0.102  12.748 -0.6905  1.1381 -0.4406
19806TIP3    H280834   0.180   0.041  12.879  0.3332 -0.6666 -0.8790
19807TIP3   OH280835   0.646   4.208   0.833 -0.2611  0.1858 -0.1147
19807TIP3    H180836   0.589   4.193   0.758 -0.4981  1.5143 -0.2246
19807TIP3    H280837   0.587   4.215   0.908 -0.4780  3.1215 -0.4443
19808TIP3   OH280838   0.765   2.336   3.693  0.1657 -0.1386 -0.4994
19808TIP3    H180839   0.736   2.322   3.603 -4.0047 -0.4020  0.6708
19808TIP3    H280840   0.776   2.247   3.728 -1.9192 -0.2008  0.1568
19809TIP3   OH280841   5.595   2.986  16.499 -0.1197  0.3485  0.3262
19809TIP3    H180842   5.594   2.931  16.420  2.1765 -0.4012  0.7389
19809TIP3    H280843   5.644   3.064  16.473 -0.1887  0.5340  0.7450
19810TIP3   OH280844   6.369   5.121   2.185  0.1957 -0.1585  0.5016
19810TIP3    H180845   6.373   5.085   2.097 -0.5570  0.1883  0.3159
19810TIP3    H280846   6.323   5.205   2.174  0.3455  0.0168  1.1791
19811TIP3   OH280847   1.425   1.601   6.356 -0.4591  0.1529 -0.0903
19811TIP3    H180848   1.388   1.666   6.296 -1.0428  0.3699  0.4960
19811TIP3    H280849   1.505   1.641   6.388  0.3482 -0.3348 -1.3966
19812TIP3   OH280850   5.493   3.351  10.672 -0.2359 -0.1638 -0.0866
19812TIP3    H180851   5.445   3.317  10.748 -0.6766 -1.8532 -1.0805
19812TIP3    H280852   5.556   3.283  10.651 -0.1325  0.2777 -1.2711
19813TIP3   OH280853   6.601   2.381  13.904 -0.3498  0.1592  0.7287
19813TIP3    H180854   6.574   2.428  13.982 -0.0292  0.5247  0.6201
19813TIP3    H280855   6.520   2.371  13.853 -0.0072  3.2870 -0.6997
19814TIP3   OH280856   4.280   0.210   5.386  0.2806  0.6537 -0.0643
19814TIP3    H180857   4.367   0.222   5.350  0.5930 -0.3538  0.3132
19814TIP3    H280858   4.281   0.256   5.469  0.8758 -0.4003  0.5322
19815TIP3   OH280859   0.721   6.186  13.397  0.1243 -0.8846 -0.2410
19815TIP3    H180860   0.670   6.235  13.332  1.9002  0.9026 -0.3834
19815TIP3    H280861   0.797   6.153  13.348 -0.5367 -3.0650  0.0732
19816TIP3   OH280862   3.357   0.142  11.897 -0.4356 -0.3255 -0.3803
19816TIP3    H180863   3.334   0.085  11.824 -1.1090  0.2108 -0.6021
19816TIP3    H280864   3.332   0.230  11.867 -0.2435 -0.0327  0.3005
19817TIP3   OH280865   0.635   3.830  14.049  0.1855  0.1378 -0.9026
19817TIP3    H180866   0.556   3.816  14.101 -0.0078 -0.5036 -1.3553
19817TIP3    H280867   0.645   3.925  14.045  0.5040  0.1901  0.7399
19818TIP3   OH280868   5.889   4.946  15.017  0.6970 -0.0549 -0.0250
19818TIP3    H180869   5.953   4.955  15.087 -0.1831  0.4864  0.7193
19818TIP3    H280870   5.807   4.979  15.054  0.1775  0.0718 -1.2450
19819TIP3   OH280871   4.319   1.398  13.210 -0.3625  0.0953  0.6468
19819TIP3    H180872   4.251   1.395  13.142 -1.3239  1.0490  1.5309
19819TIP3    H280873   4.352   1.488  13.207  1.1898 -0.4686 -0.0522
19820TIP3   OH280874   5.030   2.715  15.582 -0.9285  0.4608 -0.0953
19820TIP3    H180875   4.939   2.696  15.559 -0.2294 -1.8168 -1.3515
19820TIP3    H280876   5.059   2.637  15.631  0.5260  0.8180 -0.3243
19821TIP3   OH280877   1.639   2.201  14.429 -0.6542 -0.5481 -0.1811
19821TIP3    H180878   1.586   2.276  14.403  0.4385  0.2864 -0.0284
19821TIP3    H280879   1.637   2.201  14.524 -0.0712 -0.2841 -0.1662
19822TIP3   OH280880   5.132   6.106   1.425  0.2693 -0.0131 -0.3125
19822TIP3    H180881   5.196   6.147   1.482 -0.6284  2.6220 -1.0620
19822TIP3    H280882   5.108   6.174   1.362 -2.6808 -1.0850 -0.5268
19823TIP3   OH280883   1.587   2.187   3.205 -0.6327  0.0714  0.0833
19823TIP3    H180884   1.639   2.113   3.172  0.1541 -0.2226  1.8724
19823TIP3    H280885   1.497   2.164   3.183 -0.1850 -0.1872 -1.6471
19824TIP3   OH280886   4.220   2.194   2.095 -0.1393  0.2265 -0.5601
19824TIP3    H180887   4.276   2.174   2.170  0.5655 -1.3193 -1.4679
19824TIP3    H280888   4.280   2.201   2.021 -0.9454  0.6482 -1.1904
19825TIP3   OH280889   5.527   5.053   5.326  0.4874 -0.0771  0.3181
19825TIP3    H180890   5.553   5.028   5.414  1.3813  0.1102  0.1109
19825TIP3    H280891   5.467   5.127   5.338 -0.1847 -0.6924  0.8088
19826TIP3   OH280892   0.281   5.746  15.252 -0.3454 -0.1940 -0.3850
19826TIP3    H180893   0.289   5.689  15.175 -0.6103 -1.3023  0.3853
19826TIP3    H280894   0.295   5.834  15.218 -1.2618 -0.5713 -1.8570
19827TIP3   OH280895   4.592   4.593   0.318  0.0306  0.3807 -0.3520
19827TIP3    H180896   4.681   4.605   0.283  0.9418 -0.3693  1.5467
19827TIP3    H280897   4.600   4.615   0.411 -0.8721 -3.0691  0.6911
19828TIP3   OH280898   4.965   4.820  17.093 -0.3001 -0.2341 -0.7747
19828TIP3    H180899   4.952   4.773  17.175 -1.1969 -2.0479 -1.8838
19828TIP3    H280900   4.999   4.906  17.119  1.0469 -1.3442  1.3618
19829TIP3   OH280901   2.631   2.266   2.449 -0.2971 -0.6765 -0.0840
19829TIP3    H180902   2.545   2.306   2.440 -1.0230 -2.4277 -1.4119
19829TIP3    H280903   2.689   2.323   2.398 -0.5494  0.7235  1.1319
19830TIP3   OH280904   4.379   2.444  13.195  0.2160  0.1567  0.2407
19830TIP3    H180905   4.355   2.414  13.283  0.6055  2.3134  1.1546
19830TIP3    H280906   4.300   2.485  13.161 -0.0650 -1.0470 -0.6485
19831TIP3   OH280907   3.476   1.864  15.014 -0.5553  0.8346 -0.2921
19831TIP3    H180908   3.408   1.819  14.964 -0.3221  0.4273 -0.2418
19831TIP3    H280909   3.527   1.911  14.948 -1.4351  1.8837 -0.2441
19832TIP3   OH280910   6.540   4.326  11.570 -0.2337  0.3999 -0.0462
19832TIP3    H180911   6.552   4.414  11.535 -0.6592  1.1902  1.7011
19832TIP3    H280912   6.482   4.283  11.507  1.1190  0.8404 -1.6824
19833TIP3   OH280913   1.244   0.694   2.243 -0.3426  0.3407 -0.3778
19833TIP3    H180914   1.278   0.762   2.185  0.5398 -0.2903 -0.6116
19833TIP3    H280915   1.156   0.675   2.209 -1.1577  2.2604  0.4731
19834TIP3   OH280916   5.416   5.661   1.788  0.1528 -0.2521  0.0923
19834TIP3    H180917   5.420   5.628   1.878  1.1283  1.5146  0.7440
19834TIP3    H280918   5.502   5.641   1.751  0.3433  0.4874  0.1166
19835TIP3   OH280919   2.129   5.537   3.941 -0.0947  0.3926 -0.1907
19835TIP3    H180920   2.193   5.529   3.871  1.1078 -0.8692  0.9743
19835TIP3    H280921   2.086   5.451   3.944  0.1962  0.2730  0.8939
19836TIP3   OH280922   6.597   4.243  13.920  0.0328 -0.3236 -0.4488
19836TIP3    H180923   6.571   4.327  13.958 -0.1769 -0.1118 -1.0428
19836TIP3    H280924   6.635   4.195  13.993  0.0197  0.2298 -0.0651
19837TIP3   OH280925   2.730   3.534  13.121 -0.8490 -0.1228 -0.0291
19837TIP3    H180926   2.695   3.448  13.140 -0.2935 -0.0175  1.6563
19837TIP3    H280927   2.815   3.536  13.165 -0.3179  0.8786 -1.0227
19838TIP3   OH280928   3.564   6.263   4.263 -0.0625  0.1329 -0.0865
19838TIP3    H180929   3.543   6.189   4.320  0.0443 -0.8903 -1.3273
19838TIP3    H280930   3.620   6.319   4.316 -0.1796 -0.6608  0.8983
19839TIP3   OH280931   4.083   0.134  12.187  0.2585  0.7754  0.0395
19839TIP3    H180932   4.014   0.200  12.180 -0.7590 -0.1232  1.1441
19839TIP3    H280933   4.135   0.146  12.108 -1.5721  1.0266 -1.2016
19840TIP3   OH280934   6.718   0.915   2.195  0.4229  0.0037 -0.2732
19840TIP3    H180935   6.721   0.991   2.254 -1.2906  1.1463 -1.5618
19840TIP3    H280936   6.646   0.934   2.135 -0.2939 -2.8166 -0.4500
19841TIP3   OH280937   3.629   3.035   3.120 -0.2011  0.2650 -0.2737
19841TIP3    H180938   3.604   3.006   3.032 -1.7072  2.1264 -0.5301
19841TIP3    H280939   3.720   3.063   3.110 -0.2764  0.2315 -1.2005
19842TIP3   OH280940   3.862   2.685  15.819  0.6491  0.1725  0.3032
19842TIP3    H180941   3.800   2.741  15.863 -1.1630 -0.0646 -1.7827
19842TIP3    H280942   3.810   2.613  15.784  1.9103  0.3285 -2.1537
19843TIP3   OH280943   3.680   5.256   5.775  0.1739  0.4951  0.1147
19843TIP3    H180944   3.770   5.258   5.745 -0.2577 -1.6914 -1.5974
19843TIP3    H280945   3.686   5.249   5.870  1.8411 -0.2004 -0.0121
19844TIP3   OH280946   0.984   6.018   4.657 -0.6036  0.1707 -0.4034
19844TIP3    H180947   0.976   6.059   4.743 -1.0514 -0.9388  0.1024
19844TIP3    H280948   0.949   6.083   4.596 -0.1738  1.0169  0.2262
19845TIP3   OH280949   2.721   5.692   6.176  0.5021 -0.1226  0.2095
19845TIP3    H180950   2.758   5.765   6.225  1.0955  0.8489 -1.6090
19845TIP3    H280951   2.627   5.696   6.195  0.4292  1.5162 -0.3117
19846TIP3   OH280952   0.510   2.584   1.281  0.4845 -0.1609  0.4663
19846TIP3    H180953   0.470   2.665   1.312  0.3530  0.1172 -0.3940
19846TIP3    H280954   0.588   2.613   1.233 -0.8838 -0.2788 -2.0367
19847TIP3   OH280955   4.989   6.148   3.575 -0.6882  0.9777  0.3640
19847TIP3    H180956   5.080   6.139   3.602 -1.2659  2.3418  3.1851
19847TIP3    H280957   4.992   6.145   3.480  2.2022  0.3005  0.3760
19848TIP3   OH280958   6.314   1.766  15.442  0.1772 -0.4267 -0.6038
19848TIP3    H180959   6.316   1.772  15.537 -2.8292 -0.8831 -0.4057
19848TIP3    H280960   6.252   1.833  15.415 -0.4718 -1.5441 -2.0369
19849TIP3   OH280961   0.282   5.211  14.779 -0.0330  0.1730 -0.2461
19849TIP3    H180962   0.335   5.240  14.854 -2.6247  0.0325  1.7905
19849TIP3    H280963   0.245   5.291  14.743  0.3673  0.1504 -0.7123
19850TIP3   OH280964   6.620   2.186  13.035 -0.0323  0.0047  1.1522
19850TIP3    H180965   6.715   2.185  13.047 -0.0939 -0.1979  1.6374
19850TIP3    H280966   6.585   2.139  13.110 -0.3955 -2.5057 -0.4679
19851TIP3   OH280967   3.300   1.003   5.425  0.1648 -0.0642  0.3820
19851TIP3    H180968   3.333   1.076   5.477 -1.6852  1.1906 -0.0899
19851TIP3    H280969   3.236   0.960   5.481  0.9605 -1.1206  0.5130
19852TIP3   OH280970   0.078   6.079  12.522  0.3219  0.4595  0.1344
19852TIP3    H180971   0.020   6.009  12.550  0.9322  0.3293  1.1216
19852TIP3    H280972   0.151   6.035  12.478 -0.6694  0.6669 -1.8288
19853TIP3   OH280973   2.171   1.944  16.770  0.5670  0.2769 -0.5274
19853TIP3    H180974   2.234   2.007  16.735 -1.0134  1.7240 -0.8707
19853TIP3    H280975   2.166   1.965  16.864 -0.0943  0.8203 -0.6735
19854TIP3   OH280976   1.680   6.690   1.963 -0.7462  0.1641 -0.3190
19854TIP3    H180977   1.706   6.746   1.889 -0.1731  0.1123 -0.1555
19854TIP3    H280978   1.702   6.602   1.935  0.6449  0.2548  0.4018
19855TIP3   OH280979   1.136   2.661  14.668 -0.4246  0.0217 -0.8348
19855TIP3    H180980   1.160   2.750  14.694 -2.1095  0.4736 -0.6932
19855TIP3    H280981   1.168   2.605  14.738  0.0117  0.5950 -0.5705
19856TIP3   OH280982   1.502   2.584   5.922  0.8691 -0.3453 -0.7369
19856TIP3    H180983   1.587   2.554   5.890  1.4975  0.7042 -0.0960
19856TIP3    H280984   1.521   2.661   5.975 -0.6231  0.8020 -1.7662
19857TIP3   OH280985   2.131   4.266   2.146  0.2352 -0.2147  0.3575
19857TIP3    H180986   2.080   4.213   2.208 -0.5125 -0.9655 -0.8474
19857TIP3    H280987   2.086   4.254   2.062  1.5188  0.3608 -0.4423
19858TIP3   OH280988   2.447   4.921   2.726  0.3907  0.0637 -0.0839
19858TIP3    H180989   2.361   4.900   2.690  0.7927 -2.8361  0.4008
19858TIP3    H280990   2.429   4.976   2.801 -1.1135 -0.7880  0.2246
19859TIP3   OH280991   6.403   6.341  10.858  0.2632 -0.2226 -0.3114
19859TIP3    H180992   6.405   6.285  10.780  0.2699  0.9083 -1.1364
19859TIP3    H280993   6.466   6.410  10.840 -0.7391  0.8305  0.0857
19860TIP3   OH280994   5.576   5.897   0.441 -0.0730  0.3631  0.2698
19860TIP3    H180995   5.651   5.838   0.446 -1.2058 -1.3472 -1.4614
19860TIP3    H280996   5.500   5.840   0.449 -1.2376  1.9021  0.7498
19861TIP3   OH280997   3.073   2.738  11.094 -0.0664  0.7045  0.0419
19861TIP3    H180998   3.079   2.806  11.027  0.5661  1.7084  1.0879
19861TIP3    H280999   3.080   2.785  11.177  1.5386 -0.7208  0.7857
19862TIP3   OH281000   4.587   3.860   2.509 -0.7082  0.1135 -0.3706
19862TIP3    H181001   4.504   3.814   2.505  0.7071 -2.5958 -0.8485
19862TIP3    H281002   4.577   3.923   2.581 -1.9716 -2.7437  2.1438
19863TIP3   OH281003   6.515   0.518  17.025 -0.4694 -0.1742  0.0907
19863TIP3    H181004   6.556   0.596  17.063 -1.5093  0.7118 -0.5612
19863TIP3    H281005   6.440   0.500  17.081 -0.3412 -0.6166  0.1295
19864TIP3   OH281006   0.191   1.062   4.085  0.3991 -0.3383 -0.1757
19864TIP3    H181007   0.124   1.129   4.079  0.4468 -0.3864 -3.7982
19864TIP3    H281008   0.274   1.110   4.075  0.4084 -0.7786 -3.4332
19865TIP3   OH281009   6.319   4.727   4.924  0.2361 -0.9705 -0.3392
19865TIP3    H181010   6.282   4.767   5.003 -1.2128  0.9327 -1.8800
19865TIP3    H281011   6.394   4.677   4.956  0.3968  0.6367  2.1225
19866TIP3   OH281012   2.598   2.097  13.168  0.2674 -0.4989 -0.2839
19866TIP3    H181013   2.559   2.108  13.082  3.4338 -1.2511 -1.9604
19866TIP3    H281014   2.642   2.012  13.164  3.0034  0.7262  0.9136
19867TIP3   OH281015   4.723   0.440   0.614  0.2403 -0.4299  0.2651
19867TIP3    H181016   4.756   0.433   0.524 -0.4104  0.6590 -0.0793
19867TIP3    H281017   4.658   0.510   0.610 -0.3959 -0.9392  1.4253
19868TIP3   OH281018   1.367   2.431  11.595  0.6118 -0.4033  0.6492
19868TIP3    H181019   1.392   2.413  11.505 -2.4352 -1.6228 -0.0660
19868TIP3    H281020   1.444   2.473  11.634  1.8042  0.7617 -2.6666
19869TIP3   OH281021   5.033   5.081   3.239  0.1808 -0.2250  0.2650
19869TIP3    H181022   4.958   5.021   3.238  0.6800 -0.8820  1.1368
19869TIP3    H281023   5.000   5.160   3.196 -1.2333 -0.2410  1.2267
19870TIP3   OH281024   3.277   3.549   2.555 -0.2053 -0.0880 -0.1378
19870TIP3    H181025   3.336   3.619   2.585  0.8766  0.2235 -2.7267
19870TIP3    H281026   3.298   3.538   2.462 -3.2926 -0.9670 -0.8387
19871TIP3   OH281027   5.375   5.891   3.269 -0.4902  0.1523 -0.2048
19871TIP3    H181028   5.383   5.813   3.214  0.9317  0.3054 -0.2471
19871TIP3    H281029   5.352   5.858   3.355  1.4828 -0.4651  0.1272
19872TIP3   OH281030   3.816   4.635  17.061 -0.1017  0.2908  0.1897
19872TIP3    H181031   3.909   4.660  17.060  0.2656 -0.8910  1.3416
19872TIP3    H281032   3.799   4.612  17.152 -0.8458 -1.8978 -0.4289
19873TIP3   OH281033   0.014   4.306   4.555  0.6528 -0.4250  0.0260
19873TIP3    H181034   0.012   4.219   4.514  0.4238 -0.6199  0.4462
19873TIP3    H281035   0.012   4.288   4.649  1.5071  0.0060  0.1344
19874TIP3   OH281036   5.095   1.408   4.313 -0.0311 -0.5356  0.0096
19874TIP3    H181037   5.106   1.502   4.298  2.6432 -0.7973 -0.0779
19874TIP3    H281038   5.112   1.368   4.228 -0.9452 -1.1304  0.0973
19875TIP3   OH281039   0.638   1.972   3.989  0.1046  0.1430 -0.1789
19875TIP3    H181040   0.642   1.888   3.944 -0.5812  0.1736 -0.3147
19875TIP3    H281041   0.714   2.021   3.955 -0.3083  0.1061 -1.2097
19876TIP3   OH281042   2.679   1.674  11.165  0.4236 -0.0120 -0.7128
19876TIP3    H181043   2.679   1.591  11.116  0.0841 -0.0893 -0.5869
19876TIP3    H281044   2.707   1.650  11.253  0.7241  0.0755 -0.7835
19877TIP3   OH281045   5.097   5.743   3.965  0.3747  0.1220 -0.0081
19877TIP3    H181046   5.064   5.832   3.952 -0.5445 -0.3300 -0.9421
19877TIP3    H281047   5.020   5.687   3.953  0.9064 -0.7967  0.7318
19878TIP3   OH281048   2.947   5.323  11.290  0.0371  0.2970 -0.2577
19878TIP3    H181049   2.943   5.415  11.316  1.2414  0.3562 -0.2128
19878TIP3    H281050   2.924   5.324  11.197  1.4622  0.8564 -0.6322
19879TIP3   OH281051   2.491   1.231   5.108 -0.2869  0.8100 -0.0049
19879TIP3    H181052   2.528   1.284   5.038  1.8957  1.3748  1.4879
19879TIP3    H281053   2.406   1.202   5.074  0.0986  2.1725 -2.3063
19880TIP3   OH281054   2.584   0.556   5.997 -0.2703 -0.2189  0.5127
19880TIP3    H181055   2.561   0.645   5.970 -0.7654 -0.0567  1.4352
19880TIP3    H281056   2.611   0.513   5.916  1.3122  1.1600  0.2432
19881TIP3   OH281057   4.588   1.647  10.657 -0.4489  0.4177  0.7873
19881TIP3    H181058   4.535   1.654  10.578  0.7144  2.2742  0.1029
19881TIP3    H281059   4.651   1.577  10.638  0.0805  1.1246 -0.1278
19882TIP3   OH281060   6.148   2.130  14.714 -0.3314 -0.0476 -0.0501
19882TIP3    H181061   6.234   2.147  14.675 -0.0817 -0.5944  0.2430
19882TIP3    H281062   6.118   2.050  14.671  0.2632 -1.0721  1.3311
19883TIP3   OH281063   2.540   0.003  15.648  0.1040  0.2854 -0.1974
19883TIP3    H181064   2.621  -0.025  15.606  0.1010 -0.4819  0.2896
19883TIP3    H281065   2.508   0.075  15.593  1.4580  1.0664 -0.0018
19884TIP3   OH281066   0.443   3.786   0.111  0.0938  0.1315  0.2936
19884TIP3    H181067   0.467   3.693   0.109  3.1418  0.8168 -0.2456
19884TIP3    H281068   0.483   3.819   0.192 -0.9479  1.0136  0.4760
19885TIP3   OH281069   0.651   0.132  12.007  0.2163  0.5871 -0.1358
19885TIP3    H181070   0.741   0.150  12.031  0.3313 -0.7718  0.5638
19885TIP3    H281071   0.609   0.106  12.088 -0.2790 -0.7540 -0.7907
19886TIP3   OH281072   3.620   3.687   6.278 -0.0822 -0.3760 -0.2080
19886TIP3    H181073   3.559   3.702   6.206  1.1312  1.4773 -0.9190
19886TIP3    H281074   3.595   3.602   6.314 -2.4614 -0.0994 -1.0587
19887TIP3   OH281075   4.432   0.537   1.850  0.9152  0.3915  0.2081
19887TIP3    H181076   4.505   0.574   1.900  1.3025  4.3142 -2.7457
19887TIP3    H281077   4.355   0.584   1.880  0.6635  0.6200 -0.7479
19888TIP3   OH281078   3.361   6.388  14.822 -0.2677 -0.2016 -0.1207
19888TIP3    H181079   3.401   6.437  14.894 -1.2930 -0.5905  0.7491
19888TIP3    H281080   3.318   6.455  14.769  0.7048  0.1150 -0.5234
19889TIP3   OH281081   3.609   2.299  12.791 -0.5627  0.0021 -0.4301
19889TIP3    H181082   3.604   2.221  12.735 -0.9027  0.3256 -0.8593
19889TIP3    H281083   3.533   2.291  12.850 -1.8023  1.0040 -1.8080
19890TIP3   OH281084   2.009   2.484   3.549  0.4818 -0.0586  0.0385
19890TIP3    H181085   2.049   2.397   3.546  0.2417 -0.2158  1.0375
19890TIP3    H281086   1.928   2.471   3.599  0.7126  0.8439  0.6611
19891TIP3   OH281087   3.172   1.059  16.224  0.8700  0.5893 -0.1000
19891TIP3    H181088   3.107   1.075  16.155  1.2620  0.4202 -0.5131
19891TIP3    H281089   3.247   1.022  16.178  0.5877 -0.9574  0.5985
19892TIP3   OH281090   0.077   0.280  12.200 -0.1899 -0.1319 -0.0054
19892TIP3    H181091   0.140   0.264  12.129 -0.0298 -0.4082  0.1973
19892TIP3    H281092   0.053   0.192  12.230 -1.3932 -0.0601 -0.7074
19893TIP3   OH281093   5.663   5.791   0.124 -0.0951 -0.4293  0.4922
19893TIP3    H181094   5.674   5.885   0.132 -0.0887 -0.4434  0.6574
19893TIP3    H281095   5.712   5.754   0.197  3.3203 -0.8151 -1.7535
19894TIP3   OH281096   6.678   1.337   4.720  0.2811  0.0416 -0.2711
19894TIP3    H181097   6.650   1.428   4.728  2.2605  0.7256 -0.6017
19894TIP3    H281098   6.647   1.310   4.633 -1.9446 -0.2765  0.5434
19895TIP3   OH281099   1.003   1.768  14.515  0.1089  0.2097 -0.1923
19895TIP3    H181100   0.935   1.757  14.448 -2.7409 -1.5343  2.6779
19895TIP3    H281101   1.000   1.687  14.565  2.3889  1.2384  1.8047
19896TIP3   OH281102   0.091   3.576   1.144 -0.3803 -0.4421 -0.2348
19896TIP3    H181103   0.153   3.643   1.114  0.4785 -0.9083  0.4224
19896TIP3    H281104   0.040   3.619   1.212 -0.3747 -0.2209 -0.3713
19897TIP3   OH281105   1.610   0.965  15.849 -0.4996  0.7728  0.4267
19897TIP3    H181106   1.686   0.964  15.791 -0.3441 -0.8327  0.6266
19897TIP3    H281107   1.644   0.938  15.934 -0.9669  1.8663  0.9822
19898TIP3   OH281108   2.399   6.095   3.381 -0.5109 -0.0206  0.0343
19898TIP3    H181109   2.335   6.053   3.438 -0.3516 -0.8050 -0.3354
19898TIP3    H281110   2.440   6.022   3.334 -0.4817  0.5776 -0.9081
19899TIP3   OH281111   5.181   1.802  14.629  0.1276  0.4063  0.0085
19899TIP3    H181112   5.132   1.818  14.709  0.2030 -1.3962  0.4696
19899TIP3    H281113   5.115   1.774  14.565  0.2796  0.0404  0.0062
19900TIP3   OH281114   2.526   2.839  10.793  0.5628  0.0887 -0.2531
19900TIP3    H181115   2.543   2.866  10.703  0.2850 -2.4857 -1.1569
19900TIP3    H281116   2.532   2.744  10.791  1.4654 -0.0140  2.6650
19901TIP3   OH281117   5.972   5.372  13.906 -0.2486  0.3917 -0.0933
19901TIP3    H181118   5.968   5.458  13.948  1.8285  0.7823 -0.5595
19901TIP3    H281119   5.907   5.376  13.836 -1.2858  0.9959  0.8752
19902TIP3   OH281120   0.976   4.716  11.879  0.2587 -0.5271 -0.5190
19902TIP3    H181121   1.026   4.636  11.897  0.3835 -0.3114  0.0974
19902TIP3    H281122   0.963   4.757  11.964 -0.2833 -0.1653 -0.7669
19903TIP3   OH281123   2.603   5.126   5.233 -0.1068  0.1316  0.1983
19903TIP3    H181124   2.596   5.206   5.180  0.5229  0.6591  0.8910
19903TIP3    H281125   2.542   5.140   5.305  0.1911  0.0956  0.4589
19904TIP3   OH281126   2.050   4.834  12.050  0.2021  0.4292  0.2839
19904TIP3    H181127   2.031   4.785  12.130 -0.9750 -0.9852 -0.7967
19904TIP3    H281128   2.068   4.766  11.984  0.3506  1.5202 -0.8475
19905TIP3   OH281129   1.042   3.665   0.685  0.8972 -0.7686  0.3786
19905TIP3    H181130   1.067   3.746   0.641  3.0723 -1.0147  1.0185
19905TIP3    H281131   0.992   3.693   0.762 -0.3441 -0.1943 -0.6024
19906TIP3   OH281132   6.236   4.808  11.787  0.7235  0.2028 -0.1405
19906TIP3    H181133   6.322   4.787  11.823  0.6467  0.2226  0.0524
19906TIP3    H281134   6.250   4.889  11.737  0.6817  0.5627  0.4202
19907TIP3   OH281135   1.515   6.038  15.063  0.2722  0.7050 -0.1200
19907TIP3    H181136   1.542   6.022  14.973 -1.4921 -0.3628 -0.4870
19907TIP3    H281137   1.595   6.026  15.114  0.7490 -1.3533 -1.2638
19908TIP3   OH281138   1.103   3.364   1.959  0.1706 -0.1304 -0.4729
19908TIP3    H181139   1.106   3.340   1.867 -1.5227 -0.4584 -0.4741
19908TIP3    H281140   1.066   3.288   2.003  4.1125 -1.3976  1.0686
19909TIP3   OH281141   3.077   2.124   1.768 -0.1721 -0.5278 -0.7568
19909TIP3    H181142   3.059   2.041   1.813 -1.1528  0.4584  0.7622
19909TIP3    H281143   2.997   2.143   1.719 -0.5103  0.1763  0.0296
19910TIP3   OH281144   0.706   0.540   3.562 -0.5507 -0.2663 -0.5500
19910TIP3    H181145   0.649   0.583   3.626 -2.7681 -1.0252 -1.9162
19910TIP3    H281146   0.647   0.507   3.496  0.8769 -5.6425  0.4179
19911TIP3   OH281147   1.766   0.424  16.488  0.2129  0.4481  0.2454
19911TIP3    H181148   1.812   0.489  16.541 -0.7034  0.7509  0.6926
19911TIP3    H281149   1.822   0.411  16.412 -0.3600  3.1244 -0.7713
19912TIP3   OH281150   5.225   6.483  11.748  0.3617 -0.1790 -0.0653
19912TIP3    H181151   5.241   6.418  11.679 -1.2970  1.4506 -2.1400
19912TIP3    H281152   5.130   6.483  11.758  0.5786 -0.6366  2.5911
19913TIP3   OH281153   6.485   0.754  10.805  0.4144  0.2028  0.1140
19913TIP3    H181154   6.422   0.758  10.734  0.0066 -0.7024  0.4126
19913TIP3    H281155   6.566   0.725  10.764  0.1414 -0.4613  0.0357
19914TIP3   OH281156   0.802   0.942  14.366 -0.0669  0.3575  0.3449
19914TIP3    H181157   0.784   0.991  14.286  2.6749  0.8696 -0.0819
19914TIP3    H281158   0.778   0.852  14.345  2.1900  0.1278 -1.7964
19915TIP3   OH281159   1.351   1.519   0.124 -0.5210 -0.1984  0.2421
19915TIP3    H181160   1.371   1.574   0.200  1.9018  0.5625 -0.8508
19915TIP3    H281161   1.298   1.575   0.067  2.1267  1.2408 -0.9729
19916TIP3   OH281162   4.705   1.303  15.739  0.5536 -0.0511  0.7788
19916TIP3    H181163   4.714   1.324  15.646  0.6982  1.1704  1.0461
19916TIP3    H281164   4.779   1.348  15.780 -0.1481  0.3654  1.6130
19917TIP3   OH281165   3.208   1.395  11.963  0.2531 -0.5053 -0.1107
19917TIP3    H181166   3.230   1.332  11.894 -1.3017 -0.5797 -0.5954
19917TIP3    H281167   3.284   1.452  11.969  0.3624 -0.3636 -2.0834
19918TIP3   OH281168   4.990   1.575  10.892 -0.2951 -0.0539  0.1614
19918TIP3    H181169   4.966   1.543  10.805 -2.2323  0.6209  0.4067
19918TIP3    H281170   4.915   1.553  10.947  1.7360 -2.4523  2.2346
19919TIP3   OH281171   0.776   1.312  11.430 -0.4881 -0.3539 -0.3566
19919TIP3    H181172   0.773   1.406  11.413  0.8221 -0.2406 -0.0633
19919TIP3    H281173   0.743   1.272  11.350  0.5269  0.3129 -1.1294
19920TIP3   OH281174   3.421   4.913  11.554 -0.2485 -0.0433  0.1415
19920TIP3    H181175   3.430   4.941  11.646  0.1931  2.4431 -0.5851
19920TIP3    H281176   3.330   4.885  11.547 -0.7577  1.2955  0.9780
19921TIP3   OH281177   1.777   3.351  13.006  0.6547  0.2295  0.3738
19921TIP3    H181178   1.724   3.303  13.071 -0.5832 -0.4621 -1.0920
19921TIP3    H281179   1.864   3.310  13.011 -0.0975 -1.5063 -0.1039
19922TIP3   OH281180   6.149   3.292   2.113  0.7321  0.4462 -0.2232
19922TIP3    H181181   6.079   3.286   2.178  0.6036 -0.7767 -0.4427
19922TIP3    H281182   6.181   3.202   2.105  1.4422  0.7665 -1.0938
19923TIP3   OH281183   5.067   2.135   3.240 -0.4417 -0.2337  0.1630
19923TIP3    H181184   5.068   2.042   3.262  2.8314 -0.8498 -2.0091
19923TIP3    H281185   5.125   2.175   3.305  1.6470 -0.5259 -1.4193
19924TIP3   OH281186   0.257   0.033  12.172 -0.1840 -0.5144  0.2653
19924TIP3    H181187   0.162   0.027  12.181 -0.0420  0.0896  2.8029
19924TIP3    H281188   0.275  -0.003  12.085 -2.5042 -2.9612  0.6774
19925TIP3   OH281189   1.061   1.825   2.141 -0.0371 -0.4310  0.0114
19925TIP3    H181190   0.970   1.807   2.117  0.5591 -2.2269 -1.1477
19925TIP3    H281191   1.056   1.864   2.228 -1.9051 -0.7066  0.0652
19926TIP3   OH281192   1.804   2.844   2.677  0.2880 -0.3712  0.2469
19926TIP3    H181193   1.808   2.782   2.604 -1.0123  2.9723 -2.9373
19926TIP3    H281194   1.711   2.865   2.686  0.3323 -0.9460  3.3075
19927TIP3   OH281195   0.325   0.784   1.445 -0.6438  0.1204 -0.2055
19927TIP3    H181196   0.402   0.770   1.391  0.3310 -0.0464  1.1915
19927TIP3    H281197   0.354   0.843   1.515 -1.7955  0.1024  0.3206
19928TIP3   OH281198   1.923   6.238  12.916  0.6548 -0.5303  0.1789
19928TIP3    H181199   1.868   6.300  12.964 -1.2577  0.3877 -2.9408
19928TIP3    H281200   1.992   6.292  12.877  1.3563 -1.0534  0.6524
19929TIP3   OH281201   6.309   0.531   2.649 -0.0824  0.1048  0.3139
19929TIP3    H181202   6.310   0.607   2.707 -0.5719  1.4288 -1.3397
19929TIP3    H281203   6.385   0.543   2.592  0.8208 -1.5604  1.1087
19930TIP3   OH281204   5.555   4.621   5.050 -0.2930  0.0766  0.2867
19930TIP3    H181205   5.618   4.577   5.107 -1.5455 -0.3758  1.3632
19930TIP3    H281206   5.493   4.553   5.025 -0.4903  0.5622 -0.5784
19931TIP3   OH281207   5.809   5.661   0.353  0.0499 -0.5265  0.2861
19931TIP3    H181208   5.842   5.709   0.428  0.6626 -1.4509  0.6292
19931TIP3    H281209   5.825   5.569   0.374  1.5615 -0.7577 -1.5471
19932TIP3   OH281210   6.173   5.590  11.191 -0.0158 -0.1533 -0.0781
19932TIP3    H181211   6.159   5.512  11.137 -0.8519 -1.3083  1.7399
19932TIP3    H281212   6.259   5.576  11.231  0.6088  0.7097 -1.0653
19933TIP3   OH281213   4.519   3.304   0.177 -0.5304 -0.8005  0.0081
19933TIP3    H181214   4.549   3.391   0.201  1.4810  0.2820 -5.1415
19933TIP3    H281215   4.424   3.313   0.167 -0.3377  0.8917 -0.5981
19934TIP3   OH281216   5.121   4.273   3.838  0.6770  0.1838 -0.1847
19934TIP3    H181217   5.140   4.179   3.840  2.7510  0.5651  1.0244
19934TIP3    H281218   5.147   4.301   3.750  0.2099 -0.3302 -0.4904
19935TIP3   OH281219   3.865   5.292   1.496 -0.0076 -0.1867  0.1215
19935TIP3    H181220   3.891   5.295   1.404  1.4704  0.6646  0.5349
19935TIP3    H281221   3.946   5.278   1.544 -1.1221 -4.8734  1.1590
19936TIP3   OH281222   6.241   0.347  15.563 -0.6430  0.2386 -0.1147
19936TIP3    H181223   6.288   0.345  15.480 -0.9210 -0.1482 -0.2632
19936TIP3    H281224   6.298   0.397  15.622 -0.3717  0.3690 -0.4898
19937TIP3   OH281225   4.119   1.089  13.942  0.1695  0.3303  0.3217
19937TIP3    H181226   4.035   1.044  13.928 -0.0865  1.3361 -1.7378
19937TIP3    H281227   4.102   1.179  13.914  2.0824  0.4171 -0.6640
19938TIP3   OH281228   0.095   3.696  14.412 -0.4127 -0.6203  0.1169
19938TIP3    H181229   0.145   3.745  14.347  0.3308 -0.6222  0.6776
19938TIP3    H281230   0.009   3.683  14.372 -0.3501  0.4161 -0.3796
19939TIP3   OH281231   3.432   6.052  11.187 -0.1858 -0.1593  0.5270
19939TIP3    H181232   3.454   6.079  11.098  0.5120 -0.1296  0.7020
19939TIP3    H281233   3.470   6.121  11.243 -1.6888  0.4840  0.7982
19940TIP3   OH281234   2.732   0.370   0.639  0.3041 -0.1198 -0.1638
19940TIP3    H181235   2.740   0.311   0.564  0.0204  1.1026 -1.2054
19940TIP3    H281236   2.798   0.437   0.624  1.4276 -0.7657  1.6151
19941TIP3   OH281237   5.715   6.241  16.893  0.2827 -0.2245 -0.0670
19941TIP3    H181238   5.678   6.328  16.910  1.6661  1.2491 -3.5308
19941TIP3    H281239   5.805   6.247  16.927  0.3326 -0.3634 -0.1758
19942TIP3   OH281240   3.980   3.130   5.986  0.1099 -0.3722 -0.2857
19942TIP3    H181241   4.030   3.211   5.980  1.8745 -1.4858 -1.8330
19942TIP3    H281242   4.035   3.070   6.037  0.1334 -1.4436 -1.5040
19943TIP3   OH281243   2.419   5.631  11.997 -0.4977 -0.1289  0.8208
19943TIP3    H181244   2.438   5.546  11.958 -1.6999 -1.0195  2.0631
19943TIP3    H281245   2.504   5.666  12.022  0.1650 -0.1972 -1.1602
19944TIP3   OH281246   0.395   4.328  17.007 -0.0774 -0.1687  0.5090
19944TIP3    H181247   0.378   4.385  16.932  0.2771 -1.6975 -0.7962
19944TIP3    H281248   0.328   4.260  17.001  0.0020 -0.3605  1.5556
19945TIP3   OH281249   4.015   5.950   1.822 -0.0759 -0.3596  0.3427
19945TIP3    H181250   4.080   5.986   1.761 -0.0968  1.8099  1.5032
19945TIP3    H281251   4.061   5.942   1.905 -1.0038  0.1749  0.9203
19946TIP3   OH281252   2.161   5.934  12.682  0.2382 -0.5346  0.7984
19946TIP3    H181253   2.196   6.009  12.730  0.6474 -0.3984  0.2877
19946TIP3    H281254   2.234   5.902  12.630 -0.3067 -0.4508 -0.0233
19947TIP3   OH281255   4.282   2.342   5.513  0.2124 -0.6227 -0.1913
19947TIP3    H181256   4.225   2.285   5.461  0.0734 -1.4935  0.8535
19947TIP3    H281257   4.277   2.305   5.602 -0.2005  1.2729  0.6353
19948TIP3   OH281258   2.547   6.283   0.242 -0.0105  0.5706  0.8065
19948TIP3    H181259   2.533   6.373   0.212 -0.6544  0.6064  1.2055
19948TIP3    H281260   2.477   6.267   0.305 -0.9350 -0.7928 -0.4907
19949TIP3   OH281261   1.632   1.226  13.315 -0.3057  0.6281 -0.4592
19949TIP3    H181262   1.651   1.205  13.407 -0.5362 -1.4008 -0.8233
19949TIP3    H281263   1.713   1.265  13.282  0.4581 -0.4384  0.1040
19950TIP3   OH281264   1.374   0.560   1.608  0.6857 -0.2166 -0.0529
19950TIP3    H181265   1.467   0.563   1.632  0.8427  0.6916 -0.7292
19950TIP3    H281266   1.364   0.476   1.563  1.1156 -0.4305  0.2324
19951TIP3   OH281267   1.345   2.398  13.717 -0.6029  0.2836  0.1579
19951TIP3    H181268   1.298   2.314  13.715 -2.6559  1.3870 -1.1674
19951TIP3    H281269   1.341   2.425  13.809 -0.5193 -0.7149  0.4750
19952TIP3   OH281270   5.690   3.342  16.703 -0.0272  0.1136 -0.4798
19952TIP3    H181271   5.767   3.327  16.758 -0.4815 -1.1420 -0.1576
19952TIP3    H281272   5.713   3.306  16.618  0.0101  0.4127 -0.5972
19953TIP3   OH281273   0.861   1.132  15.971 -0.8828  0.2584 -0.6315
19953TIP3    H181274   0.848   1.113  16.063 -1.2037  0.2861 -0.6706
19953TIP3    H281275   0.815   1.215  15.957 -0.2747  0.5957 -0.6667
19954TIP3   OH281276   4.664   0.137  15.219 -0.0625 -0.3068 -0.1916
19954TIP3    H181277   4.583   0.095  15.191 -0.4601  0.6749 -0.5558
19954TIP3    H281278   4.643   0.230  15.221  0.8804 -0.0954  0.3227
19955TIP3   OH281279   1.079   2.105   3.607 -0.1154 -0.0718  0.1375
19955TIP3    H181280   1.072   2.199   3.591  1.3604  0.2524  1.1563
19955TIP3    H281281   1.029   2.090   3.687  0.5856  0.0616  0.6074
19956TIP3   OH281282   5.426   3.417  13.584  0.3167 -0.6050 -0.4329
19956TIP3    H181283   5.369   3.442  13.657  0.6507  0.1704 -0.4225
19956TIP3    H281284   5.422   3.492  13.525  0.6674 -0.9028 -0.8377
19957TIP3   OH281285   1.338   5.119  12.528 -0.0991 -0.1509 -0.1013
19957TIP3    H181286   1.349   5.125  12.433 -4.5773 -2.1144 -0.9702
19957TIP3    H281287   1.348   5.026  12.547  0.9776  0.2525  1.4665
19958TIP3   OH281288   4.801   6.537  13.941  0.0197  0.1227 -0.9552
19958TIP3    H181289   4.824   6.449  13.912  1.6581  0.7744 -1.8041
19958TIP3    H281290   4.869   6.593  13.903  0.0970  1.5284  1.0892
19959TIP3   OH281291   2.654   3.289  13.191  0.7343 -0.4502 -0.3251
19959TIP3    H181292   2.632   3.254  13.277  1.0700 -0.1019 -0.0935
19959TIP3    H281293   2.700   3.217  13.147 -0.6613 -1.1182 -0.7499
19960TIP3   OH281294   6.471   2.053   0.220 -0.1321 -0.2955 -0.0357
19960TIP3    H181295   6.433   2.076   0.135 -0.5036 -0.4482  0.0823
19960TIP3    H281296   6.464   2.133   0.272 -1.9770 -0.7993  0.5696
19961TIP3   OH281297   4.341   2.330  10.513 -0.0016  0.0588  0.0267
19961TIP3    H181298   4.381   2.291  10.591  0.3798 -1.5252 -0.9130
19961TIP3    H281299   4.248   2.306  10.519 -0.5031  2.0118  1.1713
19962TIP3   OH281300   3.507   5.622   2.653  0.6907  0.0316  0.1372
19962TIP3    H181301   3.449   5.659   2.586 -1.0169 -0.3391  1.3621
19962TIP3    H281302   3.461   5.635   2.735 -0.0772 -4.6893  0.7316
19963TIP3   OH281303   1.459   6.660  11.818  0.2281  0.2595  0.3443
19963TIP3    H181304   1.481   6.645  11.910 -1.1075 -1.0700  0.4821
19963TIP3    H281305   1.364   6.659  11.816  0.2394  0.3961 -1.0442
19964TIP3   OH281306   0.360   1.473   2.599  0.1660  0.9688  0.3601
19964TIP3    H181307   0.374   1.434   2.685  0.1932 -2.4708 -1.0614
19964TIP3    H281308   0.272   1.446   2.575  0.9402 -0.0747 -1.5376
19965TIP3   OH281309   2.145   1.517  10.735  0.4107  0.5916  0.3948
19965TIP3    H181310   2.087   1.571  10.788  0.1657  0.5151  0.2083
19965TIP3    H281311   2.230   1.523  10.778  0.5323  1.5959  0.0573
19966TIP3   OH281312   4.401   5.071  13.211  0.3389  0.0474 -0.1905
19966TIP3    H181313   4.341   5.103  13.279 -0.6386  1.0342 -1.4691
19966TIP3    H281314   4.480   5.123  13.221  0.5941 -0.5044  0.8086
19967TIP3   OH281315   5.346   1.617  15.206  0.4769  0.2869  0.2170
19967TIP3    H181316   5.286   1.550  15.173  0.7847 -1.1448  2.3393
19967TIP3    H281317   5.339   1.688  15.143 -2.2056 -0.4910 -0.5070
19968TIP3   OH281318   1.983   0.343   0.797 -0.5884  0.2517 -0.2265
19968TIP3    H181319   1.905   0.335   0.852  0.0967  0.3714  0.7915
19968TIP3    H281320   2.007   0.436   0.802 -2.9704  1.3189 -4.2527
19969TIP3   OH281321   5.544   0.588  15.110 -0.4271 -0.2741 -0.7420
19969TIP3    H181322   5.489   0.540  15.171  0.1401  0.0113  0.0160
19969TIP3    H281323   5.488   0.607  15.036 -1.2742 -0.2192 -0.1001
19970TIP3   OH281324   2.076   0.072   4.285 -0.0853  0.2049 -0.2270
19970TIP3    H181325   2.086   0.071   4.190 -2.0564 -0.8484 -0.4880
19970TIP3    H281326   2.084  -0.020   4.311 -0.5172  0.3579  0.4901
19971TIP3   OH281327   2.818   4.332   2.924 -0.0192  0.3124 -0.2921
19971TIP3    H181328   2.854   4.409   2.969  1.2379 -1.1681  1.3980
19971TIP3    H281329   2.877   4.260   2.948 -1.2084 -1.2308 -1.7048
19972TIP3   OH281330   0.618   2.656  13.116  0.0858  0.3997  0.7934
19972TIP3    H181331   0.540   2.602  13.135  0.2698  0.1423  0.8249
19972TIP3    H281332   0.583   2.743  13.099 -0.3136  0.0362 -0.3480
19973LIG     O181333   5.102   1.959  12.908 -0.1909 -0.0013  0.0567
19973LIG     O281334   4.857   2.321  13.064  0.3686 -0.4148 -0.0186
19973LIG     N181335   4.789   2.113  13.134  0.2148 -0.3630 -0.4157
19973LIG     N281336   4.907   1.779  13.075  0.3894  0.1693 -0.6644
19973LIG     N381337   4.976   2.140  12.979  0.5230  0.2110  0.0103
19973LIG     N481338   4.735   1.874  13.191 -0.8099 -0.4159 -0.2413
19973LIG     C181339   4.909   1.915  13.048 -0.8867 -0.3747 -0.0449
19973LIG     C281340   4.802   1.971  13.120  0.1508 -0.6046 -0.7604
19973LIG     C381341   5.004   1.997  12.974  1.1768  0.5322 -0.4104
19973LIG     C481342   4.875   2.200  13.058  0.1341  0.2031 -0.6739
19973LIG     C581343   4.796   1.763  13.157  0.4654 -0.4986  0.3634
19973LIG     C681344   4.683   2.194  13.207 -0.6141  0.4432  0.4244
19973LIG     C781345   4.990   1.673  13.027  0.0102  0.4150  0.3743
19973LIG     C881346   5.074   2.229  12.909 -0.1891 -0.3369 -0.4330
19973LIG     H181347   4.767   1.662  13.185  3.1769 -1.1145  1.2502
19973LIG     H281348   4.595   2.132  13.233 -0.2668 -0.1570  0.1920
19973LIG     H381349   4.655   2.286  13.151  0.6450  0.4099 -0.2913
19973LIG     H481350   4.738   2.214  13.302 -0.2318 -1.3726  0.6197
19973LIG     H581351   5.031   1.604  13.104 -0.9294 -0.7459 -0.1306
19973LIG     H681352   5.084   1.715  12.985 -0.2570  2.2297  1.4978
19973LIG     H781353   4.946   1.611  12.947  2.5600 -0.0101 -0.8192
19973LIG     H881354   5.049   2.336  12.925  0.1897 -0.2379 -0.4933
19973LIG     H981355   5.082   2.205  12.801 -2.0471 -0.1366 -0.6545
19973LIG    H1081356   5.173   2.218  12.958 -1.0042  0.9515  1.6479
   6.82058   6.82058  17.10901
